
# Create simulation box and atoms
lattice		    sc 1
Lattice spacing in x,y,z = 1 1 1
region 		    all block 0 51.42 0 51.42 0 51.42 units box
create_box 	    1 all
Created orthogonal box = (0 0 0) to (51.42 51.42 51.42)
  2 by 2 by 3 MPI processor grid

create_atoms	1 random 4457 ${SEED} all
create_atoms	1 random 4457 29233 all
Created 4457 atoms
  create_atoms CPU = 0.000404596 secs

mass		    1 18.15

# Define potential

pair_style 	    sw
pair_coeff	    * * mW_real.sw mW
Reading potential file mW_real.sw with DATE: 2019-02-27

# Run minimization

minimize 	    1.0e-8 1.0e-8 10000 1000
WARNING: Using 'neigh_modify every 1 delay 0 check yes' setting during minimization (../min.cpp:168)
Neighbor list info ...
  update every 1 steps, delay 0 steps, check yes
  max neighbors/atom: 2000, page size: 100000
  master list distance cutoff = 6.3065
  ghost atom cutoff = 6.3065
  binsize = 3.15325, bins = 17 17 17
  1 neighbor lists, perpetual/occasional/extra = 1 0 0
  (1) pair sw, perpetual
      attributes: full, newton on
      pair build: full/bin/atomonly
      stencil: full/bin/3d
      bin: standard
Per MPI rank memory allocation (min/avg/max) = 4.226 | 4.228 | 4.231 Mbytes
Step Temp E_pair E_mol TotEng Press 
       0            0    6237003.1            0    6237003.1    4327270.8 
     741            0   -50279.068            0   -50279.068   -1190.1328 
Loop time of 1.94282 on 12 procs for 741 steps with 4457 atoms

99.6% CPU use with 12 MPI tasks x no OpenMP threads

Minimization stats:
  Stopping criterion = max force evaluations
  Energy initial, next-to-last, final = 
         6237003.13799      -50278.655164     -50279.0677654
  Force two-norm initial, final = 1.77755e+08 4.77223
  Force max component initial, final = 9.52086e+07 1.12479
  Final line search alpha, max atom move = 0.0369824 0.0415973
  Iterations, force evaluations = 741 1001

MPI task timing breakdown:
Section |  min time  |  avg time  |  max time  |%varavg| %total
---------------------------------------------------------------
Pair    | 1.4983     | 1.667      | 1.8399     |   7.8 | 85.81
Neigh   | 0.028575   | 0.030201   | 0.031633   |   0.6 |  1.55
Comm    | 0.045363   | 0.21952    | 0.39004    |  21.6 | 11.30
Output  | 0          | 0          | 0          |   0.0 |  0.00
Modify  | 0          | 0          | 0          |   0.0 |  0.00
Other   |            | 0.02606    |            |       |  1.34

Nlocal:    371.417 ave 383 max 362 min
Histogram: 1 1 3 2 1 0 1 1 1 1
Nghost:    1054.67 ave 1087 max 1018 min
Histogram: 1 0 1 2 2 1 3 0 0 2
Neighs:    0 ave 0 max 0 min
Histogram: 12 0 0 0 0 0 0 0 0 0
FullNghs:  12030.8 ave 12687 max 11623 min
Histogram: 1 3 3 0 1 0 3 0 0 1

Total # of neighbors = 144370
Ave neighs/atom = 32.3917
Neighbor list builds = 44
Dangerous builds = 0

# Create Cavity with Hard sphere "indent" potential

region		    cavity sphere 25.71 25.71 25.71 13.8 side in
group               cavity region cavity
373 atoms in group cavity
group               bulk subtract all cavity
4084 atoms in group bulk
delete_atoms	    region cavity
Deleted 373 atoms, new total = 4084
fix 		    5 all indent 10.0 sphere 25.71 25.71 25.71 13.8

# Equilibration of molecular water

# Add velocity/set timestep

velocity	    all create ${TEMP} ${SEED} rot yes dist gaussian
velocity	    all create 215 ${SEED} rot yes dist gaussian
velocity	    all create 215 29233 rot yes dist gaussian
timestep	    5.0

# Define output

compute			1 all msd
thermo	    	50
thermo_style	custom step temp press vol etotal ke pe c_1[4]

# Neighbor lists

neigh_modify    delay 0 every 1 check yes

# Set fixes

fix             1 bulk momentum 10 linear 1 1 1 rescale
fix             2 bulk nve
fix             3 bulk temp/csvr ${TEMP} ${TEMP} 500.0 ${SEED}
fix             3 bulk temp/csvr 215 ${TEMP} 500.0 ${SEED}
fix             3 bulk temp/csvr 215 215 500.0 ${SEED}
fix             3 bulk temp/csvr 215 215 500.0 29233
fix             4 bulk press/berendsen iso ${PRES} ${PRES} 1000.0 modulus 20000
fix             4 bulk press/berendsen iso 1.0 ${PRES} 1000.0 modulus 20000
fix             4 bulk press/berendsen iso 1.0 1.0 1000.0 modulus 20000

# Run 1 ns equilibration

dump		    1 all atom 2000 ${DIR}/eq.${NAME}-${TEMP}.dump
dump		    1 all atom 2000 run_1/eq.${NAME}-${TEMP}.dump
dump		    1 all atom 2000 run_1/eq.hardcavity_freeze_1-${TEMP}.dump
dump		    1 all atom 2000 run_1/eq.hardcavity_freeze_1-215.dump

reset_timestep  0

run	            200000
Per MPI rank memory allocation (min/avg/max) = 4.491 | 4.492 | 4.495 Mbytes
Step Temp Press Volume TotEng KinEng PotEng c_1[4] 
       0          215   -445.35904    135955.32   -42828.774    2616.6892   -45445.464 1.0539916e-33 
      50    139.15376   -315.12468    135785.26   -42270.662    1693.5913   -43964.254   0.21787821 
     100    154.17754   -190.90755    135483.57   -41844.259    1876.4405   -43720.699    0.3974412 
     150    169.10342   -213.69229    135233.24   -41514.306    2058.0982   -43572.404   0.58960985 
     200    178.31954   -155.49005    135032.53   -41294.608    2170.2643   -43464.872   0.78174976 
     250    184.12338   -39.045059    134868.56   -41090.865    2240.9008   -43331.766   0.97833248 
     300     192.7705   -56.476054    134812.95   -40955.266    2346.1418   -43301.408    1.1805241 
     350    198.03113   -68.170533    134612.85   -40818.564    2410.1671   -43228.731    1.4016937 
     400     202.5032   -22.623394    134449.03   -40647.717     2464.595   -43112.312    1.5811011 
     450    208.39143   -21.511434    134472.23   -40562.017    2536.2587   -43098.276    1.7616058 
     500    208.42567   -199.93779    134381.71   -40474.744    2536.6753    -43011.42     2.005657 
     550    213.97585   -190.00546    134067.85   -40414.339    2604.2247   -43018.564     2.173845 
     600    215.27047   -97.639374    133994.33   -40380.229     2619.981   -43000.209    2.3614723 
     650    216.38414   -25.932456    133926.71    -40325.79    2633.5351   -42959.325    2.5220405 
     700    210.86159     23.67444    133861.04   -40367.868    2566.3221    -42934.19    2.6392592 
     750    213.15363   -186.76584    133678.27   -40382.855    2594.2177   -42977.073    2.7191149 
     800    212.32521   -69.495912    133448.05    -40442.72    2584.1353   -43026.856    2.8779749 
     850    210.25613   -79.775538    133260.21   -40454.247    2558.9532     -43013.2    3.0643083 
     900    216.07107   -75.776943    133113.78   -40391.408    2629.7248   -43021.133    3.2245978 
     950     213.7838   0.19995151     133125.4    -40357.21    2601.8873   -42959.097    3.3555909 
    1000    214.85823     100.5481    133088.39    -40379.76    2614.9637   -42994.724    3.5331305 
    1050    219.63613   -16.335079    133166.41   -40346.626    2673.1139    -43019.74    3.7172054 
    1100    219.46876    9.9549309     133212.2   -40315.319     2671.077   -42986.396    3.8249641 
    1150    219.99038   -89.926372    133129.47   -40294.122    2677.4254   -42971.548    4.0281761 
    1200    217.08652   -3.0420757    133017.77   -40353.288    2642.0834   -42995.372    4.1569143 
    1250    220.59086   -137.49147    132864.38   -40339.704    2684.7336   -43024.437    4.3152076 
    1300    215.12092   -102.53349    132682.75   -40355.785    2618.1609   -42973.946    4.4906781 
    1350    216.78923    66.839636    132528.27   -40416.946    2638.4653   -43055.412    4.7373511 
    1400    214.90248   -11.056288    132589.06   -40437.403    2615.5023   -43052.905    4.9529119 
    1450    216.72914   -123.05951    132551.33    -40498.49     2637.734   -43136.224    5.1505488 
    1500    216.42503    36.287508    132533.27   -40434.265    2634.0328   -43068.298    5.4098697 
    1550    213.12262   0.40074555    132403.05   -40464.253    2593.8402   -43058.093    5.6127916 
    1600    217.57622   -35.244291    132337.52   -40481.532    2648.0435   -43129.576    5.7332185 
    1650    216.12629   -135.96591    132221.97   -40446.608    2630.3969   -43077.005    5.9779871 
    1700    213.66612   -5.1466122    132012.05   -40423.301     2600.455   -43023.756    6.1497527 
    1750    216.48832     68.78944    132035.85   -40413.748     2634.803   -43048.551    6.2566577 
    1800    215.20795    10.543646    132173.04   -40449.156    2619.2201   -43068.376    6.4372616 
    1850    217.05892    5.7357955     132157.2   -40437.798    2641.7475   -43079.546    6.6062127 
    1900    218.71063   -90.130356    132073.11   -40433.513    2661.8499   -43095.363    6.8460008 
    1950    216.94669    84.184232    132029.44   -40449.092    2640.3817   -43089.474    6.9609583 
    2000    217.31585    -219.5101    131889.92    -40483.18    2644.8746   -43128.054    7.1291545 
    2050    219.09056    114.46048    131898.59   -40405.951     2666.474   -43072.425     7.279076 
    2100    221.55088    143.71956    132080.61   -40355.842    2696.4176   -43052.259    7.4865794 
    2150    216.84477   -103.72394    132126.54   -40332.371    2639.1413   -42971.512    7.6588069 
    2200    221.15553   -85.196639    132050.99   -40348.368     2691.606   -43039.974    7.7873469 
    2250    215.63823    -35.97997    131900.21   -40404.453    2624.4569    -43028.91    7.9079733 
    2300    215.83815   -49.853718     131803.6    -40428.22      2626.89    -43055.11    8.0999311 
    2350    217.63569    125.31501    131857.31    -40425.93    2648.7672   -43074.697    8.2795145 
    2400    214.20327   -126.94023    131881.35   -40488.203    2606.9924   -43095.196    8.4956206 
    2450    213.99603    51.609315    131866.51   -40475.827    2604.4702   -43080.297    8.6818264 
    2500    218.21476   -176.38564    131760.96   -40485.174    2655.8149   -43140.989    8.8725852 
    2550    211.37876   -92.155346    131569.77   -40511.397    2572.6163   -43084.013    9.0170853 
    2600    217.79444    14.261581    131477.46   -40486.887    2650.6993   -43137.586    9.1919357 
    2650    215.69815    37.427145    131416.65   -40537.907    2625.1861   -43163.093    9.3654196 
    2700    215.83843    51.208147    131489.12   -40525.051    2626.8934   -43151.945    9.4581241 
    2750    215.94116    21.895228    131449.11   -40537.576    2628.1438   -43165.719    9.6321455 
    2800    217.11704    42.661173    131460.96   -40482.723     2642.455   -43125.178    9.7777765 
    2850    215.28072    59.160136    131411.05   -40481.135    2620.1058   -43101.241     9.848771 
    2900    215.96968    33.990809    131426.02   -40499.399    2628.4908    -43127.89    9.9630977 
    2950    215.09437   -151.04319    131253.37   -40539.714    2617.8377   -43157.552    10.126388 
    3000    213.31477    44.205228    131204.02   -40511.038    2596.1788   -43107.216    10.281208 
    3050    211.35109    105.84608    131165.17   -40544.857    2572.2796   -43117.137    10.447227 
    3100    210.82282    18.120788    131144.93   -40552.733    2565.8502   -43118.583    10.617861 
    3150    210.82618    42.433279     131140.6    -40506.33    2565.8911   -43072.221    10.854244 
    3200    216.05462    136.72853     131252.5   -40500.224    2629.5246   -43129.748    11.107764 
    3250    214.38185    2.0783819    131359.83   -40501.955    2609.1659   -43111.121    11.353003 
    3300     213.8847    95.999282    131492.42   -40460.137    2603.1153   -43063.252    11.546819 
    3350    214.20329   -71.566523    131509.74   -40522.672    2606.9927   -43129.665    11.798973 
    3400    213.02401   -30.408764    131437.43   -40494.149    2592.6401   -43086.789    11.884578 
    3450    212.84139    -8.560408    131389.75   -40475.624    2590.4176   -43066.042    12.084845 
    3500    213.76826    5.5548108     131480.5   -40502.505    2601.6982   -43104.203    12.220618 
    3550    215.49486    58.147516    131466.64   -40541.227    2622.7119   -43163.938    12.387087 
    3600    211.48487   -17.123768    131468.58   -40557.518    2573.9078   -43131.425    12.681424 
    3650    212.03774   -84.834442    131420.16   -40521.126    2580.6366   -43101.763    12.702834 
    3700    216.72704      35.5975    131471.76   -40499.794    2637.7084   -43137.502     12.82733 
    3750    210.45534    29.673162    131461.17   -40546.695    2561.3778   -43108.073    13.057106 
    3800    215.63799   -71.016295    131452.38   -40507.343    2624.4539   -43131.797     13.32991 
    3850    215.45854    -123.1563    131344.05   -40554.297    2622.2699   -43176.567    13.639666 
    3900    210.38833    69.889672    131240.73   -40621.962    2560.5622   -43182.524    13.818771 
    3950    212.13261    117.75463    131255.15    -40618.91    2581.7912   -43200.701    13.919973 
    4000    213.40154    1.6167858    131186.95   -40644.517    2597.2349   -43241.752    14.100258 
    4050    214.74204    -71.92955    131241.34   -40636.157    2613.5496   -43249.707    14.274453 
    4100     212.9285    39.178253    131320.55   -40607.116    2591.4777   -43198.594    14.426146 
    4150    214.04447   -114.92827    131259.64   -40588.008    2605.0598   -43193.068    14.597471 
    4200    210.00917    103.21374    131222.23   -40645.526    2555.9475   -43201.473    14.725634 
    4250    216.03042    32.781537       131257   -40590.452    2629.2301   -43219.682     14.86838 
    4300    214.83688    90.669518    131406.12   -40564.171     2614.704   -43178.875    15.080101 
    4350    213.09989    31.311371    131307.67   -40591.408    2593.5636   -43184.972    15.198239 
    4400    217.99272   -199.70692    131353.72    -40571.77    2653.1126   -43224.883    15.319694 
    4450    215.92733   -2.0030455    131271.93   -40554.774    2627.9754   -43182.749    15.469241 
    4500    214.88669    61.337906    131274.84   -40578.721    2615.3102   -43194.031    15.657704 
    4550    219.28944    17.122862    131297.75   -40580.521    2668.8944   -43249.416    15.971379 
    4600    213.47292    17.019573    131233.41    -40593.17    2598.1036   -43191.273    16.175321 
    4650    211.27615    8.5298787    131310.12   -40665.156    2571.3675   -43236.523    16.264255 
    4700    216.08156    123.51021    131356.11   -40642.172    2629.8525   -43272.024    16.488762 
    4750    211.33778   -24.458544    131482.72   -40631.889    2572.1177   -43204.007    16.589184 
    4800    210.83061   -10.462965    131378.25   -40642.337     2565.945   -43208.282    16.758927 
    4850    213.30975     4.353193    131339.85   -40640.828    2596.1177   -43236.946    16.945297 
    4900    211.82716    53.075388    131399.57   -40639.839    2578.0737   -43217.913    17.086507 
    4950    210.49491    182.75943    131508.73   -40647.748    2561.8594   -43209.607    17.164049 
    5000    213.75023   -67.897444    131514.88   -40627.541    2601.4787   -43229.019    17.243459 
    5050     214.2099    146.15219    131453.64   -40613.451    2607.0731   -43220.524    17.314323 
    5100    216.45981    146.72644    131504.79   -40597.945    2634.4561   -43232.401    17.519292 
    5150    216.94899    90.526329    131633.42    -40612.84    2640.4096    -43253.25    17.657155 
    5200    212.20583    13.209442    131676.92   -40653.852    2582.6823   -43236.534    17.756628 
    5250    217.67315    136.81569    131738.66   -40592.727    2649.2232    -43241.95    17.818385 
    5300     211.8166    8.4808182    131853.36   -40603.272    2577.9452   -43181.217    17.895476 
    5350    211.02887    69.628354     131955.3   -40614.531    2568.3579   -43182.889      18.0206 
    5400    219.15969   -37.394711    131889.57   -40614.927    2667.3153   -43282.243    18.226095 
    5450     211.8103   -30.652553    131983.22   -40615.705    2577.8685   -43193.574    18.440676 
    5500    214.44392    35.373464    131997.54   -40632.857    2609.9213   -43242.778    18.535045 
    5550    212.74566   -48.871404    131951.59   -40641.044    2589.2524   -43230.296    18.523704 
    5600    210.47859   -157.76925    132001.32   -40671.473    2561.6607   -43233.134    18.647686 
    5650    213.29974    65.782982    131957.61   -40729.128     2595.996   -43325.124    18.786863 
    5700    211.78359   -52.708507    131999.52   -40669.313    2577.5435   -43246.856    18.921065 
    5750    216.88407    158.16916    132022.08   -40607.791    2639.6195    -43247.41     19.17133 
    5800    211.36425     124.7287    132150.34   -40605.842    2572.4398   -43178.282    19.338646 
    5850    219.99388   -63.589732    132148.53   -40648.667     2677.468   -43326.135    19.470363 
    5900    215.64115   -54.505137    132075.51   -40609.847    2624.4924   -43234.339    19.837984 
    5950    213.87562   -53.717493    131994.18       -40617    2603.0048   -43220.005    20.004861 
    6000    213.06792   -80.560109    131927.38   -40633.978    2593.1746   -43227.153    20.047619 
    6050    213.96397    32.270312    131922.01   -40584.116      2604.08   -43188.196    20.194899 
    6100    217.20719    134.61216    131920.71    -40558.23    2643.5522   -43201.782    20.180278 
    6150    219.93811    23.386113    131944.67   -40567.503    2676.7892   -43244.292    20.195198 
    6200    217.64385    33.615305    131975.96   -40617.481    2648.8665   -43266.348    20.372567 
    6250    211.59339   -144.56384    131861.67   -40700.848    2575.2285   -43276.076    20.536384 
    6300    213.49277   -127.52608    131752.45   -40707.016    2598.3453   -43305.361    20.709043 
    6350    213.71962   -245.43117    131611.58   -40663.128    2601.1061   -43264.235    20.896137 
    6400    214.53723   -39.401749    131629.07   -40639.632     2611.057   -43250.689     21.04009 
    6450    214.78602    32.605352    131606.11     -40609.7    2614.0849   -43223.785    21.131236 
    6500    216.49177   -53.986509    131596.43   -40618.744     2634.845   -43253.589    21.262163 
    6550    213.42084   -67.745845    131651.34   -40645.542    2597.4697   -43243.011    21.405739 
    6600    215.72305    6.1365287    131650.56   -40599.642    2625.4892   -43225.131    21.420662 
    6650    216.94124    25.847057    131655.59   -40623.482    2640.3154   -43263.798      21.6591 
    6700    214.56364   -98.944964    131734.04   -40593.628    2611.3784   -43205.006    21.737301 
    6750    213.53032    -100.9966    131615.47   -40604.624    2598.8022   -43203.426     21.76742 
    6800    209.11403    140.35764    131587.22   -40674.998    2545.0532   -43220.051    21.836628 
    6850    218.08071    158.12899    131854.92   -40640.118    2654.1834   -43294.301    21.921812 
    6900    216.85905    -168.3333    131916.58   -40607.608    2639.3151   -43246.923    21.999555 
    6950    215.27144   -24.246226    131711.64   -40635.487    2619.9927    -43255.48    22.186703 
    7000    213.40042    104.84661    131736.95   -40628.233    2597.2212   -43225.454     22.35884 
    7050    216.81009    -73.65413    131942.86    -40629.45    2638.7191   -43268.169     22.49969 
    7100    215.80057    57.131095    131931.82   -40682.646    2626.4327   -43309.078    22.578598 
    7150    215.03931    42.259377    132030.65   -40722.499    2617.1676   -43339.667    22.701426 
    7200    214.75013   -14.614544    132063.39   -40775.915    2613.6481   -43389.563    22.798172 
    7250    213.47047    46.721088    132133.31   -40749.959    2598.0739   -43348.033    23.019934 
    7300    216.01675    66.140414    132151.27   -40730.473    2629.0637   -43359.537    23.232801 
    7350    215.47521    82.611356    132256.43   -40743.646    2622.4728   -43366.119     23.32974 
    7400    213.53449   -72.186579    132195.09   -40707.639     2598.853   -43306.492    23.436278 
    7450    217.66264    47.586845    132205.07    -40713.99    2649.0953   -43363.086    23.670312 
    7500    216.56859   -94.760304    131974.66   -40774.782    2635.7799   -43410.562    23.823518 
    7550    214.29845   -97.369411    131844.39   -40790.177    2608.1509   -43398.328    23.982488 
    7600     212.5478    100.01453    131916.18   -40773.816    2586.8443    -43360.66    24.017394 
    7650    216.55286    15.118466    131992.88   -40786.502    2635.5885    -43422.09    24.017455 
    7700    210.54291    167.39161    132006.22   -40808.358    2562.4435   -43370.802    24.069844 
    7750    216.00776    58.326792    132209.84   -40819.165    2628.9543   -43448.119    24.103604 
    7800    209.88962   -34.593613    132245.09   -40859.111    2554.4926   -43413.604    24.086517 
    7850    209.33046    -171.0634    132137.86   -40865.292    2547.6873    -43412.98    24.256662 
    7900    212.86796   -33.419237     131983.3   -40831.614    2590.7409   -43422.355    24.319496 
    7950     211.5018   -61.487249    131939.19   -40823.461    2574.1139   -43397.575    24.439875 
    8000    213.81873     30.70443    131963.16   -40810.029    2602.3124   -43412.341    24.639955 
    8050    216.69537    -9.488549    131932.15   -40779.202    2637.3229   -43416.525    24.832798 
    8100    209.49702   -58.461568    131931.38   -40781.072    2549.7144   -43330.787    24.890181 
    8150    211.54354    65.995083    131930.63   -40715.791    2574.6218   -43290.413    25.047199 
    8200    214.69579   -11.123062    131903.05   -40698.847    2612.9868   -43311.834    25.245727 
    8250    215.72197    36.715142    131935.19   -40721.807    2625.4761   -43347.283    25.214035 
    8300    210.18863    93.235383    131863.96    -40712.26    2558.1317   -43270.391    25.306935 
    8350    217.38761   -50.046352    131925.81   -40675.883     2645.748   -43321.631    25.296966 
    8400    217.74439    83.878781    131945.18   -40699.298    2650.0902   -43349.388    25.510457 
    8450    217.87477    82.800931    132007.13   -40673.196     2651.677   -43324.873    25.595641 
    8500    218.13379    -17.74763    132128.48   -40655.469    2654.8295   -43310.298    25.819143 
    8550    216.32148   -23.017705    132188.84   -40706.738    2632.7724   -43339.511    26.038814 
    8600    212.59725   -29.601578    132054.17   -40752.471    2587.4461   -43339.917    26.317632 
    8650    214.07928    95.110507    132054.83   -40734.718    2605.4835   -43340.202     26.47748 
    8700    215.41426    2.5018482    132198.23   -40777.887     2621.731   -43399.618    26.686779 
    8750    210.98828    78.237507     132206.2   -40838.457     2567.864   -43406.321    26.892567 
    8800    213.42946   -98.760386    132148.46   -40850.073    2597.5747   -43447.647    26.985545 
    8850    209.45424    144.94015    132268.96   -40883.673    2549.1937   -43432.866     27.04908 
    8900    212.06909   -78.799001    132184.51   -40824.448    2581.0181   -43405.466     27.15559 
    8950    213.99758   -211.67376    132157.81   -40796.268    2604.4892   -43400.757    27.157549 
    9000    214.58101    24.331272    132023.51   -40823.088    2611.5898   -43434.678    27.215518 
    9050    211.79207    6.2179753    131988.29   -40831.623    2577.6466    -43409.27     27.29434 
    9100    217.77149    97.882009    132031.48   -40772.133    2650.4201   -43422.553    27.284386 
    9150    214.64517    135.47299    132187.49   -40764.473    2612.3707   -43376.844    27.552838 
    9200    216.30924   -79.345225    132206.01   -40759.737    2632.6235    -43392.36    27.699493 
    9250    216.21096   -163.97199    132223.95   -40768.148    2631.4274   -43399.575    27.680297 
    9300    217.83128   -84.370642    132072.68   -40726.813    2651.1477   -43377.961    27.814474 
    9350    218.27038   -165.48528    131948.59   -40673.043    2656.4919   -43329.535    27.893043 
    9400     220.1391   -73.353078    131787.03    -40745.06    2679.2354   -43424.295    28.005009 
    9450    211.50176   -54.944581    131732.73   -40755.211    2574.1134   -43329.325    28.243007 
    9500    217.77883   -25.959988    131688.43   -40708.075    2650.5093   -43358.584    28.389538 
    9550    213.71951      15.8493    131599.99   -40712.161    2601.1048   -43313.266    28.571589 
    9600    211.29218    68.758616    131656.42   -40702.539    2571.5626   -43274.101    28.785218 
    9650     215.8933   -39.703312    131699.24    -40691.19    2627.5612   -43318.751    28.901367 
    9700    217.24574    6.6430646    131758.14   -40696.054    2644.0213   -43340.076    29.192187 
    9750    215.18945    24.359343    131824.53   -40690.949     2618.995   -43309.943    29.225443 
    9800    211.60825    77.008423    131874.15   -40753.995    2575.4095   -43329.405    29.282956 
    9850    214.18947   -55.519914    131852.69   -40725.685    2606.8246   -43332.509    29.350569 
    9900    217.09723   -67.641404    131851.23   -40711.962    2642.2138   -43354.176    29.402078 
    9950    212.46101 -0.055289733    131886.85   -40764.194    2585.7881   -43349.982    29.339537 
   10000    216.53172    106.10846     131975.5   -40680.409    2635.3312    -43315.74    29.507464 
   10050    213.21752    51.003082    131878.83   -40698.696    2594.9953   -43293.691    29.602031 
   10100    213.25721    154.21888    131895.47   -40669.816    2595.4783   -43265.295    29.867759 
   10150    215.49585   -64.101034     131957.6   -40647.823    2622.7241   -43270.547    30.040405 
   10200    217.39074    158.66177    131980.57   -40632.071     2645.786   -43277.857    30.112935 
   10250    217.90155   -54.347938    131939.94   -40611.172     2652.003   -43263.175    30.244743 
   10300    217.66616   -14.293477     131882.1   -40660.239    2649.1381   -43309.377    30.386749 
   10350    215.94869    62.322162    131701.32   -40701.906    2628.2353   -43330.141    30.392423 
   10400    212.83691     15.59762    131657.36   -40742.041    2590.3629   -43332.404    30.458968 
   10450    211.84556   -58.275214    131711.73   -40764.676    2578.2976   -43342.973    30.709057 
   10500     213.3703     58.62057    131706.38    -40760.21    2596.8547   -43357.065    30.864634 
   10550    212.33736    94.825307     131779.7   -40732.211    2584.2831   -43316.494    31.070879 
   10600    220.72801   -74.944784    131780.28   -40710.414    2686.4028   -43396.817    31.159215 
   10650    214.30018   -61.616634    131712.59    -40731.22    2608.1719   -43339.392    31.426605 
   10700    216.79666   -16.590395     131774.2   -40722.373    2638.5557   -43360.929    31.753851 
   10750    214.66459    103.17504     131831.9   -40729.311    2612.6071   -43341.918    31.985442 
   10800    216.26888    135.58485    132030.03   -40713.973    2632.1323   -43346.105    32.210327 
   10850     216.5878    40.032653    132250.65   -40675.997    2636.0138   -43312.011    32.395771 
   10900    214.99599   -125.82568    132189.29   -40653.322    2616.6404   -43269.962    32.475066 
   10950    214.73824    70.372911     132155.2   -40642.822    2613.5034   -43256.325    32.574789 
   11000    214.79867   -16.388383    132083.99   -40634.107    2614.2388   -43248.346    32.566717 
   11050    216.29955    30.371389    131917.43   -40685.476    2632.5055   -43317.981    32.644211 
   11100    218.46844    55.441152    132015.73    -40657.73    2658.9024   -43316.632    32.693351 
   11150    217.98751   -119.49324    132017.22   -40647.714    2653.0492   -43300.763    32.751163 
   11200    218.63519   -63.459421    131963.07   -40638.715    2660.9318   -43299.647    32.916838 
   11250    216.68877    42.773513    131810.96   -40681.943    2637.2426   -43319.185     33.09354 
   11300    213.92729    113.09869     131937.2   -40689.931    2603.6336   -43293.564    33.244621 
   11350    213.02222   -159.46874    131847.66    -40715.59    2592.6183   -43308.208    33.308471 
   11400    217.22616   -78.740799    131839.66    -40707.25     2643.783   -43351.033    33.383072 
   11450    215.64171    104.20523    131936.64   -40685.963    2624.4993   -43310.462    33.635004 
   11500      211.464   -46.657123    131997.57   -40739.167    2573.6538   -43312.821    33.841794 
   11550    216.91257   -43.395273       132097   -40682.215    2639.9664   -43322.182    34.057334 
   11600    214.06635    74.405417    132142.05   -40639.028    2605.3261   -43244.354    34.255214 
   11650    222.52317   -71.366233    132195.81   -40616.943     2708.251   -43325.194     34.33483 
   11700    219.29372   -135.22117    131953.51    -40623.73    2668.9465   -43292.677    34.300899 
   11750     214.0908   -79.174748    131877.98   -40655.812    2605.6236   -43261.436    34.414457 
   11800    214.32673   -87.586254    131631.81    -40658.91    2608.4951   -43267.405    34.559559 
   11850     215.6211    58.161461     131594.9   -40685.388    2624.2484   -43309.637    34.617826 
   11900    214.41959   -108.51098    131719.94   -40673.956    2609.6253   -43283.581    34.803758 
   11950     210.6176   -83.314404    131641.22   -40663.984    2563.3525   -43227.336    34.898724 
   12000      208.783     69.86271    131558.79   -40651.648    2541.0243   -43192.673    35.110273 
   12050    214.27291    9.3076736     131489.6   -40645.639      2607.84   -43253.479    35.292893 
   12100    215.23823    76.708252    131367.83   -40683.926    2619.5886   -43303.515     35.44772 
   12150    216.20992    55.253355     131564.4   -40672.234    2631.4147   -43303.649    35.659587 
   12200    212.51698    181.87548    131678.11   -40702.242    2586.4692   -43288.711    35.702756 
   12250    212.96871   -150.09883    131727.69   -40710.558    2591.9671   -43302.526    35.807616 
   12300    211.69038    14.620836    131758.41   -40697.669     2576.409   -43274.078    36.187381 
   12350     218.8093    -41.98794    131812.05    -40684.87    2663.0508   -43347.921    36.313626 
   12400    212.36006   -165.35691    131731.38    -40704.33    2584.5594   -43288.889    36.442643 
   12450    211.10731   -18.584742    131583.47   -40688.216    2569.3127   -43257.529    36.710335 
   12500    214.90698    12.355551    131622.51   -40680.072    2615.5571   -43295.629    36.693718 
   12550    217.98953    121.15318    131520.36   -40667.517    2653.0737    -43320.59    36.611626 
   12600    215.96282    66.916671    131775.48   -40624.161    2628.4073   -43252.568     36.74698 
   12650    215.96597   -20.608895     131702.8   -40621.283    2628.4457   -43249.728     36.83253 
   12700    218.34748    -61.06436    131672.72   -40613.527    2657.4302   -43270.957    36.739156 
   12750    217.27017    51.548422    131691.83   -40595.096    2644.3186   -43239.415    36.738426 
   12800    219.95871    70.421574    131669.21   -40583.154      2677.04   -43260.194    36.828491 
   12850    214.81635    79.075948    131695.55   -40610.141    2614.4541   -43224.595    37.089762 
   12900    214.64441    167.56991    131781.96   -40614.381    2612.3615   -43226.743    37.292798 
   12950    216.90851   -72.557579    131735.01   -40653.033     2639.917    -43292.95    37.519851 
   13000    218.15896    199.03194    131736.95   -40648.171    2655.1358   -43303.307    37.760509 
   13050    217.18623    41.695355    131922.42    -40649.16     2643.297   -43292.457    38.086207 
   13100    219.22179    21.649352    131974.28   -40626.015    2668.0712   -43294.086    38.266704 
   13150    215.84092   -33.689875    132016.35   -40654.492    2626.9238   -43281.416    38.408379 
   13200     217.0908    29.128783    132017.62   -40710.766    2642.1356   -43352.902    38.594478 
   13250    213.49596    102.04231    131931.56   -40700.609    2598.3841   -43298.993    38.747385 
   13300     215.5376   -1.5187429    131917.07   -40653.934    2623.2322   -43277.166    38.830793 
   13350    214.48597    98.848225    131954.95   -40707.239    2610.4331   -43317.672    38.881698 
   13400    219.27901    97.003698    131967.33   -40717.957    2668.7675   -43386.725    38.972877 
   13450    210.02683    -210.2676    131934.52   -40739.623    2556.1626   -43295.785    39.101775 
   13500    207.89997   -70.082005    131703.31   -40809.027    2530.2772   -43339.305    39.270269 
   13550    211.07641   -207.59696       131596   -40799.986    2568.9365   -43368.923     39.24143 
   13600    214.22156   -66.041325    131602.28   -40751.877    2607.2151   -43359.092    39.431061 
   13650    220.61676   -12.481275    131691.31   -40702.214    2685.0488   -43387.263    39.660375 
   13700     215.4717   -145.87835    131676.28   -40719.082    2622.4301   -43341.512    39.797044 
   13750       210.53    125.92826    131763.25   -40767.654    2562.2864   -43329.941    39.937783 
   13800    214.32431    56.241706    131844.25   -40720.901    2608.4656   -43329.366    39.994223 
   13850    211.38212   -100.03159    131768.14   -40767.113    2572.6573   -43339.771    40.245666 
   13900    210.19099    103.43263    131788.79   -40713.396    2558.1604   -43271.556    40.402471 
   13950    215.02171   -14.550787     131859.5   -40731.367    2616.9534    -43348.32    40.520723 
   14000    214.08367   -40.676131    131747.45   -40716.921    2605.5369   -43322.458    40.503508 
   14050    215.46678   -9.0536466    131685.94   -40703.088    2622.3702   -43325.458    40.604905 
   14100    214.37411   -21.920126    131656.04    -40676.35    2609.0718   -43285.422    40.792543 
   14150    211.28179    168.46309    131721.59   -40638.356    2571.4362   -43209.792    40.921951 
   14200    214.37007   -92.271914    131738.23   -40652.788    2609.0226   -43261.811    41.112325 
   14250    214.85686    74.612852    131808.19   -40647.969     2614.947   -43262.916    41.484825 
   14300    214.29279   -229.05607    131626.64   -40677.011     2608.082   -43285.093    41.609522 
   14350    213.55693   -152.59291    131476.88   -40671.829    2599.1261   -43270.955    41.688323 
   14400    215.01095    105.08308    131402.41   -40622.994    2616.8225   -43239.817    41.847839 
   14450    218.09712    84.162501    131425.93   -40624.118    2654.3831   -43278.501    41.902932 
   14500    215.75959    33.852483    131566.07   -40664.679    2625.9339   -43290.613    41.959531 
   14550    210.38195   -89.015273    131641.53   -40674.876    2560.4845   -43235.361    42.088611 
   14600    213.85766    76.780065    131574.69   -40674.513    2602.7861   -43277.299    42.284128 
   14650    214.48647   -75.256975    131575.66   -40697.098    2610.4392   -43307.537      42.4585 
   14700    209.41191    54.589422    131589.27   -40717.415    2548.6785   -43266.093    42.722563 
   14750     209.6817   -68.157054     131560.8   -40692.779    2551.9621   -43244.741    42.791763 
   14800    214.53406    171.98263    131688.58   -40659.721    2611.0184   -43270.739    42.799908 
   14850     215.0705     82.18768    131857.58   -40645.304    2617.5472   -43262.851    42.776693 
   14900    215.30965    91.265883    131842.66   -40664.866    2620.4579   -43285.324    42.975437 
   14950    216.62761    52.730667    131821.33   -40642.896    2636.4983   -43279.395    43.124431 
   15000    215.67669    38.694548    131786.48   -40656.443     2624.925   -43281.368    43.349227 
   15050    216.84952    29.255069    131893.51   -40631.787    2639.1991   -43270.986    43.727635 
   15100    213.01446    164.05309    131903.15   -40618.273    2592.5239   -43210.797    43.930141 
   15150    216.13788    -17.89471    131891.94   -40641.714     2630.538   -43272.252    44.035092 
   15200    216.46039    46.714213    131825.48   -40664.259     2634.463   -43298.723    44.157363 
   15250    213.47098   -65.123493    131646.94   -40656.043    2598.0801   -43254.123    44.246612 
   15300    215.08757   -34.617773    131653.88   -40654.091     2617.755   -43271.846    44.409687 
   15350    214.99767  -0.80463175    131540.35   -40600.446    2616.6608   -43217.107    44.503412 
   15400    216.73192    70.707159     131419.6   -40575.442    2637.7677    -43213.21    44.648179 
   15450    223.83202   -28.927386    131536.83   -40573.901    2724.1806   -43298.082     44.80478 
   15500    215.63655   -46.519002    131469.62   -40610.428    2624.4365   -43234.864    45.056643 
   15550    218.91463    101.72055     131492.4   -40568.155    2664.3328   -43232.487    45.320369 
   15600    218.23858    111.16995    131541.71   -40571.051    2656.1048   -43227.156    45.474876 
   15650    218.02463    99.098654    131547.29   -40598.408     2653.501   -43251.909    45.571267 
   15700    215.36047    43.235502    131500.86   -40628.491    2621.0763   -43249.567    45.779516 
   15750    213.65292   -147.11232    131400.44   -40630.735    2600.2944   -43231.029    46.040886 
   15800    213.73725    38.896929    131426.13    -40615.73    2601.3208   -43217.051    46.070911 
   15850    211.78391   -10.221454    131363.77   -40675.612    2577.5473    -43253.16    46.090024 
   15900    214.34508    2.5530642    131369.62   -40652.268    2608.7184   -43260.987    46.238137 
   15950    219.66613    50.637588    131352.84   -40601.296     2673.479   -43274.775    46.358963 
   16000    216.37777    21.332735    131508.14   -40585.546    2633.4575   -43219.003    46.551435 
   16050     217.4501   -62.831599    131560.72   -40649.591    2646.5085   -43296.099    46.670116 
   16100    221.12735     77.04702    131513.91   -40613.426     2691.263   -43304.689    46.845823 
   16150    219.33966    44.415355    131643.05   -40567.321    2669.5057   -43236.827    46.925445 
   16200     217.6144   -79.881855    131712.46   -40582.184    2648.5081   -43230.692    47.200671 
   16250    217.39142   -18.623676    131771.21     -40598.1    2645.7943   -43243.894    47.378515 
   16300    216.03683   -153.91682    131773.35   -40627.809    2629.3081   -43257.117    47.451264 
   16350    211.52519    31.371017    131718.01   -40668.006    2574.3985   -43242.405    47.697026 
   16400    213.37714   -162.12267    131637.71   -40707.479    2596.9379   -43304.417    47.889966 
   16450    214.53378    149.50962    131689.35   -40659.607     2611.015   -43270.622    48.059953 
   16500    208.17131    24.198471     131840.3   -40690.479    2533.5797   -43224.058    48.315074 
   16550    215.37857    79.326686    131871.61   -40656.093    2621.2966    -43277.39    48.526905 
   16600    216.15969   -170.46938    131971.64   -40624.722    2630.8034   -43255.525    48.726062 
   16650    214.93363    61.684539    131955.35   -40629.111    2615.8815   -43244.993    48.954305 
   16700    210.88919    34.635295    131930.02   -40625.449     2566.658   -43192.107    49.050753 
   16750    214.12594    114.80358    131906.98    -40622.05    2606.0513   -43228.101    49.303146 
   16800    213.72146   -43.834019    131983.53   -40607.749    2601.1286   -43208.877    49.462398 
   16850    218.93903    34.521093    131918.03   -40658.282    2664.6298   -43322.912    49.592175 
   16900    212.31889   -159.20309    131876.72   -40683.042    2584.0583   -43267.101    49.733905 
   16950     214.4275   -36.443169    131790.78   -40676.861    2609.7215   -43286.582    49.892459 
   17000    218.09211   -11.717278    131936.06   -40666.806    2654.3222   -43321.128    49.894189 
   17050     218.4653    32.903647    131876.96   -40644.536    2658.8641     -43303.4    50.150251 
   17100     212.6764    79.427372    131843.08   -40665.194    2588.4095   -43253.604       50.235 
   17150     209.9023    8.6351663    131901.75   -40692.585    2554.6469   -43247.232    50.382639 
   17200    216.34482   -48.849691    131857.63   -40644.257    2633.0566   -43277.314    50.444392 
   17250    215.16784   -26.076356    131763.59    -40666.33    2618.7319   -43285.061    50.583659 
   17300    213.27959   -114.76858    131813.07   -40678.568    2595.7506   -43274.319    50.815713 
   17350    214.87096   -7.0591955    131742.26    -40616.51    2615.1187   -43231.628    50.968847 
   17400    217.11574    63.625255    131827.56   -40635.459    2642.4391   -43277.898     50.88549 
   17450    215.24058    133.98958    131920.36   -40631.971    2619.6172   -43251.589    50.934103 
   17500    212.99897   -97.919551    131886.62   -40637.046    2592.3354   -43229.382    51.022203 
   17550    213.60499    69.287634    131961.72   -40634.237    2599.7111   -43233.948    50.946811 
   17600     214.3879    116.76538    131947.92   -40658.266    2609.2396   -43267.506    51.145346 
   17650    215.44843   -56.740795    131919.05   -40609.212    2622.1468   -43231.359    51.235678 
   17700    219.52338    35.255616    131956.71   -40619.063    2671.7416   -43290.805    51.471197 
   17750    216.52192     169.1655    132065.19   -40626.129     2635.212   -43261.341      51.7034 
   17800     213.6259    -54.15387    132042.26    -40678.92    2599.9655   -43278.885    51.685855 
   17850     214.1729    56.394218    131841.86   -40618.641    2606.6228   -43225.264     51.75606 
   17900    212.96898    7.5604727    131866.53   -40632.004    2591.9704   -43223.974    52.176753 
   17950    216.63024    68.684823    131873.93   -40588.983    2636.5303   -43225.513    52.217112 
   18000    219.71361   -11.536684    131934.64   -40596.262    2674.0569   -43270.319    52.222342 
   18050    215.88722     6.318943    131972.85   -40621.315    2627.4872   -43248.802    52.395321 
   18100     218.5063   -77.669919    131853.23   -40589.676    2659.3631   -43249.039    52.567788 
   18150    211.56205    40.343186    131849.93    -40575.95    2574.8471   -43150.797    52.704842 
   18200     216.7061    97.482687    131752.49   -40543.324    2637.4535   -43180.777    52.851849 
   18250    214.38598   -13.711605    131812.14   -40557.309    2609.2162   -43166.525    53.049296 
   18300    215.56592   -34.626047    131758.84   -40570.958    2623.5768   -43194.534    53.150365 
   18350    219.13416     85.17261    131912.82   -40539.427    2667.0046   -43206.431    53.167665 
   18400     216.9492   -46.656512    132085.69   -40536.985    2640.4122   -43177.398    53.262844 
   18450    217.80665   -33.984003    132141.63   -40546.032    2650.8479    -43196.88    53.182672 
   18500    216.69406   -56.033135    132114.03   -40563.757     2637.307   -43201.064    53.405053 
   18550    218.77929    1.9413747    132090.21   -40533.607    2662.6856   -43196.293    53.804173 
   18600    216.44924   -55.670732    132045.48   -40566.486    2634.3274   -43200.813     53.99595 
   18650    215.93711    86.260245    131996.97   -40519.101    2628.0944   -43147.195    54.210746 
   18700    214.71069    10.425329     131789.1   -40557.196    2613.1681   -43170.364    54.383232 
   18750    218.11718   -40.406494    131891.68   -40565.075    2654.6273   -43219.702     54.50986 
   18800    217.06613    46.010748    131936.93   -40580.152    2641.8354   -43221.987    54.647843 
   18850    220.10469    33.959752    131971.54   -40563.877    2678.8166   -43242.694    54.679117 
   18900    217.79622    4.2925038     132030.9    -40542.68     2650.721   -43193.401    55.019175 
   18950    217.29065    123.16433    132018.01   -40560.633     2644.568   -43205.201     55.02514 
   19000    216.40191    106.06388    131970.88   -40615.731    2633.7513   -43249.482    55.232742 
   19050    216.51739   -18.879824    131987.48   -40651.679    2635.1568   -43286.836    55.450399 
   19100    214.10219     128.3402    132105.69   -40592.621    2605.7622   -43198.383    55.525762 
   19150    214.24346   -97.150084    132112.83   -40601.586    2607.4816   -43209.067    55.678793 
   19200    216.27174   -112.89447     132040.9   -40570.291    2632.1671   -43202.458    55.943579 
   19250      217.109   -15.539218    132018.92   -40568.944    2642.3571   -43211.301     55.99965 
   19300    214.94417    189.50327    131972.22   -40571.936    2616.0098   -43187.946    56.082437 
   19350    215.79874    22.460364    132014.52   -40582.951    2626.4104   -43209.362    56.048663 
   19400    217.60968   -68.671281    131982.77   -40589.436    2648.4507   -43237.887    56.035642 
   19450    216.85828    10.719369    131928.78   -40579.506    2639.3057   -43218.812     56.20283 
   19500    212.25762   -56.089312    131918.58   -40661.584    2583.3126   -43244.897    56.430309 
   19550    215.15294    19.452806    131896.85   -40649.564    2618.5506   -43268.115    56.703279 
   19600     217.2183   -34.002273    131831.49    -40615.81    2643.6873   -43259.498    56.861828 
   19650     213.0408   -58.878362    131922.52   -40611.103    2592.8444   -43203.948    56.969627 
   19700    219.52265   -93.761407    132004.38   -40628.864    2671.7328   -43300.597     57.16515 
   19750    212.18599     27.91738    131959.22   -40727.152    2582.4409   -43309.593     57.19739 
   19800    213.51613   -42.306001    131900.17   -40675.129    2598.6296   -43273.759    57.249481 
   19850     215.6364   -171.22782    131758.71   -40699.358    2624.4346   -43323.793    57.255971 
   19900    213.37621   -15.013188     131630.1   -40714.949    2596.9267   -43311.875    57.312249 
   19950     214.3886   -141.90383    131632.25   -40690.395    2609.2481   -43299.643    57.388478 
   20000    209.60689   -4.4902637    131660.37   -40686.232    2551.0516   -43237.284    57.524837 
   20050    216.78354   -27.559921     131505.8   -40657.967     2638.396   -43296.363    57.629436 
   20100    212.53116    4.6606507    131466.94    -40676.19    2586.6418   -43262.832    57.840433 
   20150    211.49753   -57.788979    131499.68   -40708.256    2574.0619   -43282.318     58.03999 
   20200    216.64589   -61.866926    131291.25   -40712.652    2636.7207   -43349.373    58.105329 
   20250    213.18889   -114.97268    131282.89   -40677.349    2594.6468   -43271.996     58.25045 
   20300    218.41341    220.48539     131280.2   -40606.532    2658.2326   -43264.765    58.444552 
   20350    215.66454    89.733753    131366.34   -40589.844    2624.7771   -43214.621    58.556728 
   20400    216.79692   -143.68648    131410.05   -40622.311    2638.5589   -43260.869      58.6808 
   20450     214.1755   -13.349281    131309.63   -40627.103    2606.6545   -43233.757    58.724494 
   20500    214.32699    97.476717    131228.95   -40594.018    2608.4983   -43202.517    58.903188 
   20550    209.43124     2.801447    131327.61   -40600.098    2548.9138   -43149.011    59.111099 
   20600    214.72372   -65.081772    131302.54   -40613.376    2613.3267   -43226.703    59.177236 
   20650    214.19463   -12.134675    131218.31   -40585.132    2606.8873   -43192.019    59.416133 
   20700    217.33906   -105.01344    131294.46   -40594.987    2645.1571   -43240.144    59.812966 
   20750    213.17497   -72.273455    131275.91   -40662.733    2594.4774    -43257.21    59.963664 
   20800    215.40006   -138.94955    131137.09    -40658.82    2621.5581   -43280.378    60.116747 
   20850    212.29605    7.8117881     131158.6   -40658.313    2583.7804   -43242.093     60.35559 
   20900    214.01717   -13.059988    131089.24   -40698.226    2604.7275   -43302.954    60.571692 
   20950    207.94307    18.241728    131190.59   -40700.581    2530.8018   -43231.383    60.886008 
   21000    213.97227    24.111953    131237.31   -40677.845     2604.181   -43282.026    60.875925 
   21050    214.36319   -74.503733     131288.7   -40685.666    2608.9388   -43294.605    61.175949 
   21100    211.00493    58.898666     131258.4   -40663.996    2568.0666   -43232.063    61.428402 
   21150    212.72281    96.884249    131373.72   -40653.439    2588.9743   -43242.413    61.651199 
   21200    213.81633   -62.795771    131320.27   -40651.495    2602.2832   -43253.778    61.779174 
   21250    211.44028    119.28458    131424.48   -40662.999    2573.3651   -43236.364    61.965575 
   21300    205.51076    135.94173    131634.86   -40714.943     2501.199   -43216.142    62.031316 
   21350     212.8187   -21.423578    131647.89   -40729.056    2590.1414   -43319.197    62.114522 
   21400    210.16133   -1.9564707     131584.2   -40720.273    2557.7995   -43278.072    62.090716 
   21450     212.4463    18.199471    131609.63   -40657.454     2585.609   -43243.063    62.354788 
   21500    215.41443   -12.903935    131835.22   -40607.019    2621.7331   -43228.752    62.535314 
   21550    215.73153   -23.916758     131778.7   -40601.077    2625.5924    -43226.67    62.479948 
   21600    215.84216    69.168288    131825.15   -40569.302    2626.9389   -43196.241    62.723457 
   21650    215.59245    61.692999    131889.08   -40570.688    2623.8997   -43194.588    62.892341 
   21700    213.29121   -13.305469    131943.95   -40548.717    2595.8922   -43144.609    63.294215 
   21750    214.61972   -16.305545     132037.3   -40560.921    2612.0609   -43172.982    63.593393 
   21800    217.27836    12.638955    132006.27   -40591.367    2644.4183   -43235.785    63.635229 
   21850    214.73767   -128.20476    131964.13   -40618.027    2613.4964   -43231.523      63.7137 
   21900    214.54868    72.982103    131854.92   -40619.688    2611.1964   -43230.884    63.558907 
   21950    217.69902    55.571509    131951.73    -40575.69     2649.538   -43225.228    63.414731 
   22000    218.25052  -0.70484461     132108.8   -40580.331    2656.2502   -43236.581     63.59713 
   22050    213.62488   -103.55937    132039.04   -40621.294    2599.9531   -43221.247    63.647355 
   22100    215.08428    170.33247    132132.23   -40615.459    2617.7149   -43233.174    63.814733 
   22150    215.70569   -158.01046    132119.16   -40650.673    2625.2779   -43275.951    64.041257 
   22200    212.86645    47.551762     132143.9   -40639.958    2590.7225    -43230.68     64.33388 
   22250    217.91206    122.46863    132169.65   -40636.316    2652.1308   -43288.447    64.577035 
   22300    215.21432    -150.4635    132142.68   -40649.918    2619.2976   -43269.215    64.827608 
   22350    215.40787    105.46258    131979.06    -40683.28    2621.6532   -43304.933    64.907994 
   22400    215.35853   -29.650193    131989.94   -40704.503    2621.0528   -43325.556     65.04228 
   22450    213.35997   -62.347006    131903.55   -40720.883     2596.729   -43317.612    64.956637 
   22500    209.12602   -69.219829    131837.63   -40727.655    2545.1991   -43272.854    65.180696 
   22550    207.97793   -11.178441    131855.65   -40761.142    2531.2261   -43292.368    65.268946 
   22600    217.40291   -110.55028    131798.21    -40704.93    2645.9341   -43350.864     65.34968 
   22650    214.93192    88.260148    131875.15   -40715.567    2615.8606   -43331.428    65.519798 
   22700    214.57027   -74.457658    131897.69   -40716.357    2611.4592   -43327.816    65.478742 
   22750    212.89999   -17.322954    131892.92   -40698.548    2591.1307   -43289.679    65.471907 
   22800    215.37709    161.51411     132000.6   -40687.982    2621.2786   -43309.261    65.897686 
   22850    209.84708    -1.159195    132094.05   -40740.599    2553.9748   -43294.574    66.071826 
   22900    214.69021     124.2044    132107.11   -40731.699    2612.9188   -43344.618    66.067963 
   22950    211.27822   -189.85211    132000.04     -40743.8    2571.3927   -43315.193    66.081993 
   23000    212.30125   -13.464721     131888.5   -40810.406    2583.8436    -43394.25    66.301808 
   23050    210.41926   -25.771515     131970.5   -40818.217    2560.9387   -43379.156    66.548378 
   23100    212.92567    111.57784    132017.84   -40845.277    2591.4433    -43436.72    66.709815 
   23150    210.30583   -96.499121    132098.05   -40803.756    2559.5581   -43363.314    66.847317 
   23200    210.20795    127.46386    132092.42   -40810.658    2558.3668   -43369.025     66.97821 
   23250    210.62108    73.305638    132171.41   -40811.409    2563.3949   -43374.804    67.158527 
   23300    213.10089    9.2505667    132252.41   -40766.229    2593.5758   -43359.805    67.108861 
   23350     211.2595    12.542608    132281.61   -40760.506    2571.1649   -43331.671    67.028134 
   23400    206.74253   -30.452928    132300.26   -40798.935    2516.1905   -43315.126    67.227456 
   23450    209.79368    108.29401    132186.37   -40764.866    2553.3249   -43318.191    67.212598 
   23500     210.2245    39.233773    132262.57   -40768.378    2558.5683   -43326.946    67.426204 
   23550    211.57678    -24.45883    132318.15   -40722.413    2575.0264   -43297.439    67.604412 
   23600    209.81127   -105.05696    132217.28   -40732.893    2553.5389   -43286.432    67.953239 
   23650    210.25277    102.03254    132185.58   -40728.846    2558.9124   -43287.759     68.25055 
   23700    210.54378   -84.490934     132058.4   -40753.946    2562.4541     -43316.4    68.078319 
   23750    212.83728    33.014052    132025.99   -40787.191    2590.3675   -43377.558    68.299303 
   23800    215.36027   -126.05514    131947.51    -40741.37    2621.0739   -43362.444    68.509696 
   23850    209.48822    118.37557    131930.77   -40750.699    2549.6072   -43300.306    68.546327 
   23900    213.92969    167.69112    132055.62   -40749.763    2603.6628   -43353.426    68.696965 
   23950    214.06998     47.05574    132185.05   -40753.353    2605.3702   -43358.724     68.92535 
   24000    213.33048    1.8090102    132178.87    -40773.53    2596.3701     -43369.9    69.006771 
   24050    212.17067   -22.760954    132322.85   -40725.398    2582.2544   -43307.653    69.316146 
   24100    213.30411     13.97253     132281.3   -40693.048    2596.0492   -43289.097    69.587834 
   24150     218.3095   -0.1858647     132222.3   -40692.393     2656.968   -43349.361    69.591618 
   24200    213.05793   -98.746966    132089.74   -40721.961     2593.053   -43315.014    69.933942 
   24250    213.43006    161.49231    132096.61   -40749.331     2597.582   -43346.913     69.99918 
   24300    212.42279    5.6629826    132083.38   -40719.976    2585.3229   -43305.299    70.096538 
   24350    213.93624    60.591962    132123.15   -40750.561    2603.7425   -43354.303      70.2261 
   24400    211.40215   -14.353912    132094.62   -40747.946     2572.901   -43320.847    70.130959 
   24450    215.78159     14.42962    132113.02   -40733.148    2626.2016   -43359.349    70.102315 
   24500    215.69063    149.01908    132136.58    -40720.84    2625.0946   -43345.934    70.242638 
   24550    216.37334   -28.404256     132278.6    -40753.01    2633.4037   -43386.414    70.422876 
   24600    212.86262     32.32713       132261   -40777.499    2590.6759   -43368.175    70.292836 
   24650    214.94907  -0.71342695    132341.27   -40794.055    2616.0694   -43410.124    70.169069 
   24700    210.89566   -9.9185588    132391.66   -40799.793    2566.7367    -43366.53    70.592707 
   24750    213.63694    71.108189    132406.03   -40802.571    2600.0999   -43402.671    70.698777 
   24800    210.97669    90.959325    132479.19   -40771.996    2567.7229   -43339.718     70.64701 
   24850    216.35672   -73.821238    132548.32   -40739.475    2633.2014   -43372.676    70.889533 
   24900    215.85971   -16.903207    132442.64   -40709.302    2627.1524   -43336.454    70.841504 
   24950    213.22416     122.5994    132420.67   -40771.735    2595.0761   -43366.811    71.058779 
   25000    212.32914   -26.280424    132420.37     -40801.9    2584.1832   -43386.083    71.106442 
   25050    213.53068   -26.333443     132341.6   -40754.937    2598.8066   -43353.743    71.377086 
   25100    217.46166   -147.49645    132213.72   -40722.791    2646.6492    -43369.44     71.43897 
   25150    213.51637   -18.616672    132069.27   -40718.267    2598.6325   -43316.899    71.605279 
   25200    214.33436     86.54526    132048.47   -40703.694    2608.5879   -43312.282    71.937347 
   25250    219.51246    108.75946     132111.8   -40696.311    2671.6088    -43367.92    71.999118 
   25300    215.41079    31.147337    132202.65   -40645.911    2621.6888     -43267.6    72.166552 
   25350    213.13627    240.24223    132193.98   -40659.517    2594.0064   -43253.523    72.308337 
   25400    219.28347   -129.18448    132173.84   -40686.639    2668.8218   -43355.461    72.608562 
   25450    216.14853   -81.044465    131890.74   -40657.677    2630.6676   -43288.345    72.751359 
   25500     215.7387    12.905045    131761.03   -40716.773    2625.6797   -43342.452    72.705481 
   25550    216.12809    90.327806    131782.97   -40683.447    2630.4188   -43313.866    72.789768 
   25600     218.8746    105.53332       132016   -40646.198    2663.8456   -43310.044    72.926936 
   25650    217.85156    20.351408    132173.64   -40685.327    2651.3946   -43336.721    73.030038 
   25700    220.83889    28.039684    132180.69   -40634.125    2687.7522   -43321.877    73.009046 
   25750    217.02869   -187.12834    132163.63    -40646.38    2641.3797    -43287.76    73.120447 
   25800    219.33914    219.92071    132121.21   -40610.377    2669.4994   -43279.877      73.1871 
   25850     219.0848    -257.3834    132122.43   -40636.535    2666.4038   -43302.939    73.506743 
   25900    217.44414    39.381127    132064.03   -40684.164     2646.436     -43330.6    73.375838 
   25950      214.274    42.126874    132082.88   -40686.542    2607.8533   -43294.395    73.751434 
   26000    217.37566   -14.644134    132067.55   -40706.792    2645.6025   -43352.394    73.657707 
   26050    214.08536   -7.9864668    132034.02   -40711.817    2605.5575   -43317.374    73.997099 
   26100    213.69034    53.899793    131983.22   -40687.116    2600.7498   -43287.865    74.096501 
   26150    213.12685    16.030957     132102.7   -40698.127    2593.8917   -43292.018    74.215099 
   26200    215.94934   -36.046277    132026.54   -40695.623    2628.2433   -43323.866    74.331274 
   26250    214.04778   -35.737311    132160.96   -40692.958    2605.1001   -43298.058    74.614402 
   26300     210.8712    106.44266    132140.74   -40645.483     2566.439   -43211.922    74.847441 
   26350    209.71532    90.450287    132309.74   -40658.245    2552.3712   -43210.616    75.341175 
   26400    211.38054   -100.68131    132261.85   -40672.274     2572.638   -43244.912    75.692874 
   26450    216.83941    33.153588    132208.66   -40667.775    2639.0761   -43306.851    75.773659 
   26500    209.01388   -96.769199    132187.13   -40678.408    2543.8343   -43222.242     75.77721 
   26550    213.93931    168.46495    132238.92   -40656.263    2603.7799   -43260.043    75.969617 
   26600    217.68701    22.031505     132350.6    -40676.14    2649.3919   -43325.532    76.301363 
   26650    212.81935   -20.215551    132300.01   -40712.711    2590.1493    -43302.86     76.54918 
   26700    212.51539    44.359283    132405.19   -40681.002    2586.4499   -43267.452    76.574073 
   26750    216.28166   -135.83932    132467.71   -40726.029    2632.2878   -43358.316    76.672792 
   26800    216.22541   -168.20905     132320.6   -40683.957    2631.6033    -43315.56     76.81857 
   26850    219.94803   -125.83147    132260.06   -40612.001    2676.9099   -43288.911    76.848928 
   26900    216.09509   -66.321456    132081.21   -40611.563    2630.0172    -43241.58      76.8526 
   26950    220.36499    18.293328    132154.16   -40634.069    2681.9845   -43316.054    76.949144 
   27000    219.71437    19.509939    132063.09   -40647.693    2674.0662   -43321.759     77.01458 
   27050    216.12952   -84.283268    132041.43   -40696.747    2630.4362   -43327.183    77.138484 
   27100    219.72421    9.0719589    132126.25   -40640.445    2674.1859   -43314.631    77.461765 
   27150    214.19816   -5.9771506    132156.88   -40738.802    2606.9303   -43345.732    77.826115 
   27200    215.63873    61.559429    132185.61   -40740.165    2624.4629   -43364.628    77.999384 
   27250    213.89906     82.41967    132152.51    -40689.36    2603.2901    -43292.65     78.10566 
   27300    218.06791    118.08685    132202.45   -40633.336    2654.0276   -43287.364    78.360019 
   27350     218.3298   -21.398575    132241.24   -40678.076    2657.2151   -43335.291    78.420125 
   27400    214.52573    229.72274    132321.67   -40691.975     2610.917   -43302.892    78.519931 
   27450     215.9865   -85.150512    132373.51   -40704.879    2628.6956   -43333.575     78.71408 
   27500    216.11142   -119.25483    132333.21   -40682.497    2630.2159   -43312.713    78.681587 
   27550     212.0666   -128.16512    132219.36   -40680.364    2580.9878   -43261.352    78.589821 
   27600    212.43537    52.200362     132333.8   -40706.284    2585.4759    -43291.76    78.935918 
   27650    216.75444   -55.578373    132234.95   -40740.956    2638.0419   -43378.997    79.088342 
   27700    218.12761   -62.273407    132270.59   -40676.386    2654.7542    -43331.14    79.139653 
   27750    217.15743    123.29214    132380.04   -40695.958    2642.9465   -43338.904    79.214103 
   27800    213.13221   -59.225366    132305.65   -40695.792     2593.957    -43289.75    79.108617 
   27850    215.92922    72.568859    132359.16   -40735.116    2627.9984   -43363.114    78.966196 
   27900     209.8069   -80.594162    132364.68   -40787.543    2553.4858   -43341.028    79.003505 
   27950    210.38922  -0.36099359    132362.15   -40771.598     2560.573   -43332.171    79.240735 
   28000    213.86327   -120.35826     132344.1    -40740.96    2602.8545   -43343.815    79.439166 
   28050    218.63309    34.023317    132205.43   -40713.229    2660.9062   -43374.135    79.616391 
   28100    210.84025   -15.195239    132231.36   -40768.678    2566.0624   -43334.741    79.767529 
   28150    216.70194    189.20066    132324.12   -40709.803    2637.4029   -43347.206    79.766591 
   28200    217.77795   -2.3207157    132411.08   -40639.335    2650.4986   -43289.833    79.839458 
   28250    217.59651   -89.033637    132359.61   -40638.548    2648.2905   -43286.839    80.188887 
   28300    218.24056   -42.930832    132205.64   -40655.842    2656.1289   -43311.971    80.005416 
   28350    214.20195     106.6681    132125.66   -40652.218    2606.9764   -43259.195    79.984087 
   28400    215.05417   -9.4664748    131980.83    -40679.41    2617.3485   -43296.759    80.038414 
   28450    217.47661   -6.1471819    131947.42   -40633.776    2646.8311   -43280.607    80.027633 
   28500    216.91595    89.982853     132047.6   -40676.442    2640.0075   -43316.449    80.255973 
   28550    212.65685    66.314377    132157.92   -40688.918    2588.1716    -43277.09    80.504136 
   28600    212.16223   -84.975662    132115.54   -40718.374    2582.1517   -43300.526    80.562154 
   28650    213.13426     -51.2962    132052.08   -40654.173     2593.982   -43248.155    80.616822 
   28700    217.57833   -6.1633813    132003.09    -40653.12    2648.0692   -43301.189    80.500188 
   28750    216.49945   -10.751557    132068.45   -40683.213    2634.9385   -43318.152    80.530563 
   28800    217.08011    22.964118       132239   -40605.674    2642.0055    -43247.68    80.524809 
   28850    219.98649    40.407474    132247.46    -40623.49     2677.378   -43300.868     80.42922 
   28900    218.42289    191.81383    132243.84   -40656.281     2658.348   -43314.629    80.750585 
   28950    215.50137   -110.84763    132197.33   -40636.589    2622.7912    -43259.38    80.904713 
   29000    220.02423    59.159815    132244.56   -40644.858    2677.8373   -43322.695    80.841036 
   29050    216.24661   -70.779552     132355.4   -40688.204    2631.8612   -43320.065    80.872281 
   29100    218.67627   -85.799869    132402.22    -40689.41    2661.4318   -43350.842    80.908845 
   29150    217.42436    162.91172    132369.76   -40661.335    2646.1952    -43307.53    81.010556 
   29200    219.64526   -14.188271    132429.33   -40685.028     2673.225   -43358.253    81.112931 
   29250    215.00363   -7.7510118     132429.4   -40702.442    2616.7334   -43319.175    81.371215 
   29300    218.76135    17.617756    132339.93   -40679.684    2662.4672   -43342.151    81.389876 
   29350    216.74541     4.133331    132339.17   -40698.774     2637.932   -43336.706     81.57552 
   29400    213.24762   -122.42485    132295.61   -40720.158    2595.3616   -43315.519    81.525715 
   29450    216.67661    10.142737    132379.33   -40694.791    2637.0946   -43331.885    81.832152 
   29500    216.05158    102.33282    132552.89   -40684.371    2629.4876   -43313.859    82.000414 
   29550    218.67144    143.70613    132652.11   -40698.476     2661.373   -43359.849     82.15585 
   29600    213.75145    -48.29435    132643.46   -40748.609    2601.4935   -43350.103    82.257206 
   29650    213.91264   -52.871029    132585.18   -40736.774    2603.4553   -43340.229    82.203931 
   29700    218.25569    82.951216    132535.44   -40679.276    2656.3131   -43335.589    82.197484 
   29750    218.04946    45.833142    132596.49   -40668.061    2653.8031   -43321.865    82.327866 
   29800    218.26953   -17.985143    132570.75   -40694.719    2656.4815   -43351.201    82.209134 
   29850    214.59779   -10.511289       132572   -40711.186     2611.794    -43322.98    82.262566 
   29900    215.43045   -148.00025    132536.21    -40735.06     2621.928   -43356.988    82.414333 
   29950    215.30977    54.531337    132436.15   -40779.367    2620.4593   -43399.826    82.375466 
   30000    214.51802   -47.780448    132229.03   -40781.363    2610.8232   -43392.186    82.522409 
   30050    213.23569   -101.98299     132207.1   -40784.324    2595.2164   -43379.541    82.692826 
   30100    212.46989    98.554682    132295.67   -40761.854    2585.8961   -43347.751    82.731664 
   30150     212.8673   -112.72786    132287.66   -40748.183    2590.7329   -43338.916    82.890398 
   30200    212.58428    90.395013    132191.24   -40746.649    2587.2883   -43333.937     83.17567 
   30250    216.44664   -174.88573    132146.55   -40715.108    2634.2957   -43349.404    83.145022 
   30300    215.91503   -114.81358    132008.04   -40693.454    2627.8257   -43321.279    83.153827 
   30350    213.37742    163.23526    132100.18   -40707.614    2596.9414   -43304.555    83.364146 
   30400    212.27458    97.895333       132195   -40687.866    2583.5191   -43271.385    83.578207 
   30450    214.53095    73.579116     132291.6   -40730.545    2610.9806   -43341.526    83.803268 
   30500    210.79969   -142.36842     132311.9   -40763.628    2565.5687   -43329.197    83.850483 
   30550    213.52575   -60.953155    132223.44   -40736.596    2598.7466   -43335.342    84.013672 
   30600    215.64686    33.266748    132185.75   -40743.552    2624.5619   -43368.114    84.160643 
   30650     212.3922   -102.86276    132111.59   -40723.959    2584.9506   -43308.909     84.22969 
   30700    215.31571    42.063639    131950.78   -40689.248    2620.5316    -43309.78    84.066273 
   30750    215.13601   -97.428834    131903.44   -40680.176    2618.3445    -43298.52    84.279255 
   30800    215.88199    -23.71225    131868.41   -40678.126    2627.4236    -43305.55    84.242483 
   30850    218.45223    103.21049    131986.85   -40641.708    2658.7051   -43300.413    84.447666 
   30900    217.03153    141.34427    131986.84    -40660.57    2641.4142   -43301.984    84.474735 
   30950    217.67835   -43.766656    131958.71   -40688.003    2649.2864   -43337.289    84.506173 
   31000    213.52178    7.0495012    132045.84   -40661.046    2598.6983   -43259.745    84.767623 
   31050    214.51159   -174.48362    131946.25   -40665.823    2610.7449   -43276.568    84.835288 
   31100    213.32312   -81.694237    131753.17   -40680.459    2596.2805    -43276.74    85.116234 
   31150    213.23871   -56.639592    131702.38   -40657.898    2595.2531   -43253.151    85.093525 
   31200    212.58936    47.244254    131824.04   -40690.773    2587.3501   -43278.123    85.159044 
   31250    213.92575    -165.6508    131831.68   -40665.763    2603.6148   -43269.378    85.215309 
   31300     216.4379    151.47697    131786.35   -40603.458    2634.1893   -43237.647     85.40419 
   31350    215.70099   -197.84049    131597.77   -40610.639    2625.2207    -43235.86    85.624398 
   31400    213.77001   -105.55252    131441.29   -40652.261    2601.7194   -43253.981    85.580672 
   31450    213.63949   -106.26361    131340.13   -40657.713    2600.1309   -43257.844    85.864517 
   31500    215.06625     1.744517    131313.69   -40623.127    2617.4955   -43240.623    85.752587 
   31550    215.60715   -7.3084941    131256.74   -40611.874    2624.0786   -43235.953    85.838553 
   31600    217.14221    4.2811215       131395    -40617.94    2642.7613   -43260.701    86.060962 
   31650    220.65208    65.863485    131538.87   -40612.771    2685.4787    -43298.25    86.135843 
   31700    210.53962    40.844472     131618.9   -40625.966    2562.4035   -43188.369     86.32648 
   31750    221.55548    3.4799245    131686.31   -40639.847    2696.4736   -43336.321    86.303436 
   31800    213.81607    -81.58665    131752.35   -40720.218      2602.28   -43322.499    86.513276 
   31850    213.10072    83.878569     131707.5   -40656.117    2593.5738   -43249.691    86.898557 
   31900    218.74378    81.982066    131671.07    -40654.53    2662.2535   -43316.784     87.38396 
   31950    216.10818    64.530555    131707.98   -40661.983    2630.1765   -43292.159    87.568775 
   32000    213.03716   -107.53982    131715.83   -40710.619    2592.8002   -43303.419    87.549261 
   32050    213.73149    30.087714    131700.23   -40703.439    2601.2506    -43304.69    87.531288 
   32100    212.85072   -54.009013    131678.11   -40678.335     2590.531   -43268.866    87.517361 
   32150    215.59728    98.506863    131877.67   -40659.272    2623.9585   -43283.231    87.634741 
   32200     216.9074      100.353    132034.24   -40668.542    2639.9035   -43308.445    87.804961 
   32250    216.31898   -190.97386    132004.18   -40725.269     2632.742   -43358.011    87.986833 
   32300    208.65263   -51.118415    131853.64   -40687.304    2539.4376   -43226.742    88.169494 
   32350    211.01325   -73.791233    131770.85   -40637.175    2568.1679   -43205.343     88.51194 
   32400    214.25346    158.55035    131731.17   -40592.167    2607.6034    -43199.77    88.617976 
   32450    215.11251   -122.65392     131775.7   -40591.488    2618.0586   -43209.546    88.828661 
   32500    215.36095   -8.7119566     131838.9   -40623.629    2621.0822   -43244.711    89.157888 
   32550    215.07538    208.86944    132053.47   -40660.466    2617.6067   -43278.073    89.446138 
   32600    215.58979   -36.325078    132068.05   -40613.103    2623.8673    -43236.97     89.61061 
   32650    215.07565    11.289479    132120.45   -40640.119    2617.6099   -43257.729    89.806397 
   32700    216.30793   -242.62492    131963.04   -40606.801    2632.6076   -43239.408     89.86356 
   32750    218.00951    20.067344    131912.51   -40610.003    2653.3168    -43263.32    89.895975 
   32800    210.03028     61.10762    132149.64   -40644.815    2556.2044   -43201.019    90.107021 
   32850    215.17555    140.07161     132144.5   -40676.782    2618.8257   -43295.607    90.069695 
   32900    214.32505   -38.805769    132217.71   -40672.144    2608.4747   -43280.618    90.335226 
   32950    215.34873   -61.364048    132160.21   -40671.022    2620.9334   -43291.956     90.60185 
   33000    214.52853     102.5603    132332.33   -40651.393    2610.9511   -43262.345    90.871344 
   33050    216.62859   -26.186365    132374.06   -40669.613    2636.5102   -43306.123     91.51602 
   33100    220.42299   -148.02586    132346.22   -40631.087    2682.6905   -43313.777    91.539782 
   33150    216.02679    11.391505    132205.32   -40662.621    2629.1858   -43291.807    91.623944 
   33200    211.33457   -52.234406    132148.56   -40717.245    2572.0786   -43289.323    91.842764 
   33250    215.12885   -38.310363    132122.67   -40716.405    2618.2574   -43334.663    91.897939 
   33300    212.66519   -74.300587    132105.12   -40735.739    2588.2731   -43324.012    92.064845 
   33350    215.26613    92.574044    132100.16   -40678.702    2619.9281   -43298.631    92.368997 
   33400    213.79031   -109.30156    132062.96   -40731.673    2601.9664    -43333.64    92.433816 
   33450    217.27092  -0.57973707    132101.79   -40730.544    2644.3277   -43374.872    92.535189 
   33500     212.0715   -74.392603     131980.4   -40731.098    2581.0475   -43312.145    92.653053 
   33550    212.24411   -102.72785    131861.72   -40735.647    2583.1482   -43318.796    92.789824 
   33600    210.73591    50.640063    131906.75   -40768.454    2564.7925   -43333.247    93.012754 
   33650    215.46886   -37.282469    132037.23   -40730.584    2622.3955    -43352.98    93.127227 
   33700    216.75805   -115.74872    131954.49   -40738.897    2638.0858   -43376.983    93.441314 
   33750    217.17606   -145.89916    131941.79   -40715.597    2643.1733    -43358.77    93.517251 
   33800    218.23876    119.23774    131814.22   -40658.625     2656.107   -43314.732    93.728578 
   33850    213.99034    11.149434    131999.23   -40681.193     2604.401   -43285.594    93.842713 
   33900    216.37715   -108.49498    132004.87   -40652.363      2633.45   -43285.813    94.118058 
   33950    217.69498    -94.86578    131931.72   -40666.401    2649.4888    -43315.89    94.185047 
   34000    214.15228    129.83871    131864.17   -40719.054    2606.3719   -43325.426    94.269389 
   34050    218.63235   -22.510551    131937.97   -40707.832    2660.8973   -43368.729     94.52143 
   34100    218.46766   -3.7894316    131836.01   -40684.063    2658.8928   -43342.956    94.821997 
   34150    216.67158    151.16644    131835.24   -40657.131    2637.0334   -43294.164    94.982402 
   34200    218.22641    26.443686    131964.03   -40610.051    2655.9567   -43266.008    95.345355 
   34250    218.07656   -91.677811    132008.55   -40650.516    2654.1329   -43304.649    95.295263 
   34300    216.17291   -61.356131    131882.72   -40655.373    2630.9642   -43286.337    95.463453 
   34350    215.56386   -9.1694869    131888.05   -40705.426    2623.5518   -43328.978    95.540953 
   34400    219.10114     56.20464    131835.32   -40684.219    2666.6028   -43350.822    95.552152 
   34450    215.80838    -96.32464    131740.81   -40698.508    2626.5277   -43325.036    95.760076 
   34500    211.88857   -64.535274    131685.44   -40704.961    2578.8211   -43283.783     96.03154 
   34550    211.82843   -70.886764    131531.59   -40673.835    2578.0891   -43251.924     96.19385 
   34600    213.95651    58.209442    131485.49   -40657.829    2603.9893   -43261.819    96.595228 
   34650    211.55429   -126.34079    131305.22   -40669.101    2574.7526   -43243.853     96.80458 
   34700    215.73441   -93.106835    131259.66   -40719.839    2625.6275   -43345.466    96.891963 
   34750    210.38504    5.1371837    131226.33   -40751.924    2560.5222   -43312.447    97.158102 
   34800    211.28508   -18.441535    131145.99   -40786.746    2571.4762   -43358.222    97.099607 
   34850    211.25666    173.62685    131233.19   -40785.078    2571.1304   -43356.208     96.90408 
   34900    210.08504    100.43949    131266.76   -40748.708     2556.871   -43305.579    97.193111 
   34950    213.76206   -82.277045    131282.13   -40732.705    2601.6226   -43334.328    97.358997 
   35000    212.18117     -6.83825    131125.37   -40759.354    2582.3822   -43341.736    97.390554 
   35050    210.74906   -26.707145    131195.94   -40778.606    2564.9525   -43343.558     97.83027 
   35100    214.85411    67.119354    131389.61   -40709.361    2614.9136   -43324.275    98.039243 
   35150    210.55243    52.457677    131444.04   -40740.128    2562.5594   -43302.687    98.299221 
   35200     209.8524    38.536462    131464.45   -40721.933    2554.0396   -43275.973    98.383868 
   35250    206.95924   -5.0265171    131519.09   -40748.948     2518.828   -43267.776    98.526883 
   35300    213.32877    102.49977    131634.86   -40760.683    2596.3492   -43357.032    98.527836 
   35350     210.0807   -76.704473    131533.15   -40734.378    2556.8181   -43291.196    98.838676 
   35400     212.2413    20.172164    131375.56   -40709.536    2583.1141    -43292.65    98.920094 
   35450    212.73284   -47.655247    131409.24   -40695.386    2589.0964   -43284.482    98.982313 
   35500    219.50052    48.754927    131405.97   -40682.257    2671.4635    -43353.72    99.228242 
   35550    215.24418    181.11617    131568.87    -40660.72     2619.661   -43280.381    99.224774 
   35600    217.16518   -165.37299     131621.8   -40697.073    2643.0408   -43340.114    99.415178 
   35650     212.7556   -135.36506    131453.31   -40709.328    2589.3734   -43298.702    99.504392 
   35700    217.69222    32.705635     131451.6   -40686.202    2649.4552   -43335.658    99.475923 
   35750    216.42121    149.14195    131654.11   -40639.801    2633.9862   -43273.787    99.490349 
   35800    219.14655   -75.603306     131726.5   -40652.992    2667.1553   -43320.147    99.536004 
   35850    213.49243    22.541216    131763.86   -40644.722    2598.3411   -43243.063    99.662221 
   35900    215.97155   -16.468186    131762.98   -40530.961    2628.5136   -43159.475     99.87341 
   35950    216.37734   -84.321714     131752.8   -40542.705    2633.4524   -43176.158    100.02291 
   36000    218.82661   -138.23867    131609.62   -40529.993    2663.2615   -43193.255    99.942792 
   36050    216.28361    95.418798    131629.06   -40509.203    2632.3116   -43141.514    100.11127 
   36100    214.77911    51.401466    131795.84   -40551.746    2614.0008   -43165.747    100.21056 
   36150    219.35385    -33.91237    131793.47   -40524.478    2669.6784   -43194.156    100.28933 
   36200    216.27898   -24.062997    131739.84   -40521.361    2632.2553   -43153.616    100.34638 
   36250    220.81547    107.94905    131758.59   -40505.817    2687.4673   -43193.284    100.55425 
   36300    221.69484    75.224048    131872.77   -40468.904    2698.1698   -43167.074    100.73216 
   36350    219.39534   -15.594353    131910.19   -40482.401    2670.1834   -43152.585    100.83434 
   36400    217.29961   -90.906585    132030.01   -40501.854    2644.6769   -43146.531    101.08241 
   36450    221.12903   -91.639841    131807.82   -40504.507    2691.2835    -43195.79     101.0345 
   36500    215.82985    12.797983    131816.01   -40495.318     2626.789   -43122.107     101.0693 
   36550    220.91363   -15.647494    131853.36   -40512.711    2688.6619   -43201.373    101.36532 
   36600    221.44207    23.585135     132027.5   -40468.291    2695.0934   -43163.384    101.84954 
   36650    217.16057   -149.99239    131935.17   -40486.605    2642.9847    -43129.59    101.91747 
   36700    216.52035    11.665889    131881.24    -40529.94    2635.1929   -43165.133    102.12077 
   36750    217.73633    49.504332    131864.36   -40590.782     2649.992   -43240.774    102.25596 
   36800     209.1569    35.559536    131835.75   -40619.743    2545.5749   -43165.318     102.2384 
   36850    215.52039    92.165053    131818.87   -40633.668    2623.0227    -43256.69    102.37831 
   36900     212.5482   -43.908334    131859.42   -40682.752    2586.8492   -43269.601    102.49643 
   36950    215.51091   -15.892094    132025.26   -40671.726    2622.9074   -43294.633    102.85179 
   37000    211.05398   -108.43485    131944.92   -40692.582    2568.6636   -43261.246    102.93892 
   37050    218.49372    -31.31534    131919.13   -40654.867    2659.2101   -43314.077    103.19109 
   37100     216.2872   -65.936529     131859.5   -40703.003    2632.3552   -43335.358    103.10908 
   37150    211.30698   -41.439221    131772.99   -40690.705    2571.7427   -43262.448    103.30431 
   37200     210.1918   -6.1610506    131647.05   -40735.543    2558.1703   -43293.713    103.19282 
   37250    211.63068   -114.32273    131572.04   -40752.711    2575.6824   -43328.394    103.18857 
[...]
  191000    217.24414    40.326779    132105.66    -40660.19    2644.0018   -43304.192    532.74255 
  191050     216.5013   -16.966584    132116.02   -40656.782     2634.961   -43291.744    532.97107 
  191100    220.60261   -69.513491    132147.48   -40704.058    2684.8766   -43388.934     533.3609 
  191150    216.42032   -17.105684    132110.73   -40796.279    2633.9754   -43430.254    533.89959 
  191200    211.54506   -127.87284    132159.97   -40780.949    2574.6403    -43355.59    534.29554 
  191250    214.56385   -41.421312    132032.62   -40767.043    2611.3809   -43378.424    534.02269 
  191300    211.81894   -117.69106    132019.89   -40805.827    2577.9736   -43383.801    533.86625 
  191350    213.57919    290.39086     132011.5   -40830.951     2599.397   -43430.348    533.59691 
  191400     213.8237   -64.773922     131973.4   -40817.449    2602.3728   -43419.822    533.48372 
  191450    214.87373   -34.511681    131840.83   -40795.045    2615.1524   -43410.198    533.45571 
  191500    216.95928   -28.391506    131783.02   -40794.202    2640.5349   -43434.737    533.46704 
  191550    214.57272   -54.943738     131820.3   -40850.374    2611.4889   -43461.863    533.61107 
  191600    214.60941    165.71734    131926.16   -40857.993    2611.9355   -43469.928    534.75686 
  191650    213.49387   -18.483037    132023.91   -40844.483    2598.3587   -43442.842    534.97154 
  191700    215.85439    24.158232    131960.39   -40865.143    2627.0877    -43492.23    534.35545 
  191750     211.7459    102.13856     131945.1   -40879.496    2577.0847   -43456.581     534.5482 
  191800    213.31255    10.640509    131951.23   -40880.824    2596.1519   -43476.976    534.49965 
  191850    212.65842    124.85141    132111.21    -40838.34    2588.1907   -43426.531    535.15797 
  191900     212.3101    1.8906434    132240.27   -40885.523    2583.9514   -43469.474    536.29519 
  191950    207.17559    75.189592    132155.55   -40909.271     2521.461   -43430.732    536.33076 
  192000    212.95887   -62.545384    131997.35   -40863.046    2591.8473   -43454.893    536.08326 
  192050    213.11061    133.95976    131978.28   -40859.794    2593.6941   -43453.489    536.19634 
  192100    211.86977    108.81925     132116.8   -40884.757    2578.5923   -43463.349    536.22496 
  192150     215.9715     96.82158    132380.93   -40840.141     2628.513   -43468.654    537.03288 
  192200    209.89997    179.03416    132454.43   -40818.423    2554.6185   -43373.041    537.79829 
  192250    212.75618   -9.2320505    132411.97   -40819.096    2589.3805   -43408.476    537.61662 
  192300    213.65442   -91.067589    132354.89   -40831.593    2600.3126   -43431.905    537.63234 
  192350    210.15246    121.38999    132366.82   -40837.998    2557.6915   -43395.689    537.44974 
  192400    210.61245   -22.751594     132421.4   -40817.933    2563.2899   -43381.223    537.41973 
  192450    213.52175   -56.146878    132386.61   -40773.792    2598.6979    -43372.49    537.18918 
  192500     210.5911    57.317204    132434.64   -40810.589      2563.03   -43373.619    537.98024 
  192550    212.46489   -60.021059    132333.86   -40859.354    2585.8352    -43445.19    538.13974 
  192600    215.78361   -145.19193    132180.54   -40816.303    2626.2262   -43442.529    538.21214 
  192650    213.46088    62.571765    132116.78   -40793.655    2597.9571   -43391.612    537.94873 
  192700    211.78936    112.62133    132105.26   -40744.923    2577.6136   -43322.536     537.9014 
  192750    211.47061    11.921299     132298.9   -40754.898    2573.7342   -43328.633    538.50756 
  192800    219.01943    185.35195    132397.89   -40729.798    2665.6082   -43395.407    539.09108 
  192850    213.25327     81.99713    132367.41   -40785.137    2595.4303   -43380.567    539.14692 
  192900    213.25872   -135.58663    132451.75   -40754.059    2595.4966   -43349.556    539.51184 
  192950    213.57147   -43.014997     132467.5   -40730.449     2599.303   -43329.752    539.50764 
  193000    219.37302   -20.475365    132368.46   -40661.729    2669.9117   -43331.641    539.23226 
  193050    217.67447    96.015939    132434.32   -40650.915    2649.2392   -43300.154    539.39611 
  193100    218.37518    35.642727       132571   -40675.536    2657.7673   -43333.304    539.30269 
  193150    218.22294    19.055413    132570.99   -40659.553    2655.9144   -43315.468    539.77764 
  193200      216.401   -48.754602    132536.83   -40690.646    2633.7403   -43324.386    539.69987 
  193250    215.93424    58.387478    132490.58   -40679.959    2628.0595   -43308.018    539.32539 
  193300    216.10472   -34.729657    132428.02   -40693.188    2630.1343   -43323.322    539.24778 
  193350    217.43407   -165.26796    132326.97   -40706.777    2646.3134    -43353.09    539.81253 
  193400    216.98122    16.612521    132188.13   -40658.167    2640.8019   -43298.969    539.05272 
  193450    217.92122   -154.01327     132157.1   -40628.933    2652.2423   -43281.176    539.87365 
  193500    221.57837   -138.33711    132154.54   -40697.445    2696.7522   -43394.197    539.86213 
  193550    212.05196   -86.909544    132106.27   -40732.751    2580.8096   -43313.561    539.91549 
  193600    214.76563   -50.778585     132004.4    -40720.53    2613.8367   -43334.367    539.90989 
  193650    214.52798    5.0816669    131965.81   -40769.468    2610.9444   -43380.413    539.53301 
  193700    213.30324    163.12041    132006.57   -40767.875    2596.0386   -43363.914    539.97459 
  193750    212.76814   -164.27388    131995.18   -40770.958    2589.5261   -43360.484    539.66904 
  193800    214.06213   -79.244286    131778.76   -40740.009    2605.2747   -43345.283    540.13634 
  193850    214.61696    1.7214674    131721.85   -40752.952    2612.0274   -43364.979    539.46574 
  193900    214.56303   -31.303386    131740.19   -40745.395    2611.3709   -43356.766    539.46287 
  193950    211.20468   -3.4591099    131631.59   -40787.368    2570.4978   -43357.866    539.21105 
  194000    210.95843      156.433    131710.17   -40788.579    2567.5006   -43356.079    539.76059 
  194050    211.63013   -151.60874    131728.92   -40818.609    2575.6757   -43394.284    539.82743 
  194100    209.15315   -3.7522383    131756.26   -40822.546    2545.5293   -43368.075    540.10536 
  194150    210.33121    5.6645535    131844.43   -40788.806     2559.867   -43348.673    540.38408 
  194200    212.41462    24.423188    131703.84   -40761.619    2585.2234   -43346.842    540.32141 
  194250    212.55936   -61.865707    131564.61   -40786.796     2586.985   -43373.781    539.90308 
  194300    212.97362    121.67559    131547.41    -40750.42    2592.0268   -43342.447    539.49607 
  194350    217.04953     42.88274    131670.01   -40711.002    2641.6333   -43352.635    539.73634 
  194400    214.77988   -66.683913    131751.31   -40672.581    2614.0101   -43286.592    540.17767 
  194450    215.87527    30.826216    131801.01   -40688.648    2627.3418    -43315.99    540.40816 
  194500    217.70061    109.25273    131881.11    -40636.68    2649.5573   -43286.237     540.5126 
  194550    220.59752   -67.442571    131812.68   -40563.026    2684.8147    -43247.84    540.59656 
  194600    217.60764   -9.4268745    131758.71   -40566.478    2648.4259   -43214.904     540.8215 
  194650    216.20943   -24.508514    131732.39   -40612.783    2631.4088   -43244.192    540.55424 
  194700    215.55481    113.20761    131782.65   -40577.537    2623.4416   -43200.978    540.77937 
  194750    215.21588    96.480308    131886.09   -40609.981    2619.3166   -43229.298    541.20782 
  194800    214.19328    75.848144    131940.31    -40656.32    2606.8709   -43263.191    541.90094 
  194850    216.30576   -26.269222    132017.82    -40683.04    2632.5811   -43315.621    542.42768 
  194900    215.93706   -49.341949    132013.14   -40619.615    2628.0938   -43247.709     542.5143 
  194950    217.32754    -63.52759    131886.12   -40601.601    2645.0168   -43246.618    543.16074 
  195000    217.17026    4.3244059    131872.17   -40568.746    2643.1026   -43211.849    542.46447 
  195050    215.19955    204.81633    131798.31   -40554.501    2619.1178   -43173.619    542.47207 
  195100     215.8192   -36.839366    131946.17   -40545.289    2626.6593   -43171.948    542.95895 
  195150    220.02056    2.4068949    131882.53   -40556.003    2677.7927   -43233.796    542.89569 
  195200    214.23582   -115.63593    131868.83   -40571.413    2607.3886   -43178.802    542.75723 
  195250    217.52005    15.920599    131859.58   -40616.227    2647.3598   -43263.587    543.35663 
  195300    219.79279   -66.577545    131873.73   -40619.912    2675.0205   -43294.933    543.44538 
  195350    217.45526    89.199027    131774.29   -40645.879    2646.5713    -43292.45    543.56422 
  195400    214.85987    36.454683    131903.22   -40662.525    2614.9837   -43277.508    544.00463 
  195450    222.50316    153.08664    131885.93   -40631.279    2708.0075   -43339.287    543.53154 
  195500    213.73576   -20.203699    131921.09   -40635.054    2601.3026   -43236.357    543.88981 
  195550     219.3171    25.908727    131874.77   -40603.946    2669.2311   -43273.177    543.55357 
  195600    218.04631   -100.79137    131872.78   -40641.795    2653.7647    -43295.56    543.57311 
  195650    216.03363   -94.092781    131680.53    -40668.29    2629.2691   -43297.559    543.16632 
  195700     213.7428    38.267591       131642   -40695.148    2601.3883   -43296.536    543.45703 
  195750    215.21902    71.638005    131717.89   -40677.456    2619.3549   -43296.811    543.32312 
  195800    216.42774     68.41589    131748.74   -40710.587    2634.0657   -43344.653    543.36198 
  195850    212.02911     186.1972    132048.02   -40712.607    2580.5315   -43293.138    544.90285 
  195900    217.94758   -9.8948661    132151.71   -40709.413    2652.5632   -43361.976    545.51211 
  195950    216.91587    5.4062601    132132.32   -40679.442    2640.0066   -43319.449    545.58448 
  196000    218.13121    3.9391118       132166   -40658.369    2654.7981   -43313.167    545.93838 
  196050    215.81952     110.4821    132137.72   -40695.388    2626.6633   -43322.051    545.86478 
  196100    218.07285    -82.88666    132054.77   -40700.135    2654.0877   -43354.223    546.07787 
  196150    214.84005   -0.3276148    132023.08   -40687.636    2614.7425   -43302.378    545.67344 
  196200    214.63339    181.18411    132087.85   -40686.383    2612.2274   -43298.611    545.87468 
  196250    214.86042    16.799242    132261.83   -40638.147    2614.9904   -43253.137    546.17991 
  196300    216.67676    31.155226    132200.46    -40672.61    2637.0965   -43309.706    546.25819 
  196350    212.70491     51.93608    132287.18   -40641.029    2588.7565   -43229.786    546.68527 
  196400    216.78019   -93.456923    132166.73   -40625.532    2638.3553   -43263.888    546.28065 
  196450    216.35024    58.632811    132150.96   -40630.056    2633.1225   -43263.178    546.43935 
  196500    213.84187   -16.930931    132231.96   -40637.752     2602.594   -43240.346    546.75101 
  196550    215.33083   -26.900025    132185.35   -40600.867    2620.7156   -43221.583    547.16702 
  196600    217.35118   -9.0041853    132250.47   -40603.049    2645.3046   -43248.353    546.93667 
  196650    215.25371   0.26107466    132193.87   -40571.313    2619.7771    -43191.09    546.83712 
  196700    215.79461    34.003053    132072.57   -40551.388    2626.3601   -43177.748    546.66597 
  196750    214.16052     196.1845     132169.8   -40594.158    2606.4722    -43200.63    547.35947 
  196800    213.81513   -149.17502    132128.96   -40680.684    2602.2685   -43282.952    547.17687 
  196850    214.05429   -52.601735    132064.47   -40702.632    2605.1793   -43307.811    547.43179 
  196900    211.23973    70.256099    131984.95   -40713.591    2570.9243   -43284.515    547.64813 
  196950    213.95434   -23.656688    131962.77   -40655.883    2603.9628   -43259.846    547.71137 
  197000    215.11422    119.58591    131901.58   -40716.684    2618.0794   -43334.763    548.12321 
  197050    213.21899   -89.565101    131829.25   -40700.673    2595.0132   -43295.686    548.08724 
  197100    212.99385     21.83076    131761.73   -40714.435    2592.2731   -43306.708    547.31885 
  197150    212.59937    49.734738    131836.73   -40709.762     2587.472   -43297.234    548.00549 
  197200    211.98553    89.050379    131822.85   -40749.959    2580.0012    -43329.96    548.02785 
  197250    211.58424   -38.911533    131875.05   -40752.688    2575.1172   -43327.806    548.04146 
  197300    218.89652    93.610672    131854.06   -40697.591    2664.1123   -43361.704    548.05979 
  197350    217.27725   -133.84181    131932.61   -40740.496    2644.4048   -43384.901    547.58244 
  197400    213.22773    -139.9198    131827.42   -40754.263    2595.1195   -43349.383    547.91663 
  197450    213.30942   -43.371258    131862.01   -40722.262    2596.1137   -43318.375    547.93971 
  197500    215.95163    3.3341971     131719.8   -40711.759    2628.2711    -43340.03    547.39619 
  197550    216.99349    125.21022    131761.97   -40694.381    2640.9513   -43335.332    547.67657 
  197600    214.43818    80.612661    131802.85   -40717.464    2609.8515   -43327.315    548.26453 
  197650    212.12432   -68.649952    131755.26   -40753.316    2581.6903   -43335.007    548.72844 
  197700    210.44994   -160.92275    131602.88   -40774.515    2561.3121   -43335.827    548.76964 
  197750    213.00727   -60.531467    131600.96   -40776.181    2592.4364   -43368.617    549.28797 
  197800    214.20058   -159.00169    131650.89   -40747.018    2606.9598   -43353.978    549.40043 
  197850    211.30233    57.311869    131601.71    -40750.84    2571.6861   -43322.526    549.35724 
  197900    216.46782    49.091914    131528.12   -40724.221    2634.5536   -43358.775    549.57474 
  197950    214.76232    30.374952    131621.43   -40701.015    2613.7965   -43314.811    550.12144 
  198000    212.47253    148.56522    131757.23   -40709.235    2585.9283   -43295.163    550.75906 
  198050    216.07713   -37.267346     131724.6   -40679.454    2629.7985   -43309.252    550.97103 
  198100    214.10296    4.6560137    131665.64   -40653.744    2605.7716   -43259.515    551.05587 
  198150    208.54336     64.60424    131527.62   -40707.105    2538.1077   -43245.213    550.38264 
  198200    216.60474    78.635076    131587.83   -40641.489    2636.2199   -43277.709    551.07596 
  198250    216.06239    112.66398    131699.93   -40666.467    2629.6191   -43296.086    551.43874 
  198300     215.6638    30.021883    131738.55    -40618.73    2624.7681   -43243.498    552.08686 
  198350    213.35071   -35.185934    131738.38   -40674.181    2596.6162   -43270.797    552.73916 
  198400    215.49039    218.98193     131818.2   -40602.918    2622.6576   -43225.576    552.56956 
  198450    216.86414   -86.468845    131884.04    -40651.96    2639.3769   -43291.337    552.93715 
  198500    218.74806    39.947521    131810.18   -40644.726    2662.3055   -43307.031    552.76327 
  198550    213.25532   -83.061528     131768.7   -40646.271    2595.4554   -43241.726    552.68286 
  198600    217.09031   -15.047668    131722.02   -40638.223    2642.1296   -43280.353    552.77287 
  198650    216.60638   -111.88493    131725.19   -40718.343    2636.2399   -43354.583    552.94255 
  198700    214.60117    93.077379    131798.47   -40704.335    2611.8351    -43316.17    553.45377 
  198750    214.46993    17.670686    131924.59   -40700.604    2610.2379   -43310.842    553.35583 
  198800    215.03936    81.134192    132037.31   -40694.683    2617.1682   -43311.851    553.76859 
  198850    215.28978   -46.574512    131942.24    -40688.53    2620.2161   -43308.746    554.06749 
  198900    214.87218   -175.51052    131792.73   -40718.044    2615.1336   -43333.177    554.10308 
  198950    219.48308   -141.03628    131699.38   -40711.586    2671.2512   -43382.837    554.12018 
  199000    212.31021    59.828889    131626.99   -40713.896    2583.9527   -43297.849     553.7823 
  199050    216.15612   -12.575233    131677.72   -40668.163    2630.7599   -43298.923    554.13611 
  199100    214.77953    81.854539    131636.47   -40681.373    2614.0059   -43295.379    553.82973 
  199150    215.17894    33.240386    131665.55   -40685.855     2618.867   -43304.722    553.90561 
  199200     209.8369   -142.15029    131762.23   -40693.161     2553.851   -43247.012    554.13461 
  199250    211.90699    53.436456    131840.09   -40703.863    2579.0453   -43282.908    554.77442 
  199300    212.75318   -246.38474    131816.93   -40634.986     2589.344    -43224.33    554.74108 
  199350    208.60824   -149.05473    131698.99   -40632.629    2538.8973   -43171.527    554.60178 
  199400    216.36849   -138.76084    131537.24   -40622.734    2633.3446   -43256.078    553.97365 
  199450    215.44798   -145.50192    131361.12   -40581.068    2622.1414    -43203.21    553.72875 
  199500    218.10451    -97.78564    131285.03   -40552.942     2654.473   -43207.415    553.72761 
  199550     216.7425   -51.895911    131274.56   -40547.806    2637.8965   -43185.702    554.25924 
  199600    218.18325   -190.77418    131015.24   -40529.161    2655.4315   -43184.593    554.04376 
  199650    218.74537    109.71035    130941.56   -40507.319    2662.2728   -43169.591    554.05833 
  199700    216.70774    189.52624    131054.59    -40572.82    2637.4735   -43210.293    554.72674 
  199750    215.86878    7.2376449    131165.14   -40560.781    2627.2629   -43188.044    555.39651 
  199800    216.64877    125.22092    131185.34   -40573.313    2636.7557   -43210.069    555.46335 
  199850    213.92413   -5.0524657    131222.51   -40583.979    2603.5952   -43187.574    555.46671 
  199900    216.73109    46.947791    131019.83   -40572.194    2637.7577   -43209.952    554.64956 
  199950    211.82472   -54.473156    130953.96   -40627.603     2578.044   -43205.647    554.55839 
  200000    215.30603    89.057257    130955.57   -40613.199    2620.4137   -43233.613    554.46001 
Loop time of 337.12 on 12 procs for 200000 steps with 4084 atoms

Performance: 256.289 ns/day, 0.094 hours/ns, 593.261 timesteps/s
99.6% CPU use with 12 MPI tasks x no OpenMP threads

MPI task timing breakdown:
Section |  min time  |  avg time  |  max time  |%varavg| %total
---------------------------------------------------------------
Pair    | 237.72     | 279.07     | 303.01     | 163.5 | 82.78
Neigh   | 6.1638     | 7.2149     | 7.8958     |  25.7 |  2.14
Comm    | 19.88      | 44.316     | 86.503     | 418.7 | 13.15
Output  | 0.1476     | 0.17155    | 0.4179     |  17.9 |  0.05
Modify  | 4.8013     | 5.0049     | 5.1773     |   5.7 |  1.48
Other   |            | 1.339      |            |       |  0.40

Nlocal:    340.333 ave 370 max 302 min
Histogram: 4 0 0 0 0 0 1 3 2 2
Nghost:    968.25 ave 1009 max 912 min
Histogram: 2 1 1 0 0 0 1 3 3 1
Neighs:    0 ave 0 max 0 min
Histogram: 12 0 0 0 0 0 0 0 0 0
FullNghs:  11110.7 ave 12174 max 9605 min
Histogram: 4 0 0 0 0 0 0 3 3 2

Total # of neighbors = 133328
Ave neighs/atom = 32.6464
Neighbor list builds = 11818
Dangerous builds = 0

write_data		${DIR}/data.eq-${NAME}-${TEMP}
write_data		run_1/data.eq-${NAME}-${TEMP}
write_data		run_1/data.eq-hardcavity_freeze_1-${TEMP}
write_data		run_1/data.eq-hardcavity_freeze_1-215
undump          1

reset_timestep  0

unfix           2
unfix           3
unfix           4


################################################
#######         Run Simulation         #########
################################################

log				${DIR}/log.run_${NAME}
log				run_1/log.run_${NAME}
log				run_1/log.run_hardcavity_freeze_1
