
# Set production fixes - Nose/Hoover
#
fix                 4 water temp/csvr ${START_TEMP} ${END_TEMP} 500.0 928347
fix                 4 water temp/csvr 240 ${END_TEMP} 500.0 928347
fix                 4 water temp/csvr 240 227 500.0 928347


## divide "droplet" into core and surface
#region		core_reg cylinder z 135 135 44.6 20 INF units box
#region		surface_reg cylinder z 135 135 44.6 20 INF units box side out
#group		core dynamic all region core_reg
#group		surface dynamic all region surface_reg

## compute pressure core
#compute        peratom_core core stress/atom NULL
#compute        p_core core reduce sum c_peratom_core[1] c_peratom_core[2] c_peratom_core[3]
#variable       press_core equal -(c_p_core[1]+c_p_core[2]+c_p_core[3])/(3*1249982.5)


## compute pressure surface
#compute        peratom_surf surface stress/atom NULL
#compute        p_surf surface reduce sum c_peratom_surf[1] c_peratom_surf[2] #c_peratom_surf[3]
#variable       press_surf equal -(c_p_surf[1]+c_p_surf[2]+c_p_surf[3])/(3*42395)

## compute total pressure of drop
compute        peratom water stress/atom NULL
compute        p water reduce sum c_peratom[1] c_peratom[2] c_peratom[3]
variable       press equal -(c_p[1]+c_p[2]+c_p[3])/(3*50320)


# compute order parameter
compute        3 all orientorder/atom nnn NULL cutoff 3.5

# compute center of mass of bridge
compute 	4 water com

# Run simulation
thermo_style        custom step c_2 press vol etotal ke pe v_press c_1[4] c_4[*]
thermo              200
dump		     1 water custom 400 ${DIR}/prod.${NAME}.dump id type x y z vx vy vz c_3[*] c_peratom[*]
dump		     1 water custom 400 run_13/prod.${NAME}.dump id type x y z vx vy vz c_3[*] c_peratom[*]
dump		     1 water custom 400 run_13/prod.ibeam_cooling_13.dump id type x y z vx vy vz c_3[*] c_peratom[*]
run                 ${STEPS}
run                 5200000
Neighbor list info ...
  update every 1 steps, delay 0 steps, check yes
  max neighbors/atom: 2000, page size: 100000
  master list distance cutoff = 6.67472
  ghost atom cutoff = 6.67472
  binsize = 3.33736, bins = 48 13 11
  2 neighbor lists, perpetual/occasional/extra = 1 1 0
  (1) pair sw, perpetual
      attributes: full, newton on
      pair build: full/bin/atomonly
      stencil: full/bin/3d
      bin: standard
  (2) compute orientorder/atom, occasional, copy from (1)
      attributes: full, newton on
      pair build: copy
      stencil: none
      bin: none
Per MPI rank memory allocation (min/avg/max) = 0.8532 | 5.966 | 7.262 Mbytes
Step c_2 Press Volume TotEng KinEng PotEng v_press c_1[4] c_4[1] c_4[2] c_4[3] 
       0    242.03046   -295.31938    216009.12   -18690.917    1407.5428    -20098.46   -696.77737    31.474361    78.749977    22.593564    25.530306 
     200    231.67599   -348.56103    216009.12   -18728.387    1347.3257   -20075.713   -877.01663    33.633239    78.748633    22.595554     25.51487 
     400    233.04962   -289.18424    216009.12   -18690.521    1355.3141   -20045.835   -686.81021    35.122803    78.747204    22.592549    25.531671 
     600    249.61315   -236.75574    216009.12   -18565.918    1451.6404   -20017.558   -416.75581    36.437878    78.746904    22.592565    25.545447 
     800    247.64424   -426.99045    216009.12   -18552.594    1440.1901   -19992.784   -1247.4004    38.582715    78.745855    22.594509      25.5531 
    1000    236.25321   -181.96517    216009.12   -18665.182    1373.9448   -20039.127    -223.6305    39.610059    78.746844    22.594614       25.556 
    1200    244.62844   -495.03339    216009.12   -18615.052    1422.6515   -20037.704   -1519.8963    39.903584    78.746883    22.595688    25.550041 
    1400     240.9128   -222.40803    216009.12   -18616.323     1401.043   -20017.366   -377.09511    40.844927    78.747784    22.596334    25.525235 
    1600     238.4183   -392.99978    216009.12   -18605.518     1386.536   -19992.054    -1143.425    42.029726    78.751784    22.595004    25.531466 
    1800    239.05668   -258.31115    216009.12   -18563.067    1390.2486   -19953.316   -547.56802    43.884542    78.754004    22.591721    25.537099 
    2000    246.39775   -414.19668    216009.12    -18510.43     1432.941   -19943.371   -1176.9713     45.48956    78.755705      22.5929    25.499185 
    2200    241.13256    -443.4276    216009.12   -18572.014     1402.321   -19974.335     -1332.08    47.022715    78.757967    22.595631      25.4898 
    2400    245.39343   -220.48354    216009.12   -18528.531    1427.1003   -19955.631   -379.85849    48.125629    78.757136    22.595032    25.496684 
    2600    237.61395   -276.62373    216009.12   -18557.676    1381.8583   -19939.535   -632.57017    49.675414    78.757329    22.594834    25.471828 
    2800    248.09533   -225.44064    216009.12   -18519.812    1442.8134   -19962.625   -379.89405    51.970899    78.755982    22.593306    25.494386 
    3000    246.37137   -262.19409    216009.12   -18562.955    1432.7876   -19995.743   -573.43353    53.381795    78.757042    22.593685    25.494768 
    3200    237.39539   -273.83218    216009.12   -18662.112    1380.5872   -20042.699   -574.92754    54.553519    78.758104    22.593683    25.470089 
    3400    238.16319   -146.77721    216009.12   -18653.748    1385.0524     -20038.8    -113.2027    55.583757    78.758137    22.594633    25.457807 
    3600    242.16215   -301.79379    216009.12   -18636.186    1408.3086   -20044.495   -773.32874    57.211222    78.758787    22.597776    25.421115 
    3800    238.06112   -234.75611    216009.12   -18578.959    1384.4588   -19963.418    -420.9701    58.133543    78.757795    22.596576    25.410692 
    4000    240.14965   -385.94522    216009.12   -18666.024    1396.6048   -20062.629    -1127.884    59.153434    78.758077    22.596686    25.420679 
    4200    245.74345   -313.76957    216009.12   -18607.699    1429.1359   -20036.835   -745.72945    60.617981    78.758322    22.597727    25.431358 
    4400    241.36171   -163.16834    216009.12   -18608.494    1403.6536   -20012.148    -112.9125    61.575889    78.760915    22.600268    25.403436 
    4600    239.86342   -447.50894    216009.12   -18672.169    1394.9402    -20067.11   -1339.6638    62.309322    78.761155    22.601485     25.40058 
    4800    246.69099   -215.97081    216009.12    -18547.74    1434.6464   -19982.386   -342.55044    63.453573    78.759384    22.601944    25.412023 
    5000    236.50725   -269.25809    216009.12   -18605.229    1375.4222   -19980.651   -549.14166    64.406357    78.757436    22.601542    25.418549 
    5200    236.85172   -347.96878    216009.12   -18630.546    1377.4255   -20007.971   -892.03105    66.368461    78.756389    22.600907    25.440508 
    5400    232.93869   -91.141003    216009.12    -18636.54     1354.669   -19991.209     184.3532     67.26218    78.757356    22.603355    25.439603 
    5600    236.43049   -343.77151    216009.12   -18648.333    1374.9758   -20023.309   -912.19912    69.024447     78.75814    22.606267    25.448417 
    5800    244.50129   -277.34041    216009.12   -18578.301     1421.912   -20000.213   -606.89265    71.234712    78.757044    22.608224    25.445208 
    6000    236.29935     -70.3716    216009.12   -18625.104    1374.2131   -19999.318     304.4543    73.240853    78.757206    22.609977    25.456959 
    6200    236.79332   -308.65961    216009.12   -18636.348    1377.0859   -20013.434   -759.35846    73.258775    78.757553    22.610103    25.477398 
    6400    231.07099   -419.10347    216009.12   -18602.866    1343.8073   -19946.673   -1210.2742    75.828406      78.7581    22.611109    25.486409 
    6600    233.64637   -341.93591    216009.12    -18633.69    1358.7846   -19992.475    -863.8457    78.249988    78.758852    22.612889    25.491051 
    6800    238.27249   -240.09535    216009.12    -18624.26    1385.6881   -20009.948   -475.86086    79.860041    78.755486    22.613812    25.482578 
    7000     240.7284    -464.9996    216009.12   -18621.989    1399.9706    -20021.96   -1432.4152    80.889712    78.756416    22.614008    25.491881 
    7200    241.94016   -286.47149    216009.12   -18702.354    1407.0176   -20109.372   -661.12249    81.443919    78.757488    22.614726    25.491678 
    7400    240.87826   -530.49236    216009.12   -18670.157    1400.8421   -20070.999   -1657.2377    82.312528     78.75545    22.615405    25.473556 
    7600     240.3697   -182.98889    216009.12   -18628.379    1397.8845   -20026.263   -238.07498    82.552287    78.757519    22.617549    25.487575 
    7800    233.09741   -470.30478    216009.12   -18735.228    1355.5921    -20090.82   -1439.6401    84.649332    78.756513    22.617063    25.472143 
    8000    246.89358   -372.50324    216009.12   -18601.225    1435.8245   -20037.049   -991.05002     86.01056    78.757212    22.618232    25.470694 
    8200    246.28733   -441.18992    216009.12    -18638.76    1432.2988   -20071.059   -1234.0659    87.709872    78.756849    22.620041    25.492373 
    8400    245.79943   -275.78535    216009.12   -18581.416    1429.4614   -20010.877   -566.63893    88.597307    78.757897    22.619951    25.516777 
    8600    240.15397    -358.3881    216009.12   -18622.216    1396.6299   -20018.846   -938.65316    89.153445    78.758554    22.618616    25.539218 
    8800    245.89907   -230.79955    216009.12   -18643.839    1430.0409    -20073.88   -371.75834    90.490138    78.756213    22.617982    25.542965 
    9000    244.96512   -341.40662    216009.12   -18645.667    1424.6095   -20070.277   -892.62431    92.331386    78.757544    22.614102    25.554545 
    9200    243.12574   -293.66445    216009.12   -18611.355    1413.9124   -20025.268   -645.19817    93.114994    78.758771    22.615216    25.549266 
    9400    241.93639   -275.12884    216009.12   -18664.542    1406.9957   -20071.538   -609.51383    93.712155    78.757822     22.61647    25.539065 
    9600    233.48779   -351.79673    216009.12   -18713.005    1357.8624   -20070.867   -934.44442    93.945545    78.755072    22.612679    25.541328 
    9800    245.50077    -358.7231    216009.12   -18589.276    1427.7246   -20017.001   -971.90155    95.071899     78.75367    22.612745    25.522291 
   10000    230.11861   -193.85078    216009.12   -18609.087    1338.2687   -19947.356   -244.60512    96.118515    78.753432     22.61183    25.519708 
   10200    249.39365   -255.99933    216009.12   -18531.627    1450.3638   -19981.991   -555.25404    97.424395    78.753381    22.611587    25.498001 
   10400    242.47036   -119.92262    216009.12   -18533.103     1410.101   -19943.204   -28.031116    98.996853    78.754965    22.609733    25.503652 
   10600    232.80849   -310.44566    216009.12   -18615.689    1353.9118   -19969.601   -756.13334    100.58693    78.754361    22.608276    25.491396 
   10800     234.5912   -469.06027    216009.12   -18628.223    1364.2793   -19992.502   -1403.0248    101.51331    78.753877    22.606978    25.462481 
   11000    233.70571   -369.15512    216009.12   -18637.793    1359.1297   -19996.923   -982.45742    103.09784    78.751589    22.605121    25.460253 
   11200    229.26437    -213.0816    216009.12   -18606.316    1333.3008   -19939.617   -317.08903    103.45151    78.753037    22.605265    25.470245 
   11400    240.05784   -304.09355    216009.12   -18610.148    1396.0709   -20006.219   -708.02293    104.67802    78.752305    22.605129    25.476953 
   11600    242.45767   -226.52212    216009.12   -18531.027    1410.0272   -19941.054   -337.38169    106.68607    78.751501    22.605928    25.485533 
   11800    240.93604    -293.5917    216009.12   -18529.962    1401.1781    -19931.14   -694.21358    108.63341    78.751655    22.606704    25.491923 
   12000    246.21737   -284.25388    216009.12   -18550.963     1431.892   -19982.855   -629.12874    109.68285    78.751266    22.603997    25.478437 
   12200    240.68472   -499.53295    216009.12   -18546.626    1399.7165   -19946.343   -1607.6005    110.23474     78.75267    22.604355    25.454999 
   12400    240.28185   -109.02438    216009.12    -18571.28    1397.3736   -19968.654    45.872759    110.35755    78.753754    22.604687    25.482422 
   12600    249.69654   -349.38126    216009.12   -18531.625    1452.1253    -19983.75   -956.38044    111.91986    78.754695    22.603503     25.48612 
   12800    243.01939   -246.24392    216009.12   -18580.843    1413.2939   -19994.137   -464.00862    112.81621    78.755003    22.601795    25.488211 
   13000    236.17273   -307.22218    216009.12   -18606.781    1373.4768   -19980.258   -728.27062    114.96675    78.754768    22.601973     25.47128 
   13200    234.33752   -253.77694    216009.12   -18614.861     1362.804   -19977.665   -465.21161    116.29005     78.75428    22.604452    25.465576 
   13400    229.88352     -153.831    216009.12   -18678.217    1336.9015   -20015.119   -68.879435    118.53624      78.7539    22.602531    25.475934 
   13600    234.80771   -450.83512    216009.12   -18636.619    1365.5384   -20002.158   -1338.7856    120.19077     78.75635    22.605028    25.470178 
   13800    241.38325   -117.94495    216009.12   -18551.818    1403.7789   -19955.597    83.617241     121.0019     78.75529    22.604292    25.482287 
   14000    236.83616   -331.50915    216009.12   -18483.363     1377.335   -19860.698   -851.22943    122.61571    78.756027    22.602886    25.503285 
   14200    235.83785   -386.34508    216009.12   -18538.146    1371.5293   -19909.675   -1091.6002    124.52859    78.756314     22.60238    25.518067 
   14400    232.68593   -444.02327    216009.12   -18552.055    1353.1991   -19905.254   -1325.4353    126.42063    78.757249    22.599654    25.523688 
   14600     240.6398   -295.69732    216009.12   -18559.795    1399.4553    -19959.25    -721.3624    127.96315    78.756184    22.600438    25.520488 
   14800    242.97307   -397.38385    216009.12   -18547.088    1413.0245   -19960.112   -1079.3472    128.25726    78.757231    22.601444     25.51359 
   15000    244.92844   -381.09562    216009.12    -18604.56    1424.3962   -20028.956   -1031.9453    130.30757    78.758371     22.60258     25.53378 
   15200    244.74861   -210.88715    216009.12   -18609.335    1423.3503   -20032.686   -338.59684    130.69545     78.75775    22.606152    25.523963 
   15400    233.50381   -298.04212    216009.12   -18656.447    1357.9555   -20014.403   -664.95591    131.36464    78.754828    22.608526     25.53834 
   15600    243.85733    -389.0599    216009.12   -18481.179     1418.167   -19899.346   -1114.3637    133.25186    78.753265    22.607155     25.54827 
   15800    248.10549   -219.82516    216009.12   -18537.369    1442.8725   -19980.242   -334.98849    134.64361     78.75278    22.607635    25.528033 
   16000    247.19195   -404.92734    216009.12   -18590.835    1437.5597   -20028.395   -1140.1812    136.77485    78.751819    22.608673    25.510601 
   16200     237.3051   -329.43018    216009.12   -18550.804    1380.0621   -19930.866   -781.05517    137.94297    78.751844    22.610093    25.491852 
   16400    244.35779    -254.8999    216009.12   -18558.509    1421.0775   -19979.586   -487.73844    139.32608    78.751734    22.611444    25.494236 
   16600    243.60374   -476.75175    216009.12   -18506.541    1416.6922   -19923.233   -1482.7495    140.51337    78.750449    22.612218    25.508228 
   16800    240.84725   -196.22326    216009.12   -18568.423    1400.6617   -19969.085   -248.50774    141.52499    78.748175    22.612423     25.49911 
   17000    234.57502   -257.93366    216009.12   -18614.116    1364.1852   -19978.301   -532.76484     142.4543    78.747424    22.612182    25.497669 
   17200    239.22645   -145.50621    216009.12   -18616.579    1391.2359   -20007.814   -42.910354    143.56944    78.746718    22.613062    25.473777 
   17400    237.18073   -355.85173    216009.12   -18678.231    1379.3389    -20057.57   -974.91461    144.32946    78.747461    22.615796    25.455317 
   17600    240.19803   -288.75926    216009.12   -18600.554    1396.8861    -19997.44   -614.40133    145.61176    78.747083      22.6139    25.465294 
   17800    241.00295   -364.45861    216009.12   -18619.342    1401.5672   -20020.909   -966.05898    146.19988    78.748813    22.613088    25.481731 
   18000    236.85482   -141.71523    216009.12   -18537.678    1377.4435   -19915.121    8.6614369    147.42623    78.748741    22.611409    25.466235 
   18200    236.13872   -253.58828    216009.12   -18587.323     1373.279   -19960.602   -493.20782    149.26295    78.750124    22.612198    25.471589 
   18400    237.76381   -375.97924    216009.12   -18564.716    1382.7298   -19947.446   -1042.1178    150.84045     78.74854    22.611217    25.472659 
   18600    244.55748   -358.28458    216009.12    -18574.46    1422.2388   -19996.699   -939.32633    152.18609    78.749311    22.609588    25.483893 
   18800    240.06781   -211.83617    216009.12   -18640.664    1396.1288   -20036.793   -315.00499    152.59858    78.750286    22.609107    25.490165 
   19000    243.91099   -216.70448    216009.12   -18563.504    1418.4791   -19981.984   -356.38136    152.77575    78.748725    22.609503    25.514968 
   19200    241.66082   -283.38401    216009.12   -18577.133    1405.3931   -19982.526   -610.89831    154.78286    78.748396    22.610233    25.505672 
   19400    245.03387   -427.54906    216009.12   -18534.172    1425.0093   -19959.181   -1237.1301    157.28516    78.747139    22.611018    25.505181 
   19600    238.18798   -149.57945    216009.12   -18542.948    1385.1966   -19928.145   -104.12409    158.20801     78.74603    22.609743    25.508878 
   19800     235.9741   -383.47283    216009.12   -18526.764    1372.3217   -19899.085   -1068.9477    159.21043    78.744731    22.607815    25.529349 
   20000    234.96952   -327.92782    216009.12   -18549.183    1366.4794   -19915.663   -851.87089    160.29026    78.746275    22.607293    25.542206 
   20200    234.89094   -321.74367    216009.12   -18589.692    1366.0224   -19955.714   -827.86938     162.6997    78.746395    22.606831     25.51163 
   20400    243.89116   -211.18659    216009.12   -18518.466    1418.3638    -19936.83   -346.19178    162.60769    78.745331     22.60392    25.498329 
   20600    234.90769   -379.43893    216009.12   -18598.032    1366.1198   -19964.151   -1041.3923    164.04391    78.746619    22.605308    25.522076 
   20800    239.89741   -318.21494    216009.12   -18513.009    1395.1379   -19908.147   -792.31935    165.33581    78.747671    22.605396    25.530441 
   21000    238.79409   -380.50268    216009.12    -18538.25    1388.7215   -19926.971   -1042.0715    166.88532    78.747873    22.604045    25.546758 
   21200    241.28645   -416.26472    216009.12   -18531.395    1403.2159   -19934.611   -1199.0223    169.49189    78.748019    22.604525    25.542225 
   21400    242.58868   -326.84929    216009.12   -18599.113    1410.7891   -20009.902   -844.87579    169.87124    78.748696    22.604497    25.572229 
   21600    246.41739   -329.81703    216009.12   -18508.296    1433.0552   -19941.352   -835.62364    171.13156    78.748121    22.605044    25.586167 
   21800    234.93462   -164.16503    216009.12   -18605.327    1366.2765   -19971.604   -105.16688    172.65932    78.747338     22.60564     25.56114 
   22000    232.74275   -354.42415    216009.12   -18643.188    1353.5295   -19996.718   -957.65253    174.92349    78.746309    22.606191    25.552754 
   22200    233.92673   -355.34699    216009.12   -18672.597    1360.4151   -20033.013   -926.45963     175.8887    78.745465    22.607108    25.533381 
   22400    247.02049   -490.77526    216009.12   -18578.268    1436.5626    -20014.83   -1516.2634    177.53881    78.743699    22.607695    25.524106 
   22600    244.42093   -322.40595    216009.12   -18585.835    1421.4447    -20007.28   -837.95168    178.50539    78.742376    22.607181    25.537001 
   22800    241.03595   -259.53493    216009.12   -18554.057    1401.7592   -19955.816   -497.92664    180.15998      78.7412     22.60859    25.523057 
   23000    234.17495   -120.93797    216009.12   -18618.175    1361.8586   -19980.033    91.125071    183.02789     78.74236    22.608622     25.51459 
   23200    242.49229   -298.14668    216009.12   -18587.589    1410.2285   -19997.817   -696.47115    186.17259    78.739401    22.610167     25.48594 
   23400    246.62204   -230.29625    216009.12    -18606.75    1434.2454   -20040.996   -368.76974    188.58671    78.739064    22.610289    25.484996 
   23600    239.35722   -191.04637    216009.12   -18567.286    1391.9964   -19959.283   -185.80353    192.22407    78.738482    22.608752    25.468216 
   23800    242.93891    -465.4599    216009.12   -18555.445    1412.8259   -19968.271   -1418.8365    193.72983    78.739084    22.609937    25.473918 
   24000     240.5416   -269.73182    216009.12   -18585.946    1398.8842    -19984.83   -573.14656    195.74356    78.738649    22.610608    25.484481 
   24200     240.3875   -253.48861    216009.12   -18601.024     1397.988   -19999.012   -475.83417     195.5677    78.740421    22.612659    25.466658 
   24400    238.57309   -304.99664    216009.12   -18644.202    1387.4362   -20031.638   -708.60205    198.42737    78.741039    22.616347    25.497197 
   24600    233.44533   -370.81641    216009.12   -18654.243    1357.6154   -20011.859   -1020.8829    201.60021    78.739916    22.614829    25.503902 
   24800    230.35508   -239.46405    216009.12   -18615.557    1339.6439   -19955.201   -429.75399     201.6173    78.737806    22.616093    25.517799 
   25000     238.7813   -328.30904    216009.12    -18622.91    1388.6471   -20011.557   -780.77738    204.03461    78.738162    22.616092    25.511186 
   25200    228.24494    -239.0647    216009.12    -18734.81    1327.3722   -20062.182   -418.81771    205.03626    78.738048    22.618183    25.531535 
   25400     238.8399   -488.67687    216009.12   -18637.224    1388.9879   -20026.212   -1532.0652     206.7016    78.736501    22.618423    25.514838 
   25600    248.19007   -447.60649    216009.12   -18498.882    1443.3643   -19942.246   -1305.9309    207.65598    78.734755    22.619024    25.513664 
   25800    244.95806   -275.83748    216009.12   -18559.701    1424.5684   -19984.269   -559.40958    208.03082    78.734399    22.622859    25.514534 
   26000    242.97891   -455.86336    216009.12   -18604.704    1413.0585   -20017.762   -1318.6635    209.90928    78.732904    22.624034    25.528723 
   26200    240.08021   -390.63021    216009.12   -18610.005     1396.201   -20006.205   -1113.6212    213.11428    78.728978    22.625505    25.530935 
   26400    235.59029   -296.10444    216009.12   -18646.637    1370.0896   -20016.726   -700.77819    213.94202    78.729043    22.628922    25.529212 
   26600     238.7409   -316.02755    216009.12   -18542.027    1388.4122   -19930.439    -770.4175    215.85036     78.72867     22.63122     25.52753 
   26800    241.70896   -250.52399    216009.12   -18580.148     1405.673   -19985.821   -480.99612    215.70838    78.728677    22.632787    25.525698 
   27000    246.76865   -353.50407    216009.12   -18519.566     1435.098   -19954.664   -940.95619    219.50035    78.726167    22.632186    25.559527 
   27200    240.62686   -283.21385    216009.12   -18593.651    1399.3801   -19993.031   -635.34084    222.20122    78.723152    22.632917     25.55517 
   27400    242.40684   -338.46184    216009.12   -18537.937    1409.7316   -19947.668   -872.94181    228.00855    78.724662    22.631033    25.568167 
   27600     231.1204   -169.16196    216009.12   -18631.229    1344.0947   -19975.323   -157.19104     230.8789    78.725145    22.627795    25.557236 
   27800    239.27171   -270.77148    216009.12    -18531.57    1391.4991    -19923.07   -537.87559    233.44295    78.725713    22.626419    25.566523 
   28000    233.90169   -386.52418    216009.12   -18620.741    1360.2694    -19981.01   -1089.7694    235.09269    78.726033    22.626996    25.578032 
   28200    242.14174   -267.16471    216009.12   -18602.519    1408.1899   -20010.709   -598.25069    235.68095    78.725258    22.625715    25.579272 
   28400    236.29239    -341.4783    216009.12   -18591.776    1374.1727   -19965.949   -835.04036     238.5892    78.725074    22.626345    25.589473 
   28600    240.43797   -202.63818    216009.12   -18597.514    1398.2815   -19995.796   -283.08476    237.95545    78.723614    22.624485    25.571737 
   28800    236.00084   -284.16427    216009.12   -18581.425    1372.4771   -19953.902   -662.17081    237.14592    78.723758    22.621792    25.586988 
   29000    243.71076     -297.571    216009.12   -18555.345    1417.3147   -19972.659   -673.35978    237.78333    78.723282    22.617759    25.597994 
   29200    246.34862   -296.52263    216009.12   -18555.347    1432.6553   -19988.002   -660.86693    237.52341     78.72038    22.615192    25.570884 
   29400    239.01397   -256.31592    216009.12   -18584.177    1390.0002   -19974.178   -517.10676    240.65872    78.719439    22.613831    25.550772 
   29600    232.12164   -205.92972    216009.12   -18552.794    1349.9174   -19902.712   -315.14041    245.07274    78.719768    22.613034     25.56588 
   29800    228.59644   -344.96852    216009.12   -18655.016    1329.4164   -19984.432   -920.97714     249.0725    78.720932    22.611167    25.541727 
   30000    238.30639   -130.67333    216009.12   -18689.208    1385.8852   -20075.093     3.268915    250.86936    78.722866    22.610866    25.560826 
   30200    239.32248   -477.25095    216009.12   -18646.255    1391.7944   -20038.049   -1421.6275    253.94633    78.725557    22.610778    25.548173 
   30400    238.64639    -268.6523    216009.12   -18618.113    1387.8625   -20005.976   -529.80482    253.14405      78.7286    22.610602    25.556783 
   30600    237.17141   -292.53589    216009.12   -18662.395    1379.2847   -20041.679    -657.5676    253.80414    78.730046    22.608347    25.544472 
   30800    235.73599    -354.4356    216009.12   -18587.792    1370.9369   -19958.729   -932.76901    256.42924    78.730978    22.605755    25.548608 
   31000    237.51629   -366.65297    216009.12   -18586.126    1381.2903   -19967.416   -1032.6538    255.40728     78.73096    22.605045    25.549661 
   31200    242.37716    -311.6766    216009.12   -18566.274     1409.559   -19975.833   -747.28878    255.12624    78.731829    22.604276    25.543132 
   31400    240.71088   -357.13135    216009.12    -18543.76    1399.8687   -19943.628    -992.3378    256.04089    78.730619    22.603981    25.547176 
   31600    238.80496   -380.73527    216009.12   -18602.048    1388.7846   -19990.833   -971.19673     256.8735    78.730934    22.604061     25.55106 
   31800    243.45903   -131.68709    216009.12   -18516.847    1415.8507   -19932.697   -5.2164613    256.13179    78.730973    22.604239     25.55948 
   32000    232.41742   -391.60018    216009.12   -18636.421    1351.6375   -19988.058   -1097.3754    258.05909    78.732517    22.604542    25.558656 
   32200     234.6954   -426.45383    216009.12   -18612.269    1364.8853   -19977.154   -1264.8868    259.44272    78.731317    22.602972    25.570876 
   32400    229.78547   -434.83642    216009.12   -18616.805    1336.3313   -19953.137   -1267.9882    258.71203    78.731478    22.602529    25.586057 
   32600    241.20824   -293.32373    216009.12   -18551.795    1402.7611   -19954.556   -695.87069    259.55363    78.735235    22.601902    25.574279 
   32800     239.7423   -295.81793    216009.12   -18533.388    1394.2358   -19927.624   -671.45878     262.3121    78.735659    22.602145    25.601781 
   33000    242.06519   -316.38787    216009.12   -18526.068    1407.7447   -19933.812   -778.18209     262.9822    78.734086    22.602902    25.583043 
   33200    239.49619   -308.13305    216009.12   -18583.092    1392.8046   -19975.896    -679.4784    263.37052    78.733332    22.601987    25.584775 
   33400    238.03697    -271.0548    216009.12   -18649.173    1384.3184   -20033.492   -580.81344    262.98081    78.732993     22.59959    25.570775 
   33600    234.92709   -349.53893    216009.12   -18642.356    1366.2327   -20008.588    -913.7456    266.36594    78.732431    22.599657    25.580073 
   33800    246.81008   -430.12325    216009.12   -18500.911    1435.3389    -19936.25    -1284.448      270.923    78.732746     22.60178    25.554709 
   34000    239.96487   -332.52663    216009.12    -18611.86    1395.5302    -20007.39   -884.26338    269.41384    78.731861    22.601271    25.557849 
   34200    237.30878   -351.25136    216009.12   -18581.304    1380.0836   -19961.387   -885.63118    269.49915    78.731138    22.599581    25.553708 
   34400    234.58753   -212.30245    216009.12   -18608.302     1364.258    -19972.56   -348.15655    268.39846    78.730726    22.600224    25.561304 
   34600     242.2841   -498.61812    216009.12   -18507.893    1409.0178   -19916.911   -1529.7041    269.92575    78.729704    22.602325    25.561862 
   34800    236.16462   -265.88593    216009.12   -18618.799    1373.4296   -19992.229   -552.92732    270.58319    78.731379    22.600771    25.564235 
   35000    238.82719    -185.7472    216009.12   -18611.126     1388.914    -20000.04   -190.58188    273.42965    78.731283    22.599332    25.546723 
   35200    246.63229   -320.80488    216009.12   -18529.304     1434.305   -19963.609   -791.64063    274.28508    78.730724     22.59889    25.554179 
   35400    246.75489    -186.1293    216009.12   -18569.044     1435.018   -20004.062   -179.40935    275.08713    78.730445    22.595356    25.550224 
   35600    241.34204    -177.9232    216009.12   -18603.236    1403.5392   -20006.775   -182.14101    274.19101    78.730259    22.593257     25.54517 
   35800    243.25406   -371.86849    216009.12   -18525.577    1414.6587   -19940.235   -972.05323    274.57892    78.729824    22.591214     25.50997 
   36000    234.41063   -329.03909    216009.12   -18637.408    1363.2292   -20000.637   -798.47533    277.23459     78.73159     22.58967    25.519819 
   36200    244.44171   -373.12302    216009.12   -18588.372    1421.5656   -20009.937   -1007.9815    277.31237     78.73226    22.590207    25.512137 
   36400    246.66129   -333.69978    216009.12   -18590.889    1434.4736   -20025.362   -840.66859    276.78751     78.73144    22.588504    25.511024 
   36600    239.26696   -547.11291    216009.12   -18618.187    1391.4715   -20009.659   -1741.4061    276.32986    78.730156    22.586283    25.508038 
   36800    235.31248   -262.94762    216009.12   -18678.546    1368.4739    -20047.02   -535.91372    276.18584    78.728466    22.585277    25.508586 
   37000    236.79101   -311.09833    216009.12   -18637.892    1377.0724   -20014.964   -770.14957    277.54194    78.731035    22.585656    25.488149 
   37200    239.66284   -220.05262    216009.12   -18657.329    1393.7737   -20051.103   -389.25586    278.79252    78.732496    22.587117     25.46999 
   37400    241.36891    -343.4136    216009.12    -18652.86    1403.6955   -20056.555   -910.45796    280.98523    78.731735    22.588119    25.480674 
   37600    238.67836   -321.16266    216009.12     -18649.2    1388.0484   -20037.249   -820.10089     282.4963    78.731352    22.588886    25.493193 
   37800    231.22234   -175.55425    216009.12   -18682.706    1344.6875   -20027.394   -193.24906    285.82605    78.731334    22.591443    25.497583 
   38000    238.45883   -407.91467    216009.12   -18635.464    1386.7717   -20022.235   -1181.4244     289.5211    78.730463    22.592142    25.484026 
   38200    245.94419   -203.94141    216009.12   -18621.944    1430.3033   -20052.247   -324.50498    289.10582     78.73125    22.594069    25.482411 
   38400    241.03847   -373.36371    216009.12   -18560.608    1401.7738   -19962.382   -996.47266    287.20443    78.730162    22.595298    25.471855 
   38600    241.29721   -190.70845    216009.12   -18609.402    1403.2785    -20012.68   -257.84942    287.22809    78.730391    22.598117    25.488072 
   38800    238.38586   -355.87305    216009.12   -18589.581    1386.3474   -19975.929   -975.03469    288.08662    78.731893    22.600224    25.498287 
   39000    244.31908   -330.20104    216009.12   -18584.385    1420.8524   -20005.237   -844.12217    290.19519    78.732339    22.599954    25.522581 
   39200    234.82041   -308.81003    216009.12   -18647.109    1365.6123   -20012.721   -737.75189    292.46267    78.730911    22.601547    25.544901 
   39400    247.80052   -341.22474    216009.12   -18602.776    1441.0989   -20043.874   -860.18612    293.33557     78.73172    22.603261    25.564019 
   39600    244.64712   -386.86741    216009.12   -18579.522    1422.7601   -20002.282   -1064.6849    294.83691    78.731702    22.602471    25.572962 
   39800    239.43186   -163.33928    216009.12   -18645.642    1392.4304   -20038.073   -116.09781    296.33269    78.730272    22.601118    25.565481 
   40000      242.096   -334.12123    216009.12   -18594.679    1407.9239   -20002.603   -849.46547    298.21599    78.731899    22.597051    25.548485 
   40200    239.89273    -200.8615    216009.12   -18600.951    1395.1106   -19996.062   -239.64956    296.40497    78.732089    22.598562    25.544925 
   40400    242.77698   -255.27024    216009.12   -18660.311    1411.8842   -20072.195   -513.99882    296.15643    78.734856    22.600641    25.553454 
   40600    233.77478     -137.458    216009.12   -18574.187    1359.5313   -19933.718   -23.672345    298.97702    78.735677    22.602427    25.551625 
   40800    238.77491   -444.10267    216009.12   -18645.732    1388.6099   -20034.342   -1344.1901    301.74212    78.735501     22.60411     25.53259 
   41000    238.93732   -304.73496    216009.12   -18593.665    1389.5544   -19983.219   -712.03946    301.83898    78.736003    22.605943    25.543486 
   41200    252.97246   -152.02686    216009.12   -18544.734    1471.1766    -20015.91   -79.288854    304.08358    78.736368    22.605402    25.536366 
   41400    237.74792   -333.59633    216009.12   -18587.135    1382.6374   -19969.772   -840.05236    308.51274    78.735987    22.605596    25.542057 
   41600    242.80766   -377.25565    216009.12   -18557.669    1412.0626   -19969.732   -991.71749     307.9776    78.734972    22.604252    25.541833 
   41800    243.57587   -281.02539    216009.12   -18536.993    1416.5302   -19953.524   -609.31574    309.81919    78.735072    22.605945    25.543729 
   42000    243.21102   -133.12382    216009.12   -18558.867    1414.4084   -19973.275     2.242044    312.11547    78.735459    22.605696    25.532883 
   42200    231.64797   -277.80363    216009.12   -18608.036    1347.1627   -19955.198   -599.55732    313.85429    78.733782     22.60865    25.525284 
   42400    237.16093   -305.81617    216009.12   -18561.289    1379.2237   -19940.513   -705.85374    314.46836    78.735257    22.607707     25.53779 
   42600     240.7104   -401.68745    216009.12    -18580.13    1399.8658   -19979.996   -1162.3979    315.29961    78.733884     22.60895    25.546111 
   42800    241.75275   -283.40538    216009.12   -18552.601    1405.9277   -19958.528   -664.34124    318.52762    78.732584    22.609521    25.559222 
   43000    243.87837   -462.48328    216009.12    -18567.44    1418.2894    -19985.73   -1451.2593    320.42569    78.733328    22.610826     25.56583 
   43200    240.11659   -226.07615    216009.12   -18551.769    1396.4125   -19948.181   -411.78367    321.24228    78.732972    22.610352    25.576601 
   43400    241.62167   -290.59271    216009.12   -18530.553    1405.1654   -19935.718   -681.84634    323.87779     78.73428    22.609294    25.590638 
   43600    233.98586   -142.31541    216009.12    -18576.07    1360.7589   -19936.829   -54.789398    323.62557    78.732984    22.610246    25.569509 
   43800    242.85439   -245.90071    216009.12   -18631.385    1412.3343   -20043.719   -518.09991    322.35022    78.733364    22.608643    25.561964 
   44000    236.38409   -437.63137    216009.12   -18639.852     1374.706   -20014.558   -1324.8898    322.02087    78.735439    22.607465    25.564987 
   44200    237.03121   -422.49023    216009.12   -18594.663    1378.4693   -19973.132   -1235.7842    321.93517    78.735641    22.607198    25.574557 
   44400    236.80789   -250.53295    216009.12   -18616.463    1377.1706   -19993.633   -471.69434    322.36423    78.734956     22.60575    25.595919 
   44600    241.40344   -234.70567    216009.12   -18639.006    1403.8963   -20042.903    -461.6786    324.51924    78.735072    22.606069    25.572952 
   44800     243.0911   -271.50082    216009.12   -18644.278     1413.711   -20057.989    -577.8731    326.79169    78.733705    22.607694    25.596162 
   45000     243.9171   -356.43711    216009.12   -18615.104    1418.5146   -20033.618   -968.08229    328.28669    78.734597    22.607938    25.566016 
   45200    240.27753   -341.86637    216009.12   -18582.259    1397.3485   -19979.607   -896.10759    328.87758    78.738099    22.608098    25.563228 
   45400    230.98336   -331.22117    216009.12   -18627.578    1343.2977   -19970.876    -863.1353     330.6968    78.739806    22.609888      25.5597 
   45600    241.61763   -366.81233    216009.12   -18520.278    1405.1419   -19925.419   -984.54152    333.20353    78.742249    22.609936    25.569798 
   45800    233.90959    -260.4266    216009.12   -18542.398    1360.3154   -19902.714   -551.41675    338.56204    78.740541    22.611541    25.543817 
   46000    244.08289   -433.83077    216009.12   -18489.005    1419.4788   -19908.484   -1254.1063     340.6207    78.739239    22.611512    25.537659 
   46200    243.70814   -240.52603    216009.12   -18484.766    1417.2994   -19902.065   -477.92639     341.9275    78.738877    22.611596     25.53916 
   46400    235.33281   -295.42907    216009.12   -18583.422    1368.5922   -19952.014   -656.93597    344.59818    78.739307    22.611923    25.529973 
   46600    232.55938   -190.98749    216009.12   -18557.238    1352.4631   -19909.701   -261.04521    351.73777    78.739709     22.61223     25.53325 
   46800    243.70657   -250.07085    216009.12    -18518.98    1417.2903   -19936.271   -483.91226      356.145     78.73563    22.612997    25.546276 
   47000    244.97563   -254.45194    216009.12   -18527.674    1424.6706   -19952.344   -531.56343    359.73615    78.735308    22.613251    25.553569 
   47200    239.73539   -285.27979    216009.12   -18650.643    1394.1956   -20044.839   -599.71787    357.38868    78.735342    22.614417    25.550941 
   47400    239.71276   -402.95895    216009.12   -18600.362     1394.064   -19994.426   -1098.4362    356.07479    78.733409    22.613017    25.571829 
   47600    239.98144   -334.53582    216009.12   -18610.189    1395.6266   -20005.815   -860.07495    354.50599    78.735389    22.611569    25.591575 
   47800    239.54239   -157.60882    216009.12   -18569.562    1393.0732   -19962.635   -122.15888    354.68368     78.73548    22.611261    25.586437 
   48000    237.93694   -220.11828    216009.12   -18603.608    1383.7367   -19987.345   -362.83214    353.99026    78.737239    22.608623     25.57585 
   48200    234.66639    -449.7052    216009.12   -18609.399    1364.7166   -19974.115   -1334.6818    354.21878    78.735312    22.608599    25.585764 
   48400    237.25373   -308.01672    216009.12   -18558.271    1379.7634   -19938.035    -743.3201    355.34851    78.734247    22.607885    25.563066 
   48600    236.58486   -294.15478    216009.12   -18648.711    1375.8736   -20024.584   -721.18499    354.67875    78.735759    22.608853    25.565274 
   48800    234.25641   -272.14799    216009.12   -18629.244    1362.3323   -19991.576   -541.81766    353.44767    78.733351     22.61173    25.564782 
   49000    240.62063   -178.95175    216009.12   -18583.064    1399.3438   -19982.408   -187.31011    351.77365    78.736503    22.609703    25.578851 
   49200    244.99136   -342.44557    216009.12   -18564.112    1424.7621   -19988.874   -886.67727    353.22523    78.735233    22.611674    25.562518 
   49400    233.69565   -375.74811    216009.12   -18644.767    1359.0712   -20003.838    -1006.515    355.12773    78.734402    22.613862    25.546028 
   49600    239.85816   -283.27304    216009.12   -18624.714    1394.9096   -20019.624   -607.81701    355.61957    78.735089    22.612418    25.547964 
   49800    247.04737   -311.40219    216009.12   -18619.151    1436.7189    -20055.87   -745.30627    355.56715    78.736405    22.611183    25.536841 
   50000    236.12043   -280.66421    216009.12   -18638.469    1373.1726   -20011.642   -636.39365    354.13399    78.737037    22.609968    25.547805 
   50200    248.41523   -261.72802    216009.12   -18601.957    1444.6737   -20046.631    -535.0696    356.00388    78.738008    22.609323    25.572015 
   50400    241.05883   -304.56976    216009.12   -18605.773    1401.8922   -20007.665   -697.70723    357.53975    78.735132    22.608492    25.572752 
   50600    248.99038   -242.60327    216009.12   -18509.821    1448.0186    -19957.84   -431.29087    361.40774    78.733361    22.606201    25.562835 
   50800    238.28593   -307.79029    216009.12   -18671.664    1385.7662    -20057.43   -728.23539    363.62952    78.732345    22.602564    25.539479 
   51000    237.18106   -467.43044    216009.12   -18615.193    1379.3408   -19994.534   -1404.1549     367.5573    78.731871    22.600808    25.526865 
   51200    234.69503   -352.54956    216009.12   -18646.736    1364.8831   -20011.619   -908.94311    369.82561    78.729836    22.599059    25.501509 
   51400    251.39578   -283.22717    216009.12   -18599.293    1462.0074   -20061.301   -645.74974    368.99395    78.730253    22.596292    25.514534 
   51600     238.8109   -408.98311    216009.12   -18638.022    1388.8192   -20026.841   -1131.7373    368.52777    78.729984    22.595387    25.516006 
   51800    236.21803   -291.54191    216009.12   -18582.084    1373.7402   -19955.825   -645.52578    367.90546    78.729404    22.595403    25.515353 
   52000    239.90482   -293.31472    216009.12   -18673.113     1395.181   -20068.294    -665.7802    368.01447    78.727029    22.595979    25.523368 
   52200    231.94507   -387.57009    216009.12   -18667.175    1348.8906   -20016.066   -1073.9281    367.13429    78.727149     22.59406    25.505971 
   52400    232.12829    -375.5088    216009.12   -18687.606    1349.9561   -20037.562   -960.74875    366.18956    78.728206    22.593217    25.523569 
   52600    240.60341   -269.76709    216009.12    -18627.79    1399.2437   -20027.034   -583.84804      367.377    78.727224    22.593515    25.527523 
   52800    246.30159   -264.59434    216009.12   -18526.479    1432.3818   -19958.861   -519.40665    367.50187      78.7261    22.592814    25.550792 
   53000    245.72381   -267.26416    216009.12   -18506.414    1429.0217   -19935.435    -562.4408    367.83679    78.725315    22.594765    25.555517 
   53200    232.92295    -399.8222    216009.12   -18625.975    1354.5775   -19980.553   -1127.4787    367.71029    78.725261    22.594271    25.554976 
   53400    230.13496   -164.73009    216009.12   -18587.482    1338.3637   -19925.845   -83.833995    370.28778    78.723981    22.593872    25.564854 
   53600    229.06552   -440.17312    216009.12   -18615.199    1332.1444   -19947.344   -1252.8233    373.23399    78.722588    22.594499     25.58079 
   53800    237.28897   -214.30596    216009.12   -18605.234    1379.9684   -19985.203   -312.68849    374.02594    78.723049     22.59179     25.58334 
   54000    244.91367   -302.78819    216009.12   -18593.717    1424.3103   -20018.027   -697.52743    374.58974    78.722915      22.5888    25.580268 
   54200    244.07604   -432.63442    216009.12   -18548.162     1419.439   -19967.601   -1245.8761    374.39955    78.724451    22.587743     25.60768 
   54400     242.8346    -149.4816    216009.12   -18484.452    1412.2193   -19896.672    -66.63455    379.25072    78.723407     22.58479    25.601736 
   54600    245.82442   -404.79468    216009.12   -18518.314    1429.6068    -19947.92   -1157.5753    385.42977    78.721467    22.581722    25.565161 
   54800    242.81587   -268.45459    216009.12   -18537.291    1412.1104   -19949.401   -587.00931    389.19172    78.722422    22.580422     25.56052 
   55000    246.31209   -312.35646    216009.12   -18507.865    1432.4429   -19940.308   -754.71645    389.33212    78.719366    22.577714    25.584217 
   55200    230.08177   -195.84236    216009.12   -18652.807    1338.0545   -19990.861   -244.40984    390.30625    78.718604    22.578141    25.579324 
   55400    235.72682   -282.24805    216009.12   -18603.703    1370.8835   -19974.586   -624.85244    389.98259    78.718658     22.57964     25.55829 
   55600    242.33961   -214.54024    216009.12   -18605.958    1409.3406   -20015.299   -352.40726    391.47485    78.718256    22.581549    25.540593 
   55800    249.94769   -145.25097    216009.12   -18494.104    1453.5859    -19947.69   -11.012447    392.68966     78.71777    22.581195    25.525038 
   56000    245.16868   -378.61576    216009.12   -18559.784    1425.7933   -19985.577   -1005.0822    394.66529    78.715816    22.581091    25.514768 
   56200    235.83732   -344.62045    216009.12   -18549.904    1371.5262    -19921.43   -921.82334    395.83451    78.713189    22.579872    25.496186 
   56400    236.39595   -404.53923    216009.12    -18629.74    1374.7749   -20004.515   -1188.9987    395.15793    78.711972    22.578718    25.494118 
   56600    237.77941    -363.3788    216009.12   -18691.223    1382.8205   -20074.043   -926.82049    395.61032    78.711025      22.5802     25.47884 
   56800    238.14265   -353.66077    216009.12   -18623.559     1384.933   -20008.491   -898.62274    396.12083    78.710227    22.578814    25.466148 
   57000    237.80272   -187.95457    216009.12   -18703.112    1382.9561   -20086.068   -210.30465    398.41522    78.707671    22.577085    25.466285 
   57200    242.28563   -363.25726    216009.12   -18609.319    1409.0267   -20018.346   -974.80777    398.89947    78.705867    22.577426    25.469178 
   57400      233.248   -312.81773    216009.12   -18666.238    1356.4678   -20022.706   -730.08939    399.75798    78.708302    22.576703    25.456253 
   57600    233.83164   -243.87055    216009.12   -18683.206    1359.8621   -20043.068   -442.63575      399.864     78.70669    22.575117    25.447489 
   57800    241.90927   -301.41954    216009.12    -18614.65     1406.838   -20021.488   -716.14693    403.19211    78.705681    22.576194    25.452582 
   58000    241.01496   -323.22379    216009.12   -18602.684    1401.6371   -20004.321   -773.99821    406.57408     78.70287    22.579875    25.479346 
   58200    242.00839   -226.89392    216009.12   -18544.865    1407.4144   -19952.279   -376.94943    406.42312    78.699258    22.579875    25.482266 
   58400    245.48064   -292.24358    216009.12   -18565.613    1427.6075   -19993.221   -707.44065    404.53351    78.698525    22.579968    25.474674 
   58600    246.36388   -138.91079    216009.12   -18609.786     1432.744    -20042.53   -2.2146585     403.0114    78.698389    22.581723    25.483389 
   58800    236.22015   -363.00336    216009.12   -18570.602    1373.7526   -19944.354   -984.41536    401.46593    78.698901    22.581837    25.487807 
   59000    247.12438   -242.92406    216009.12   -18504.031    1437.1667   -19941.197   -461.69644     400.5701    78.698471    22.581004    25.497984 
   59200    232.59336   -143.58104    216009.12   -18576.814    1352.6608   -19929.475   -20.499565    401.85783    78.699832    22.578616    25.512316 
   59400    239.66185   -222.18522    216009.12   -18605.291     1393.768   -19999.059   -365.23318     402.5367    78.701175    22.578511    25.507599 
   59600    238.29441   -291.04944    216009.12   -18657.052    1385.8156   -20042.868   -704.09344    405.03048    78.703463    22.578268    25.502592 
   59800    237.95244   -389.41175    216009.12   -18610.686    1383.8268   -19994.513   -1084.0295    404.51864    78.705556     22.57912    25.521394 
   60000     244.4341     -255.624    216009.12   -18599.939    1421.5213    -20021.46   -516.58964    405.60082    78.704433    22.579322    25.533579 
   60200    239.53476   -301.74176    216009.12   -18636.466    1393.0289   -20029.495   -697.07264    406.20077    78.703475    22.578402     25.52736 
   60400    243.28723   -381.86158    216009.12   -18625.993    1414.8516   -20040.844   -1047.9608    406.66903    78.703729    22.577056    25.534099 
   60600    242.16657   -305.85814    216009.12   -18603.246    1408.3343   -20011.581   -691.50532    409.49059    78.701865    22.574575    25.520745 
   60800    246.99767   -359.05829    216009.12   -18571.024    1436.4299   -20007.454    -924.1813    411.77463    78.702173    22.573323    25.539984 
   61000    240.01101   -253.06291    216009.12   -18626.576    1395.7985   -20022.375   -464.97208    413.81183    78.704001     22.57253    25.547332 
   61200    250.22526   -405.64502    216009.12   -18551.294    1455.2001   -20006.494   -1141.9634    415.44589    78.704858    22.568664    25.564829 
   61400    243.37429   -260.27294    216009.12   -18598.268    1415.3579   -20013.626   -514.86082    418.36085    78.704173    22.569446    25.537038 
   61600    241.97574    -330.9313    216009.12   -18639.306    1407.2245    -20046.53   -789.15896    419.99506    78.704828    22.570485    25.513845 
   61800     239.6436   -231.39863    216009.12    -18649.66    1393.6618   -20043.322   -388.99939    422.27741    78.706426    22.570693    25.542281 
   62000    238.21986   -245.99761    216009.12   -18580.355     1385.382   -19965.737   -453.66875    423.24339    78.707635    22.570651    25.540754 
   62200    247.71642    -252.9633    216009.12   -18550.836    1440.6098   -19991.446   -494.53509    425.76858    78.709601    22.569992    25.539132 
   62400     250.1162   -470.64142    216009.12   -18587.829    1454.5659   -20042.395   -1438.8219    428.80847    78.708673    22.570992    25.527564 
   62600    233.80382   -324.17019    216009.12   -18621.301    1359.7003   -19981.002   -760.60188    431.59137     78.71056    22.573978     25.51908 
   62800    232.73605   -267.80868    216009.12   -18715.243    1353.4906   -20068.733   -551.91592    433.17346    78.712634       22.575    25.529039 
   63000    242.99387   -379.39748    216009.12   -18631.666    1413.1455   -20044.812    -1045.084     438.4438    78.713818    22.576213    25.529453 
   63200    240.47943   -183.16354    216009.12       -18659    1398.5226   -20057.523   -201.15044    441.64947    78.713504    22.577558    25.513547 
   63400    239.96256   -283.37652    216009.12   -18742.659    1395.5167   -20138.176   -611.65211    442.30841    78.713965    22.579318    25.516657 
   63600    233.76931   -122.41942    216009.12   -18712.573    1359.4995   -20072.072    71.671988    443.91205     78.71597    22.581198    25.540014 
   63800    237.46505   -495.08038    216009.12   -18739.511    1380.9923   -20120.504   -1544.2466    445.48489    78.718762    22.580247    25.537033 
   64000    241.88126   -353.67124    216009.12   -18654.765    1406.6751    -20061.44   -948.27455    448.44916    78.715844    22.577969    25.539897 
   64200    241.90881   -455.57456    216009.12    -18674.27    1406.8353   -20081.105   -1350.7963     451.2125    78.714402    22.579916     25.56528 
   64400    235.37244   -378.46646    216009.12   -18658.362    1368.8227   -20027.185   -1006.1303    449.92959    78.714704    22.580529    25.585457 
   64600    226.77855   -368.16889    216009.12   -18661.408    1318.8443   -19980.252   -964.33414    449.05419    78.716381    22.579541    25.575869 
   64800    238.23656   -341.08141    216009.12   -18648.494    1385.4791   -20033.974   -868.77665    448.68876    78.716025    22.580252      25.5933 
   65000    239.28035   -332.47416    216009.12   -18546.327    1391.5493   -19937.877   -851.20288    450.16718    78.714343    22.580229    25.598635 
   65200    239.54379   -432.58122    216009.12   -18594.691    1393.0814   -19987.773   -1274.3947    453.33712    78.711266    22.578979    25.584963 
   65400    239.30275   -292.79462    216009.12   -18612.829    1391.6796   -20004.509   -686.86075    452.40571    78.712666    22.578924    25.580282 
   65600    240.85874   -322.50974    216009.12   -18576.586    1400.7286   -19977.315   -782.28723    453.33534    78.713399    22.578121    25.566706 
   65800    236.23375   -351.02693    216009.12   -18581.934    1373.8316   -19955.765   -892.51563    452.20312    78.715038       22.576    25.553791 
   66000    238.20112   -479.19366    216009.12   -18590.904     1385.273   -19976.177   -1415.3126     454.3332    78.712901    22.574328    25.573812 
   66200    237.28908    -432.1634    216009.12   -18652.571     1379.969    -20032.54    -1257.146    458.15251    78.711847    22.575169    25.578717 
   66400    243.45787   -270.81297    216009.12   -18635.715     1415.844   -20051.559   -571.90094    458.64227    78.711381    22.575619    25.601366 
   66600    236.54258   -433.31508    216009.12   -18667.646    1375.6277   -20043.273   -1307.6614    457.63963    78.711437    22.575272    25.579772 
   66800    235.00697   -360.34491    216009.12   -18693.752    1366.6972   -20060.449   -967.88772    457.55537    78.710668    22.578022    25.611587 
   67000    235.53509   -301.99427    216009.12   -18735.362    1369.7685    -20105.13    -726.8609    456.65205    78.710074    22.577673    25.607431 
   67200    238.67182   -424.99708    216009.12   -18669.881    1388.0104   -20057.891   -1187.2241    459.64787    78.708498    22.578852    25.606883 
   67400    241.91082   -345.56409    216009.12   -18637.662     1406.847   -20044.509   -915.77967    462.24357    78.707736    22.578099     25.60022 
   67600    241.34563   -339.25617    216009.12    -18583.22    1403.5601    -19986.78   -846.98565    466.41575    78.703484    22.580074    25.606659 
   67800    241.07959   -219.98846    216009.12   -18640.834    1402.0129   -20042.847   -349.37763    467.00041    78.702255    22.580229    25.605485 
   68000    235.80068   -474.00967    216009.12   -18651.496    1371.3131    -20022.81   -1437.0861    469.14591    78.701452     22.58263    25.632195 
   68200    231.06466   -378.41157    216009.12    -18630.86    1343.7705   -19974.631   -1057.9664    471.18337    78.699765    22.582361    25.627917 
   68400    242.82226   -201.95021    216009.12   -18577.855    1412.1475   -19990.002   -281.92181    473.13569    78.697869    22.584252    25.621698 
   68600    231.65848    -301.3066    216009.12   -18614.704    1347.2239   -19961.928   -684.03236    476.55655    78.697873    22.585408     25.59582 
   68800    240.55177   -203.94305    216009.12   -18592.285    1398.9434   -19991.228   -280.79647    478.75686    78.699105    22.587125    25.591252 
   69000    241.54131   -199.12993    216009.12   -18616.814    1404.6981   -20021.512   -279.39298    479.83637    78.699352    22.586291    25.571956 
   69200    236.41647    -413.5303    216009.12   -18673.226    1374.8943   -20048.121   -1152.6646    481.71672    78.698879    22.586803    25.555484 
   69400    234.02504   -183.75563    216009.12   -18687.642    1360.9868   -20048.628    -153.1854    482.59421    78.700347    22.589074    25.553924 
   69600    247.10419   -229.19551    216009.12   -18519.086    1437.0494   -19956.135   -401.49851    481.75574     78.70209    22.586809    25.585004 
   69800    231.55983   -136.77404    216009.12   -18616.336    1346.6502   -19962.987    21.520132    482.51459     78.70208    22.585251    25.583985 
   70000    244.27755   -372.37863    216009.12   -18568.365    1420.6108   -19988.976   -992.33761    487.30811     78.70253    22.583739    25.588258 
   70200     241.0149   -237.70738    216009.12   -18544.698    1401.6367   -19946.335   -444.49638    492.01168    78.702387    22.586167    25.613859 
   70400    244.63543   -322.32918    216009.12   -18476.985    1422.6921   -19899.677   -786.01357    495.88715    78.702341    22.585519    25.606999 
   70600     246.4155   -343.65309    216009.12   -18589.701    1433.0442   -20022.745   -874.15928    496.45152    78.699967    22.585257    25.621054 
   70800    236.49449   -363.70405    216009.12   -18609.951     1375.348   -19985.299   -999.28285    496.05591    78.699768    22.584736     25.62129 
   71000    238.98171   -456.86249    216009.12   -18658.557    1389.8126    -20048.37   -1374.7272      499.913    78.704163    22.587371    25.623648 
   71200    244.28904   -306.57519    216009.12   -18622.545    1420.6777   -20043.223   -741.82871    499.89235    78.707298    22.589862    25.624063 
   71400     236.9957   -226.94847    216009.12   -18647.895    1378.2628   -20026.158   -399.99734    501.07188    78.708006    22.589358    25.642046 
   71600    239.40596   -441.98235    216009.12   -18606.389    1392.2798   -19998.669   -1309.4996    503.17346    78.710457    22.589666    25.659921 
   71800    233.44754   -268.68858    216009.12   -18685.311    1357.6283   -20042.939   -588.85568    501.54739    78.710335    22.589874    25.640699 
   72000    238.86537   -437.24525    216009.12   -18647.428     1389.136   -20036.564   -1295.4526    503.62883    78.712164    22.590011    25.644919 
   72200    243.97891   -165.99458    216009.12   -18517.155    1418.8741    -19936.03   -140.79748    505.82396    78.712434    22.589558     25.64587 
   72400    241.34158   -378.94566    216009.12   -18613.256    1403.5365   -20016.793   -993.03341    508.47939    78.713616    22.589409    25.619691 
   72600    242.87117   -175.61347    216009.12   -18591.355    1412.4319   -20003.787   -164.55767     508.2589    78.714589    22.588045    25.605117 
   72800    237.64226   -351.51417    216009.12    -18599.98    1382.0229   -19982.003   -893.58718    509.45865     78.71892    22.590125     25.61851 
   73000     234.9858   -187.47589    216009.12    -18614.31    1366.5741   -19980.884   -212.59879     514.5153    78.721163    22.591336    25.626014 
   73200    248.25505   -369.46172    216009.12   -18556.965    1443.7423   -20000.708   -1017.3411    518.50312    78.721623    22.591813    25.626795 
   73400    242.10091   -267.70063    216009.12   -18553.209    1407.9525   -19961.161   -582.67099    519.21932    78.720454    22.592486    25.624268 
   73600    235.98097   -171.15851    216009.12   -18561.411    1372.3616   -19933.773   -167.41907    516.95153    78.719963    22.594433    25.639576 
   73800    228.72081   -249.92186    216009.12    -18689.02    1330.1397   -20019.159   -502.47418    519.65442    78.719044    22.597076    25.662971 
   74000    240.01004    -434.6475    216009.12   -18711.174    1395.7929   -20106.966   -1300.3225    528.08261    78.719105    22.598932    25.682124 
   74200    234.04492   -376.37954    216009.12   -18628.211    1361.1024   -19989.313   -1030.9796    531.08026    78.718538    22.597722    25.690062 
   74400    235.77251   -283.85998    216009.12    -18578.77    1371.1493   -19949.919   -649.74411     528.9132    78.721051     22.59449     25.70047 
   74600    239.97506   -475.83493    216009.12   -18594.173    1395.5895   -19989.762   -1440.1945    530.19476    78.722717    22.593485    25.677549 
   74800    236.20158   -349.17599    216009.12   -18580.148    1373.6446   -19953.793    -899.2538    532.65686    78.722848    22.593901    25.689915 
   75000    234.77353   -369.05775    216009.12   -18617.511    1365.3396    -19982.85    -1018.366    533.28842     78.72328    22.593633    25.708622 
   75200    243.65005   -335.45758    216009.12   -18573.026    1416.9616   -19989.988   -809.65561    533.64528      78.7252    22.591082    25.686765 
   75400    239.79032   -500.91083    216009.12   -18631.975    1394.5151    -20026.49   -1587.7384    536.08003    78.725639    22.588298    25.667565 
   75600    240.63719   -391.33936    216009.12   -18615.423    1399.4401   -20014.863   -1061.4452    537.23871    78.724704    22.589581    25.662343 
   75800    242.00128   -284.76836    216009.12   -18555.432    1407.3731   -19962.805    -627.2103    541.35016    78.722486    22.588423    25.665074 
   76000    243.16757   -326.16433    216009.12   -18593.543    1414.1557   -20007.699   -802.93403    543.26484     78.72097    22.588319    25.660487 
   76200     239.6147   -408.38817    216009.12   -18715.082    1393.4938   -20108.576   -1190.2105    542.58822    78.718269    22.587361    25.676699 
   76400     236.8631   -360.45291    216009.12    -18656.32    1377.4917   -20033.812   -937.75989    544.16406    78.716939    22.587678    25.681841 
   76600    240.71165   -268.08791    216009.12   -18656.647    1399.8732    -20056.52     -583.596    541.61607    78.713374    22.587357    25.669313 
   76800    237.68256   -244.23836    216009.12   -18689.696    1382.2573   -20071.953   -441.52922      543.172    78.711477    22.585653    25.663797 
   77000    241.50745   -457.25684    216009.12   -18665.978    1404.5012   -20070.479    -1375.979    544.14953    78.710832    22.587351    25.672336 
   77200     246.4089   -266.95315    216009.12   -18663.965    1433.0058   -20096.971   -546.81426    544.98118    78.708938    22.588438    25.663878 
   77400     240.0708   -300.26097    216009.12   -18680.922    1396.1462   -20077.068   -690.12151    546.67096    78.707912    22.594491    25.647361 
   77600    231.60922   -402.88987    216009.12   -18689.644    1346.9374   -20036.581   -1144.7061     549.8417     78.70747    22.597238    25.656124 
   77800    242.72761   -358.43099    216009.12   -18654.787    1411.5971   -20066.384   -958.32295    551.23221    78.708216    22.597228    25.642698 
   78000     239.3342   -431.81236    216009.12   -18705.687    1391.8625   -20097.549   -1261.6706    552.35084    78.708682    22.599987    25.614225 
   78200    240.62065   -284.52962    216009.12   -18638.791    1399.3439   -20038.135   -601.70831    554.51607    78.708884    22.603689    25.595088 
   78400    239.77514    -343.2894    216009.12   -18657.745    1394.4268   -20052.172   -869.60988    554.28241    78.707868    22.606202    25.596643 
   78600    238.94848   -387.44413    216009.12   -18656.761    1389.6193   -20046.381   -1068.6352     554.5258    78.708378    22.609541    25.597951 
   78800    235.69813    -356.7952    216009.12    -18642.67    1370.7167   -20013.387   -938.79999    562.88881    78.709103    22.609986    25.600192 
   79000    242.32534   -251.62556    216009.12   -18603.064    1409.2577   -20012.321   -482.21121    562.56364    78.709721    22.611354    25.582123 
   79200    242.44004   -399.06842    216009.12   -18589.742    1409.9247   -19999.667    -1101.476      562.343    78.710838    22.609861    25.580217 
   79400    240.85959   -346.91589    216009.12   -18553.704    1400.7335   -19954.438   -922.87346    559.02007    78.713227     22.60682    25.559638 
   79600    235.52601   -406.54811    216009.12    -18643.34    1369.7157   -20013.055   -1149.7483     561.3228    78.712689    22.604454    25.561261 
   79800    242.44094   -295.75149    216009.12   -18634.265    1409.9299   -20044.195   -685.91171    559.97499     78.71339    22.603057    25.557974 
   80000    236.51503   -302.72842    216009.12   -18654.292    1375.4674   -20029.759   -714.89234    556.85962    78.714078    22.600204    25.583991 
   80200    240.30818   -250.75146    216009.12    -18621.93    1397.5267   -20019.457   -529.53326    557.72162    78.715196    22.597485    25.598129 
   80400    239.96044   -207.11371    216009.12   -18655.298    1395.5044   -20050.803   -306.64584    561.20618    78.717007    22.593703    25.581792 
   80600    236.24112   -353.75595    216009.12   -18601.207    1373.8745   -19975.081   -930.26081    561.69574    78.718066    22.591444       25.559 
   80800    239.22388   -300.30745    216009.12   -18596.132    1391.2209   -19987.353   -741.75936    559.63021      78.7161    22.591515    25.534571 
   81000    243.11455    -339.9526    216009.12   -18628.869    1413.8473   -20042.716   -897.85039    561.19186    78.711737    22.591606    25.542992 
   81200    242.06136   -245.70609    216009.12   -18635.064    1407.7224   -20042.786   -439.40218    562.63832    78.710866    22.593468    25.539522 
   81400    243.86923   -481.60358    216009.12   -18656.364    1418.2362     -20074.6   -1453.5584    562.87529    78.708545    22.594045    25.548328 
   81600    234.13286   -280.19991    216009.12     -18688.8    1361.6138   -20050.413   -632.91567    561.02963    78.706562    22.595459    25.549644 
   81800    228.94426   -346.22315    216009.12   -18756.952    1331.4391   -20088.392   -868.74988    563.36271    78.703412    22.595466    25.552459 
   82000    245.57682   -159.96282    216009.12   -18678.971    1428.1668   -20107.138      -118.29    563.05068    78.699514    22.591942    25.543673 
   82200    240.19492   -498.29608    216009.12   -18620.376    1396.8681   -20017.244   -1550.2069    563.12426    78.699645     22.59073    25.546079 
   82400    238.83981   -172.05952    216009.12   -18624.708    1388.9873   -20013.695   -186.02435    565.27708    78.698651    22.586603    25.556925 
   82600    238.22291   -440.65973    216009.12   -18520.679    1385.3997   -19906.079   -1282.7971    568.77832    78.698338    22.583498    25.536044 
   82800    240.30223   -247.09905    216009.12   -18627.373    1397.4922   -20024.865   -467.98424    573.60753    78.696641    22.583532    25.531518 
   83000    240.99081   -364.83533    216009.12   -18566.906    1401.4966   -19968.403   -954.94309    576.49085    78.694093    22.582146    25.513447 
   83200    244.41372   -202.69852    216009.12   -18575.223    1421.4027   -19996.626   -258.02406    576.97011    78.690845    22.578725     25.51705 
   83400    242.07049   -290.08902    216009.12   -18627.343    1407.7756   -20035.119   -633.06292    577.53675    78.690557    22.577739    25.562804 
   83600    236.92588   -266.96552    216009.12   -18693.837    1377.8567   -20071.694   -549.63668     580.4712    78.684194    22.578377    25.577941 
   83800    227.70479   -396.22385    216009.12   -18674.114     1324.231   -19998.345   -1110.9458    580.34229     78.68197    22.577657    25.595075 
   84000    237.97886   -355.04331    216009.12   -18606.611    1383.9804   -19990.592   -913.37408    581.22317    78.685026    22.579727      25.6149 
   84200    234.15729   -255.48519    216009.12   -18563.938    1361.7559   -19925.693   -461.27939    582.37908    78.688433     22.57856    25.589961 
   84400    239.94231   -210.01599    216009.12   -18621.783     1395.399   -20017.182   -248.74765    581.57492    78.690526    22.577721    25.574132 
   84600    250.44434   -357.93799    216009.12   -18564.935    1456.4742   -20021.409   -919.45025    584.87976    78.692222    22.578346    25.561714 
   84800    248.16124   -255.67483    216009.12   -18625.804    1443.1967       -20069   -477.68735    584.58218    78.691393    22.579227    25.555177 
   85000    238.98485   -273.05465    216009.12   -18658.091    1389.8308   -20047.922   -563.21098    588.82022    78.694727    22.579095    25.574973 
   85200      234.814   -309.09361    216009.12   -18649.523     1365.575   -20015.098   -692.19178    590.94684    78.694558    22.580499    25.573973 
   85400    230.61209   -165.29321    216009.12   -18662.364    1341.1385   -20003.503   -124.17148    594.19792    78.695161    22.580314    25.579632 
   85600    236.07745   -338.86556    216009.12   -18636.684    1372.9227   -20009.606   -839.64512    594.57158    78.694827    22.581758    25.592843 
   85800    242.56468    -491.3131    216009.12   -18588.321    1410.6496   -19998.971   -1485.3039    600.88369    78.694798    22.582027    25.612311 
   86000    240.70981   -387.23879    216009.12   -18643.556    1399.8624   -20043.418   -1027.1129    603.54385     78.69521    22.580961    25.615968 
   86200    243.10303   -424.08215    216009.12   -18636.415    1413.7803   -20050.196   -1199.2575    604.72423    78.694738    22.580832    25.601068 
   86400    233.28059    -126.8552    216009.12   -18704.617    1356.6573   -20061.274    16.508686    600.85549    78.693762    22.579439    25.600427 
   86600    247.74091   -339.49205    216009.12   -18575.343    1440.7522   -20016.095   -839.18733    602.61546    78.695107    22.580331    25.575639 
   86800    235.29265   -372.59501    216009.12     -18631.9    1368.3586   -20000.258   -997.99492    599.49862    78.693017    22.580313    25.557589 
   87000    239.24818   -275.48216    216009.12   -18619.454    1391.3622   -20010.817   -608.56399    600.12135    78.689728    22.581945     25.55039 
   87200    241.61054   -458.74942    216009.12   -18596.109    1405.1007    -20001.21   -1409.6339    602.81558    78.688962    22.582628    25.556801 
   87400      240.447   -51.710151    216009.12    -18608.59    1398.3341   -20006.924    375.89344    600.11451    78.688755    22.583604    25.559072 
   87600     235.4149   -96.523673    216009.12   -18614.579    1369.0696   -19983.648    185.71063    602.43832    78.687142    22.581748    25.580728 
   87800    235.27634   -374.88462    216009.12    -18632.29    1368.2638   -20000.554   -983.56764    601.85858    78.687558    22.581257     25.59782 
   88000    243.32856   -363.61498    216009.12   -18600.488    1415.0919   -20015.579   -994.30332      605.982    78.683028    22.582607    25.616215 
   88200    234.41705   -177.67295    216009.12   -18682.597    1363.2665   -20045.863   -167.09712    610.02741     78.68317    22.583895    25.624064 
   88400    236.02006   -282.23698    216009.12     -18560.3    1372.5889   -19932.889   -614.83226    615.36671    78.682972    22.584642    25.601506 
   88600    238.89783   -288.25728    216009.12   -18571.657    1389.3248   -19960.982   -656.55511    621.49291    78.682823     22.58789    25.597732 
   88800     231.3559   -378.54851    216009.12   -18653.126    1345.4642    -19998.59   -1050.3229    623.32945    78.683787     22.58704    25.588005 
   89000    239.68218   -366.44127    216009.12    -18593.01    1393.8862   -19986.896   -1006.5199    629.19529     78.68373     22.58675    25.560946 
   89200     238.1952   -183.75815    216009.12    -18567.06    1385.2386   -19952.298   -219.66741    631.19578    78.684129    22.589092    25.560338 
   89400    238.72182   -237.83586    216009.12   -18568.947    1388.3012   -19957.248   -414.72699    638.39002    78.681854    22.590133     25.56932 
   89600    233.06567   -304.30366    216009.12   -18636.942    1355.4075   -19992.349    -730.7699    643.36763     78.68157    22.590026    25.580859 
   89800    242.94212   -354.18363    216009.12   -18519.476    1412.8446    -19932.32   -922.92421    651.77873    78.681198    22.590526    25.603584 
   90000    242.66305   -325.40516    216009.12   -18509.024    1411.2216   -19920.246   -822.77174    659.32715    78.683242    22.589848    25.584079 
   90200    240.22986   -187.14831    216009.12   -18581.133    1397.0712   -19978.204   -197.91613    667.09543    78.683465    22.587579    25.573038 
   90400    240.99566   -323.02128    216009.12   -18542.965    1401.5248   -19944.489   -786.06169    669.57221    78.681527    22.587105    25.571827 
   90600     244.5464   -399.00882    216009.12   -18562.686    1422.1744   -19984.861    -1149.222    663.08072    78.682461    22.585187    25.584527 
   90800    238.83707   -251.63382    216009.12   -18589.032    1388.9714   -19978.003   -501.35593     660.9035    78.680859    22.584794    25.591201 
   91000    233.25572   -352.22838    216009.12   -18636.198    1356.5127    -19992.71   -935.42865    657.70376    78.682241    22.584166    25.586494 
   91200    233.04629   -281.38619    216009.12   -18707.252    1355.2948   -20062.547   -652.72902    660.64185    78.684462    22.583155    25.608649 
   91400    238.22838   -466.74337    216009.12   -18619.344    1385.4315   -20004.775   -1384.0318    664.30631    78.683798    22.582635    25.619637 
   91600    249.33562   -447.69441    216009.12   -18535.425    1450.0264   -19985.452   -1278.1492    669.59226    78.683991    22.581366    25.639288 
   91800    241.38776   -366.35392    216009.12   -18567.088    1403.8051   -19970.893   -958.37401    672.45821    78.683009    22.582048    25.632495 
   92000    238.34342   -401.84471    216009.12   -18584.439    1386.1006    -19970.54   -1105.3835    677.70017    78.680113    22.583716    25.628569 
   92200    239.17472    -237.4664    216009.12    -18596.67     1390.935   -19987.605   -428.16491    677.57798    78.678492    22.583702     25.59417 
   92400    242.14092   -273.57226    216009.12   -18559.197    1408.1852   -19967.382   -626.95388    677.67423    78.678595    22.584073    25.562032 
   92600    233.93303   -361.12392    216009.12   -18482.669    1360.4517    -19843.12   -922.14259     678.6243    78.676779    22.586116    25.580897 
   92800    241.09789   -322.89635    216009.12   -18563.792    1402.1194   -19965.911   -803.77681    679.64956    78.676595    22.588239    25.577736 
   93000    236.01431    -247.6316    216009.12   -18598.228    1372.5555   -19970.783   -459.22463     683.3505    78.673695    22.584821    25.591634 
   93200    243.47303   -355.87134    216009.12   -18597.089    1415.9321   -20013.021   -972.09931    686.49355    78.673861    22.584281    25.584715 
   93400    236.86413   -259.50533    216009.12   -18684.369    1377.4977   -20061.867   -568.20211     684.2397    78.672503    22.584244     25.58853 
   93600    233.33815   -333.75195    216009.12   -18659.679    1356.9921   -20016.671   -837.23469    684.05448    78.672332    22.582361    25.576181 
   93800    237.47502   -417.85603    216009.12   -18654.234    1381.0503   -20035.284   -1209.2812    689.43735    78.671801    22.582325    25.580968 
   94000    235.94454   -188.77948    216009.12   -18605.946    1372.1497   -19978.096   -233.72807    691.90668    78.672096    22.585008     25.56319 
   94200    240.59786    -446.0868    216009.12   -18536.716    1399.2114   -19935.927   -1290.3838    695.30625    78.669261     22.58325    25.571296 
   94400    244.21138   -300.22966    216009.12   -18545.241     1420.226   -19965.467   -745.97309    697.38038    78.667699    22.583228    25.563674 
   94600    240.74319   -395.76051    216009.12   -18592.721    1400.0565   -19992.777   -1113.2259    699.56362    78.667781     22.58292    25.538903 
   94800    236.15865   -291.89573    216009.12   -18602.686    1373.3949   -19976.081   -719.93787    696.76806    78.668981    22.581324     25.54649 
   95000    238.39498   -305.79335    216009.12   -18609.804    1386.4004   -19996.205   -756.32424    692.15806    78.667978    22.581084    25.573127 
   95200    241.20513   -259.23023    216009.12   -18578.108     1402.743   -19980.851   -543.83065    687.26965    78.670236    22.579596    25.541323 
   95400    238.59615   -177.87478    216009.12   -18595.982    1387.5703   -19983.552   -166.73396    680.78643    78.672663    22.581773    25.530606 
   95600     239.3827   -442.45235    216009.12   -18556.687    1392.1446   -19948.831   -1306.1857    682.00386    78.672686    22.580904    25.559917 
   95800    240.16953   -338.78367    216009.12    -18544.38    1396.7204   -19941.101   -892.04377    680.23362    78.674077    22.579938    25.548187 
   96000    243.76871   -318.64713    216009.12   -18521.029    1417.6516   -19938.681   -824.87834    677.05496     78.67464    22.577993    25.558622 
   96200    242.17964   -320.72918    216009.12   -18501.437    1408.4103   -19909.847   -757.76494    679.61575    78.676171    22.578391    25.581352 
   96400    246.98955   -276.43225    216009.12   -18543.999    1436.3826   -19980.382   -564.35217    682.71334    78.672761    22.578656    25.604469 
   96600    246.04623   -358.51122    216009.12   -18593.653    1430.8967    -20024.55    -939.4101    681.80725    78.672288     22.57987    25.605981 
   96800    238.16719   -349.01004    216009.12   -18591.194    1385.0757   -19976.269   -901.48582    678.45699    78.669421    22.581646    25.626598 
   97000    228.45394   -229.19702    216009.12   -18650.783    1328.5877   -19979.371   -411.19661    678.25248    78.668518    22.582773    25.622502 
   97200     236.1469   -421.80286    216009.12   -18623.537    1373.3265   -19996.863   -1227.2392    681.78254    78.668247    22.580651     25.62924 
   97400    244.13209   -407.50607    216009.12   -18552.797    1419.7649   -19972.562   -1225.7319    679.29096    78.666885    22.579893    25.636239 
   97600    247.35099    -452.3995    216009.12   -18496.529    1438.4846   -19935.013   -1375.3382    678.90852    78.664462    22.579129    25.649529 
   97800    237.74346   -244.95872    216009.12   -18524.772    1382.6115   -19907.383   -481.03775    677.49409    78.662851    22.578521    25.668787 
   98000    240.96295   -383.18791    216009.12   -18560.821    1401.3346   -19962.156   -1010.9838    678.28704    78.662522    22.580233    25.681417 
   98200    235.46718   -326.12836    216009.12   -18613.386    1369.3736   -19982.759   -794.58506    674.54748    78.663853    22.581717    25.691405 
   98400    241.55298   -217.48887    216009.12   -18578.035    1404.7659     -19982.8   -390.77935    671.56012    78.663979    22.581533    25.680743 
   98600    242.09726   -476.87119    216009.12   -18588.773    1407.9312   -19996.704   -1438.0381    671.63403    78.662557    22.577724    25.688259 
   98800    244.34645   -382.73644    216009.12   -18529.719    1421.0115   -19950.731   -1031.1691    670.76296    78.663704    22.576671    25.707433 
   99000    240.49051   -337.74094    216009.12   -18571.305    1398.5871   -19969.892   -796.05452    669.46134    78.665076    22.577161    25.694339 
   99200     245.8155   -221.05549    216009.12   -18547.795    1429.5549    -19977.35   -346.41587    668.55724    78.664407    22.577554    25.691711 
   99400    225.87511   -360.15852    216009.12   -18600.624    1313.5903   -19914.214   -973.45896    668.02916    78.665098    22.576282    25.686783 
   99600    238.91043   -423.48731    216009.12   -18552.562     1389.398    -19941.96   -1210.9043    669.92125    78.664285    22.575816    25.682425 
   99800    231.77671   -393.13432    216009.12   -18601.519    1347.9115    -19949.43   -1124.5011     673.9613    78.663568    22.574401    25.667716 
  100000    236.39986   -270.29385    216009.12   -18580.135    1374.7977   -19954.932   -603.67538     672.5857     78.66126    22.574139    25.672519 
  100200    237.57176   -247.54736    216009.12   -18607.239    1381.6129   -19988.852   -501.48813    667.90143    78.661042    22.573741    25.688024 
  100400    243.03558   -203.20788    216009.12   -18539.641    1413.3881   -19953.029   -292.97361    665.81286    78.661646    22.573831    25.665505 
  100600    241.30776   -282.86931    216009.12    -18582.45    1403.3398    -19985.79   -615.63774    664.47999    78.663584    22.573887    25.665192 
  100800    237.66412   -344.94298    216009.12   -18632.675    1382.1501   -20014.825   -856.24879    666.97728    78.665309    22.576001    25.659868 
[...]
 5175800    227.62502    -707.8922    216009.12    -20621.28    1323.7671   -21945.047   -2367.3569    6815.5051    78.159544    22.438149    25.477008 
 5176000     226.8172   -623.51132    216009.12   -20614.413    1319.0691   -21933.482   -2004.3014    6816.7799    78.159577    22.438992    25.478293 
 5176200    226.85822   -570.54991    216009.12   -20629.152    1319.3077   -21948.459   -1757.4716    6815.1074    78.158215    22.441584    25.479734 
 5176400    223.71703   -645.16511    216009.12   -20651.397    1301.0399   -21952.437   -2113.4562    6814.6963    78.157549    22.442596    25.476601 
 5176600     225.3988   -669.79251    216009.12   -20608.081    1310.8203   -21918.901   -2187.4704    6817.9974    78.156785    22.444535    25.476161 
 5176800    230.50196   -590.12175    216009.12   -20583.286    1340.4981   -21923.784   -1871.9558    6814.5769    78.157525    22.446022    25.486926 
 5177000    236.39279   -619.33778    216009.12   -20579.055    1374.7566   -21953.811   -1997.2847    6814.3405    78.158887    22.447487    25.485517 
 5177200    232.10062   -639.70521    216009.12   -20601.244    1349.7952    -21951.04   -2079.6574    6816.9848    78.158365    22.449376    25.479698 
 5177400    227.75892   -583.60244    216009.12   -20626.821    1324.5457   -21951.366   -1831.8457    6814.8974      78.1591    22.450217    25.472987 
 5177600    234.65304   -629.67766    216009.12   -20565.343    1364.6389   -21929.982    -2067.101    6815.6103    78.159404    22.451072    25.478066 
 5177800     235.7209   -652.50511    216009.12   -20602.846    1370.8491   -21973.695   -2112.3362    6819.1403    78.159779    22.451389    25.478306 
 5178000    227.03604   -547.13768    216009.12   -20623.758    1320.3418     -21944.1   -1668.4368    6814.8002    78.159647    22.450933    25.479752 
 5178200    221.87267   -651.07894    216009.12   -20621.934    1290.3139   -21912.248   -2095.7935    6815.6991    78.159719    22.451488    25.479039 
 5178400    225.26035   -760.30456    216009.12   -20638.565    1310.0152    -21948.58   -2627.5486    6818.5778    78.159496     22.45231    25.474223 
 5178600    221.04924   -692.86141    216009.12   -20634.653    1285.5252   -21920.178   -2320.6546    6818.0522    78.159735    22.453333     25.47659 
 5178800    234.68766   -628.09705    216009.12   -20589.799    1364.8402   -21954.639   -2036.7663    6815.1311    78.160719    22.456336    25.478673 
 5179000     224.2037   -659.04841    216009.12   -20612.956    1303.8701   -21916.826    -2114.742    6816.6055    78.159899    22.456264    25.483347 
 5179200    235.51797   -608.83012    216009.12   -20586.088     1369.669   -21955.757   -1928.0644    6814.1047    78.159251    22.456421    25.483391 
 5179400    223.79475   -648.82831    216009.12   -20643.013    1301.4919   -21944.505    -2117.689    6816.1992    78.158358    22.456755    25.474425 
 5179600    227.87007   -705.60089    216009.12   -20537.928    1325.1922    -21863.12   -2385.8294    6816.0438    78.158892    22.455346    25.472876 
 5179800    227.56183   -648.58685    216009.12   -20600.223    1323.3996   -21923.623    -2140.234    6816.5348    78.158847     22.45609    25.477415 
 5180000    223.22558   -703.91394    216009.12   -20628.358    1298.1818    -21926.54   -2370.7233    6815.3213    78.158725    22.455832    25.475439 
 5180200    221.61332   -695.41019    216009.12   -20689.563    1288.8056   -21978.369   -2299.5775    6814.5895    78.157345    22.454732    25.483487 
 5180400     218.6738   -632.12596    216009.12   -20660.026    1271.7107   -21931.736   -2024.8805    6816.6605    78.156645    22.455176    25.476098 
 5180600    224.12054   -630.79265    216009.12   -20605.378    1303.3866   -21908.765   -2045.8024    6816.1298    78.157936    22.455028    25.473107 
 5180800    227.36129   -706.58171    216009.12   -20585.938    1322.2333   -21908.171   -2367.3659    6816.9265    78.157696    22.454827    25.475816 
 5181000    222.86154   -688.43568    216009.12   -20625.737    1296.0647   -21921.801   -2270.4509    6813.8464    78.158014    22.456148    25.480393 
 5181200    225.25478   -617.73903    216009.12   -20631.032    1309.9828   -21941.014   -1971.9167    6813.6167    78.158799    22.456341    25.475676 
 5181400    222.39324   -723.55958    216009.12   -20670.564    1293.3413   -21963.906   -2403.7576    6817.2252    78.158372    22.457861    25.475206 
 5181600    230.06765   -672.86493    216009.12   -20605.342    1337.9723   -21943.314   -2238.0388    6816.0111    78.158875    22.458796    25.477263 
 5181800    223.90747   -638.86476    216009.12   -20683.196    1302.1474   -21985.343   -2124.2765    6813.7139    78.158779    22.459319    25.478317 
 5182000    227.54085   -732.62331    216009.12   -20593.906    1323.2776   -21917.184   -2513.1866    6816.8772    78.158879    22.457865    25.481664 
 5182200    228.92228   -697.14194    216009.12    -20596.01    1331.3114   -21927.321   -2337.0423    6816.9069    78.158311    22.458279     25.47658 
 5182400    231.26172   -555.68722    216009.12   -20591.012    1344.9165   -21935.929   -1716.6742    6813.8455    78.158065    22.458145    25.472847 
 5182600    219.62535    -706.3319    216009.12   -20678.534    1277.2445   -21955.779   -2376.7501     6816.703    78.157797    22.458274     25.47651 
 5182800    231.37178   -648.63488    216009.12   -20622.863    1345.5566    -21968.42   -2110.7991     6816.134    78.156329     22.45889    25.474516 
 5183000    229.94997   -597.96544    216009.12   -20610.655    1337.2879   -21947.943   -1918.3377    6814.8331    78.156013      22.4594    25.474044 
 5183200    233.94857   -682.14658    216009.12   -20569.648     1360.542    -21930.19   -2269.6664    6815.6923    78.155535    22.460296     25.48258 
 5183400    228.97322   -719.18683    216009.12   -20579.866    1331.6076   -21911.473   -2455.6266    6818.0127    78.154559      22.4605    25.479419 
 5183600    221.53548   -643.75783    216009.12   -20655.498     1288.353   -21943.851   -2102.8554    6815.7057    78.155173    22.461363    25.477044 
 5183800    220.60311   -696.60657    216009.12    -20685.13    1282.9307   -21968.061   -2361.8966    6815.7964    78.153669    22.461758    25.477948 
 5184000    220.93115   -729.10785    216009.12   -20684.094    1284.8385   -21968.933   -2502.5193    6817.6727    78.152675    22.462979    25.474913 
 5184200    230.37646   -697.62574    216009.12   -20570.822    1339.7682    -21910.59   -2369.1737    6818.2164    78.151697    22.463686    25.475016 
 5184400    221.48385   -614.98466    216009.12   -20626.226    1288.0527   -21914.279   -2001.6318    6815.4824    78.151133    22.464349    25.473881 
 5184600    233.90421   -749.40788    216009.12   -20574.687    1360.2841   -21934.971    -2557.212    6816.4312    78.150369    22.464042    25.473656 
 5184800    225.64138   -651.94565    216009.12   -20624.093    1312.2311   -21936.324   -2173.3234     6816.024    78.151077    22.464297    25.477479 
 5185000    220.63055   -611.95387    216009.12   -20632.895    1283.0903   -21915.985   -1950.5176    6814.9506    78.150452    22.462356    25.482966 
 5185200    230.17899   -662.24956    216009.12   -20614.466    1338.6198   -21953.086   -2165.0004    6816.7747    78.151827    22.461792    25.479677 
 5185400    222.80088   -665.48396    216009.12   -20654.357     1295.712   -21950.069   -2194.3271    6814.0405    78.151843    22.461644    25.480163 
 5185600    225.90801   -622.71168    216009.12   -20612.557    1313.7817   -21926.339   -1982.4848    6813.2382    78.153136     22.46166    25.475731 
 5185800    228.86152   -611.92187    216009.12   -20633.199     1330.958   -21964.157    -1942.451     6816.007    78.153426    22.462165    25.482166 
 5186000    232.33297   -585.50358    216009.12    -20591.44    1351.1464   -21942.586   -1880.9323    6813.1054    78.153291    22.461133    25.478741 
 5186200    226.90826   -612.36441    216009.12   -20600.473    1319.5987   -21920.072   -1930.2243    6813.5394    78.154597    22.460302    25.474246 
 5186400     227.0809   -688.07228    216009.12   -20614.717    1320.6027    -21935.32   -2295.2709    6815.7266    78.154597    22.459267    25.475539 
 5186600      227.607   -637.15175    216009.12   -20607.031    1323.6623   -21930.693   -2095.3491    6816.1556    78.156404     22.46007    25.484992 
 5186800    225.67272   -640.22627    216009.12   -20600.824    1312.4133   -21913.237   -2077.9813    6813.2575    78.157623    22.460795    25.484438 
 5187000    230.84347   -650.43845    216009.12    -20623.09    1342.4841   -21965.574   -2112.1105    6813.7245    78.159186    22.461318    25.480243 
 5187200    229.18315   -600.18523    216009.12   -20581.525    1332.8284   -21914.353   -1898.3323    6814.1814    78.160501    22.462309    25.485592 
 5187400    229.97849   -604.10828    216009.12   -20598.062    1337.4538   -21935.516    -1923.676    6812.6163    78.160178    22.463538    25.482213 
 5187600    220.28119   -619.76604    216009.12   -20637.516    1281.0586   -21918.574   -1956.7966    6814.8483    78.159201    22.463138    25.477544 
 5187800    224.26497    -648.7853    216009.12   -20596.367    1304.2265   -21900.594   -2141.5368    6815.5757    78.158703    22.463083    25.476524 
 5188000    231.77856   -624.38192    216009.12   -20613.921    1347.9222   -21961.843   -2030.9738    6812.9817    78.159096     22.46374    25.482486 
 5188200    229.05571   -598.58258    216009.12   -20564.561    1332.0873   -21896.649   -1916.6848    6814.3395    78.158982    22.463608    25.482626 
 5188400    225.11443    -671.1201    216009.12   -20597.095    1309.1665   -21906.261   -2225.1599    6813.8984    78.160348     22.46372    25.485479 
 5188600    227.66467   -624.14506    216009.12   -20608.992    1323.9976   -21932.989   -2022.9855    6812.9691    78.160291    22.462713    25.478304 
 5188800     219.4889   -690.83674    216009.12   -20656.964     1276.451   -21933.415   -2292.5282     6815.635    78.161242    22.461422    25.482927 
 5189000     222.2324   -642.36132    216009.12   -20643.429     1292.406   -21935.835   -2081.9158    6813.7463    78.162191    22.461552    25.479732 
 5189200    223.06002    -626.1552    216009.12   -20641.383     1297.219   -21938.602   -2054.6532    6814.8332    78.162799    22.461541    25.479028 
 5189400    219.18606   -677.45651    216009.12   -20698.083    1274.6898   -21972.772   -2231.8062    6814.8257    78.164457     22.46233    25.481524 
 5189600    217.61187   -678.51222    216009.12    -20649.83     1265.535   -21915.365    -2241.751    6813.3537     78.16441    22.463588    25.481223 
 5189800    229.52819   -671.91472    216009.12   -20604.155     1334.835    -21938.99   -2230.6816    6813.5398    78.163795    22.464699    25.488045 
 5190000    219.19842   -645.09124    216009.12    -20631.49    1274.7617   -21906.252   -2042.5157    6815.5302    78.165077    22.464987    25.488692 
 5190200     229.1228   -601.01737    216009.12   -20618.231    1332.4775   -21950.709   -1910.8746    6813.5964    78.166234    22.464757    25.483061 
 5190400    224.29463   -590.83982    216009.12   -20628.831     1304.399    -21933.23   -1883.0959    6813.2006    78.165925    22.465265    25.483082 
 5190600    237.40015    -645.7067    216009.12   -20562.468    1380.6149   -21943.083   -2087.1882    6814.9561     78.16697    22.465963    25.477151 
 5190800    224.43299   -660.30109    216009.12   -20634.757    1305.2036   -21939.961   -2168.3794    6813.9815    78.168284    22.464448    25.480508 
 5191000    227.38547   -662.85763    216009.12   -20609.534    1322.3739   -21931.908   -2156.4826    6815.0346    78.170257    22.465024    25.482145 
 5191200    231.24176   -649.45042    216009.12    -20588.85    1344.8004    -21933.65   -2126.8367    6812.3284     78.17083    22.466015    25.482017 
 5191400    224.60553   -686.27256    216009.12   -20624.753     1306.207    -21930.96   -2284.1562    6813.9838    78.170629    22.466074    25.484324 
 5191600    223.79861   -677.82857    216009.12   -20645.342    1301.5144   -21946.856   -2242.7046    6814.7101    78.171776    22.466131    25.479903 
 5191800     229.6991   -643.06824    216009.12   -20638.041     1335.829    -21973.87   -2120.3267    6814.4396     78.17242    22.467072    25.485471 
 5192000    231.44346   -731.38123    216009.12   -20581.707    1345.9734    -21927.68   -2479.0238    6812.7494     78.17203    22.466608    25.481882 
 5192200    236.19754    -653.4667    216009.12   -20546.303     1373.621   -21919.924   -2130.6752    6814.3838    78.172251    22.465452    25.487177 
 5192400    227.03058   -652.79782    216009.12   -20613.501    1320.3101   -21933.811   -2143.9384    6813.9523    78.173552    22.464602    25.486854 
 5192600     227.1866   -695.32569    216009.12   -20606.003    1321.2174    -21927.22    -2307.951    6812.9697    78.173605    22.464502    25.483048 
 5192800    225.79825   -584.46668    216009.12   -20624.429    1313.1434   -21937.572   -1835.4587    6810.7695    78.172705    22.464009    25.481289 
 5193000    227.37071   -709.26214    216009.12   -20595.104    1322.2881   -21917.392    -2395.571    6815.3593     78.17328    22.463051    25.477743 
 5193200    220.69794   -660.81857    216009.12    -20670.24    1283.4822   -21953.722   -2171.3839    6811.8502    78.173581    22.463721    25.475978 
 5193400    228.47034   -570.43965    216009.12   -20590.084    1328.6831   -21918.767   -1787.3391     6811.208    78.172276    22.463432     25.47466 
 5193600    225.72358   -684.12147    216009.12   -20618.863    1312.7091   -21931.573   -2262.3437    6815.1651    78.172036     22.46359    25.479688 
 5193800    230.35725     -593.389    216009.12   -20616.295    1339.6565   -21955.951    -1875.447    6813.9774    78.172434    22.464787    25.479229 
 5194000    226.32701   -638.40597    216009.12   -20601.594    1316.2184   -21917.812   -2081.8868    6811.6758    78.170805    22.464434    25.480803 
 5194200    224.20804   -712.11099    216009.12   -20682.249    1303.8954   -21986.144   -2405.2598    6814.4158     78.16952    22.462676    25.484247 
 5194400    221.94897   -664.52062    216009.12   -20656.678    1290.7576   -21947.436   -2202.3833    6812.4365    78.171481    22.462051    25.483001 
 5194600     226.4029   -698.87579    216009.12   -20618.571    1316.6598   -21935.231   -2353.8441    6811.6311    78.169443    22.460521    25.486673 
 5194800    228.34745   -709.75094    216009.12   -20575.271    1327.9684   -21903.239   -2368.5523     6816.171     78.16905    22.461692     25.48177 
 5195000    227.25955   -682.20938    216009.12   -20636.158    1321.6416     -21957.8   -2263.1722    6812.7425    78.169238    22.462145    25.480836 
 5195200    233.43144   -600.75988    216009.12   -20559.041    1357.5347   -21916.576   -1888.3107    6811.8237     78.16786    22.461766     25.47921 
 5195400    225.82971   -733.04458    216009.12   -20622.829    1313.3263   -21936.156   -2496.3636    6815.1755    78.167591    22.460747    25.480059 
 5195600    230.49026   -648.79833    216009.12    -20579.84      1340.43    -21920.27    -2113.247    6815.5058    78.168199    22.459854     25.48385 
 5195800    225.88199   -647.33566    216009.12   -20649.374    1313.6304   -21963.004   -2127.3239    6810.6287    78.168547    22.458812    25.480943 
 5196000    230.77542   -686.69021    216009.12   -20562.386    1342.0884   -21904.475   -2272.4229    6812.7908    78.167729    22.458295     25.48399 
 5196200    230.56014   -750.88546    216009.12    -20593.52    1340.8364   -21934.356    -2574.325     6816.438    78.168559    22.458302    25.481511 
 5196400     229.5867   -629.32176    216009.12   -20629.871    1335.1753   -21965.047   -2007.4922    6810.4792    78.168924    22.458905    25.487916 
 5196600    230.75985   -718.36866    216009.12   -20593.223    1341.9978    -21935.22   -2423.1497    6813.2098    78.167388    22.458569    25.484542 
 5196800    223.63334   -680.12671    216009.12   -20610.712    1300.5532   -21911.265   -2270.9681    6814.6282    78.167776    22.458443    25.484422 
 5197000    227.38287   -606.80008    216009.12   -20599.896    1322.3588   -21922.254   -1953.5301    6810.5514    78.168652    22.459146    25.479514 
 5197200    227.75382   -680.69032    216009.12    -20567.72    1324.5161   -21892.237   -2257.4154     6811.352     78.16608    22.460097    25.483237 
 5197400    226.52382   -632.30065    216009.12   -20629.983    1317.3629   -21947.346    -2041.207     6815.693      78.1665    22.460765    25.479095 
 5197600    227.72811   -646.57447    216009.12   -20632.462    1324.3666   -21956.829   -2136.0905      6813.19    78.166577      22.4591    25.483293 
 5197800    225.17861   -678.51583    216009.12   -20648.185    1309.5398   -21957.725   -2243.9748    6810.6591     78.16542    22.459943    25.483798 
 5198000    215.43973   -617.23758    216009.12   -20686.328    1252.9028    -21939.23   -1995.2572    6814.5086    78.165647    22.459903    25.481769 
 5198200    227.94026   -708.95329    216009.12   -20593.046    1325.6003   -21918.646    -2376.824    6814.8822    78.165321    22.460018    25.484853 
 5198400    225.13585   -625.39806    216009.12   -20589.951    1309.2912   -21899.243   -1999.7078    6811.9427    78.161999    22.459629    25.481984 
 5198600    227.05819   -603.73372    216009.12   -20605.253    1320.4706   -21925.723   -1947.4528    6813.1424    78.161794    22.459754    25.481018 
 5198800     220.6253   -648.24673    216009.12   -20667.579    1283.0598   -21950.638   -2133.2327     6816.232    78.161387    22.459533    25.478757 
 5199000    225.01931    -705.6273    216009.12   -20621.462    1308.6134   -21930.076   -2390.6642    6812.7955    78.160739    22.460093      25.4805 
 5199200    238.50952   -597.40839    216009.12   -20527.109    1387.0665   -21914.175   -1908.8917    6814.5241    78.159389    22.459717    25.480817 
 5199400    227.59907   -624.50121    216009.12   -20648.315    1323.6162   -21971.931   -2014.3587    6813.2978    78.159488    22.460088    25.475936 
 5199600    227.14325   -699.56265    216009.12   -20633.128    1320.9653   -21954.094   -2350.0073      6813.44    78.158152    22.460342     25.47619 
 5199800    228.67125   -666.24438    216009.12    -20611.15    1329.8515   -21941.001    -2148.443    6816.4819    78.155642    22.459389     25.47999 
 5200000    225.18441   -606.61909    216009.12   -20622.298    1309.5735   -21931.871   -1945.7546    6814.0283     78.15623    22.459485    25.480469 
Loop time of 6779.89 on 160 procs for 5200000 steps with 9248 atoms

Performance: 662.666 ns/day, 0.036 hours/ns, 766.974 timesteps/s
97.8% CPU use with 160 MPI tasks x no OpenMP threads

MPI task timing breakdown:
Section |  min time  |  avg time  |  max time  |%varavg| %total
---------------------------------------------------------------
Pair    | 0.24045    | 1400.2     | 5461       |5059.2 | 20.65
Neigh   | 0.30729    | 89.237     | 351.12     |1229.0 |  1.32
Comm    | 11.064     | 1701       | 5462.4     |4472.2 | 25.09
Output  | 89.565     | 89.644     | 91.681     |   1.7 |  1.32
Modify  | 185.7      | 3402.2     | 6588.2     |4682.1 | 50.18
Other   |            | 97.63      |            |       |  1.44

Nlocal:    57.8 ave 196 max 0 min
Histogram: 72 24 24 0 0 0 0 0 13 27
Nghost:    533.325 ave 915 max 0 min
Histogram: 21 3 0 8 8 32 37 16 23 12
Neighs:    0 ave 0 max 0 min
Histogram: 160 0 0 0 0 0 0 0 0 0
FullNghs:  5863.86 ave 23524 max 0 min
Histogram: 112 8 0 0 0 0 0 1 20 19

Total # of neighbors = 938218
Ave neighs/atom = 101.451
Neighbor list builds = 540503
Dangerous builds = 0
write_data 		${DIR}/data.${NAME}_run
write_data 		run_13/data.${NAME}_run
write_data 		run_13/data.ibeam_cooling_13_run
Total wall time: 1:53:14
