

### IMPORT ATOMS ###
read_data ../Box_Setup/data.Ibeam_240K
  orthogonal box = (0 0 0) to (157.504 40.4305 33.9212)
  10 by 4 by 4 MPI processor grid
  reading atoms ...
  9248 atoms
  reading velocities ...
  9248 velocities
group water type 2
1952 atoms in group water
group graphite type 1
7296 atoms in group graphite


# Define potential
#
pair_style          sw
pair_coeff * * MLC_e.sw C mW

# Add velocity/set timestep
#

fix		1 graphite setforce 0.0 0.0 0.0
velocity 	graphite set 0.0 0.0 0.0
velocity            water create ${START_TEMP} ${SEED} rot yes dist gaussian
velocity            water create 240 ${SEED} rot yes dist gaussian
velocity            water create 240 27048 rot yes dist gaussian
timestep            5.0

# Define output
#
compute 1 water msd
compute 2 water temp


thermo	            100
thermo_style custom step c_2 press vol etotal ke pe c_1[4] density

# Neighbor lists
#
neigh_modify        delay 0 every 1 check yes


# Set fixes
#
fix                 2 water momentum 10 linear 1 1 1 rescale
fix                 3 all nve
fix                 4 water temp/csvr ${START_TEMP} ${START_TEMP} 500.0 928347
fix                 4 water temp/csvr 240 ${START_TEMP} 500.0 928347
fix                 4 water temp/csvr 240 240 500.0 928347

# Run 0.05 ns equilibration
#
dump                1 all custom 100 ${DIR}/eq.${NAME}.dump id type x y z vx vy vz
dump                1 all custom 100 run_13/eq.${NAME}.dump id type x y z vx vy vz
dump                1 all custom 100 run_13/eq.ibeam_cooling_13.dump id type x y z vx vy vz
run                 10000
Neighbor list info ...
  update every 1 steps, delay 0 steps, check yes
  max neighbors/atom: 2000, page size: 100000
  master list distance cutoff = 6.67472
  ghost atom cutoff = 6.67472
  binsize = 3.33736, bins = 48 13 11
  1 neighbor lists, perpetual/occasional/extra = 1 0 0
  (1) pair sw, perpetual
      attributes: full, newton on
      pair build: full/bin/atomonly
      stencil: full/bin/3d
      bin: standard
Per MPI rank memory allocation (min/avg/max) = 0.4647 | 3.681 | 4.743 Mbytes
Step c_2 Press Volume TotEng KinEng PotEng c_1[4] Density 
       0          240   -299.33439    216009.12   -18704.344    1395.7345   -20100.079            0   0.94393226 
     100    241.81953   -242.69214    216009.12   -18714.319    1406.3161   -20120.635   0.78380902   0.94393226 
     200    237.97451    -270.9199    216009.12   -18770.477    1383.9551   -20154.432     1.210759   0.94393226 
     300     239.1021   -337.56781    216009.12   -18745.515    1390.5127   -20136.028    1.5495807   0.94393226 
     400    233.23246   -212.60953    216009.12   -18748.225    1356.3774   -20104.603    1.9431425   0.94393226 
     500    237.55003   -395.19205    216009.12   -18725.534    1381.4865    -20107.02    2.3163433   0.94393226 
     600    241.45443   -355.51724    216009.12   -18636.433    1404.1928   -20040.626    2.6724199   0.94393226 
     700    248.64091   -366.79667    216009.12   -18632.302    1445.9862   -20078.289    2.9438894   0.94393226 
     800    240.08708   -318.92672    216009.12   -18606.798    1396.2409   -20003.039    3.3266343   0.94393226 
     900    241.20734   -330.01652    216009.12   -18635.566    1402.7559   -20038.322    3.5566277   0.94393226 
    1000    241.10826   -225.60302    216009.12   -18678.591    1402.1797   -20080.771    3.9664631   0.94393226 
    1100    241.72157   -328.31446    216009.12   -18655.701    1405.7464   -20061.448    4.5194231   0.94393226 
    1200    235.31553   -357.85283    216009.12   -18657.512    1368.4917   -20026.004    4.9508938   0.94393226 
    1300    249.31245   -298.92839    216009.12   -18630.943    1449.8916   -20080.834    5.3497182   0.94393226 
    1400    240.75594   -246.58554    216009.12   -18658.631    1400.1307   -20058.762    5.6446916   0.94393226 
    1500    237.10176   -457.30959    216009.12    -18678.69    1378.8796    -20057.57    5.8126481   0.94393226 
    1600    244.43062   -319.95075    216009.12    -18656.93     1421.501   -20078.431    6.0558365   0.94393226 
    1700      241.265   -345.20003    216009.12   -18649.317    1403.0912   -20052.408    6.2352375   0.94393226 
    1800    238.11849   -277.98399    216009.12   -18619.352    1384.7924   -20004.145    6.4993242   0.94393226 
    1900    243.04601   -6.5823714    216009.12   -18586.635    1413.4488   -20000.083    6.8528062   0.94393226 
    2000    244.91579   -419.34747    216009.12   -18554.207    1424.3226    -19978.53    7.0426353   0.94393226 
    2100    239.53793   -373.12017    216009.12   -18651.388    1393.0473   -20044.435    7.3553328   0.94393226 
    2200    246.67987   -323.46467    216009.12   -18632.558    1434.5817    -20067.14    7.8292506   0.94393226 
    2300    245.63551   -302.47574    216009.12   -18609.113    1428.5081   -20037.621    8.0488533   0.94393226 
    2400    243.18275   -413.17694    216009.12   -18622.839     1414.244   -20037.083     8.335612   0.94393226 
    2500     243.9714    -237.0059    216009.12   -18657.403    1418.8304   -20076.234    8.8403419   0.94393226 
    2600    240.17741   -384.58007    216009.12   -18661.879    1396.7662   -20058.645     9.232609   0.94393226 
    2700    240.21751   -236.41713    216009.12   -18677.706    1396.9994   -20074.706    9.5229242   0.94393226 
    2800    243.49116    -292.2754    216009.12   -18631.316    1416.0375   -20047.354    9.7397075   0.94393226 
    2900    239.17232   -237.00575    216009.12     -18628.9    1390.9211   -20019.821    10.143848   0.94393226 
    3000     246.6718   -248.58496    216009.12   -18626.088    1434.5348   -20060.623    10.389629   0.94393226 
    3100    242.82111   -285.46988    216009.12   -18623.519    1412.1409    -20035.66    10.642488   0.94393226 
    3200    241.93308   -328.76081    216009.12   -18669.483    1406.9764    -20076.46     11.17272   0.94393226 
    3300    235.22781   -239.74639    216009.12   -18741.402    1367.9815   -20109.384    11.629188   0.94393226 
    3400    239.74584   -296.81641    216009.12    -18692.06    1394.2564   -20086.317    12.040128   0.94393226 
    3500    241.16766   -281.64029    216009.12    -18693.53    1402.5251   -20096.055    12.492929   0.94393226 
    3600    240.60055   -235.11443    216009.12   -18686.992     1399.227   -20086.219    12.503777   0.94393226 
    3700    241.55197   -432.97894    216009.12   -18666.394    1404.7601   -20071.154    12.829078   0.94393226 
    3800    233.39556    -457.1888    216009.12   -18630.747     1357.326   -19988.073    12.942033   0.94393226 
    3900    244.63952   -332.66435    216009.12   -18625.591    1422.7159   -20048.307    13.319866   0.94393226 
    4000    238.15109   -120.98372    216009.12   -18660.493     1384.982   -20045.475    13.841876   0.94393226 
    4100    240.39544    -209.4371    216009.12   -18642.149    1398.0342   -20040.183    14.390519   0.94393226 
    4200    243.15687   -305.75627    216009.12   -18622.186    1414.0935   -20036.279    14.595597   0.94393226 
    4300    243.59871   -321.64496    216009.12   -18679.882     1416.663   -20096.545    15.034437   0.94393226 
    4400    238.52852   -336.20554    216009.12   -18662.553     1387.177    -20049.73    15.334114   0.94393226 
    4500    237.75811   -444.61185    216009.12   -18696.054    1382.6967   -20078.751    15.350164   0.94393226 
    4600     237.1021   -259.26876    216009.12   -18740.277    1378.8816   -20119.159    15.493852   0.94393226 
    4700    241.27821   -414.30076    216009.12   -18670.288     1403.168   -20073.456    15.771141   0.94393226 
    4800    241.21333   -285.86155    216009.12   -18649.214    1402.7907   -20052.005    16.105861   0.94393226 
    4900    244.93424   -389.53878    216009.12   -18606.326    1424.4299   -20030.756    16.442998   0.94393226 
    5000    241.58816   -322.31485    216009.12   -18663.969    1404.9705    -20068.94    16.820451   0.94393226 
    5100    241.73115    -257.2971    216009.12   -18653.062    1405.8021   -20058.864    16.987634   0.94393226 
    5200    237.44606   -422.69714    216009.12   -18680.116    1380.8819   -20060.998    17.233905   0.94393226 
    5300    236.98066   -386.64237    216009.12   -18719.679    1378.1754   -20097.854    17.436008   0.94393226 
    5400    237.01643    -268.8367    216009.12   -18710.998    1378.3834   -20089.382     17.88304   0.94393226 
    5500    239.85223   -438.27927    216009.12   -18700.554    1394.8751   -20095.429    18.374661   0.94393226 
    5600    233.62286   -359.11561    216009.12   -18736.373    1358.6479   -20095.021    18.893001   0.94393226 
    5700    235.82052   -162.29628    216009.12   -18684.184    1371.4285   -20055.612    19.444912   0.94393226 
    5800    244.77016   -35.829046    216009.12   -18682.382    1423.4756   -20105.858    19.566847   0.94393226 
    5900    245.80335   -323.93386    216009.12   -18712.393    1429.4842   -20141.877    19.983957   0.94393226 
    6000    239.04489   -321.47278    216009.12   -18724.237      1390.18   -20114.417    20.391477   0.94393226 
    6100    232.84505   -350.76218    216009.12   -18751.107    1354.1245   -20105.232    20.531357   0.94393226 
    6200    238.83921   -323.14282    216009.12    -18736.43    1388.9839   -20125.414    21.009036   0.94393226 
    6300     243.8358    -165.2697    216009.12   -18680.449    1418.0418   -20098.491    21.388277   0.94393226 
    6400     239.1433   -416.31278    216009.12    -18721.33    1390.7523   -20112.083    21.925808   0.94393226 
    6500    240.08398   -319.21498    216009.12   -18726.651    1396.2229   -20122.874    22.365653   0.94393226 
    6600    240.89777   -209.69187    216009.12   -18758.936    1400.9555   -20159.892    22.743402   0.94393226 
    6700    233.20011   -419.01388    216009.12   -18770.728    1356.1893   -20126.918    22.877648   0.94393226 
    6800    236.95885   -145.02252    216009.12   -18748.733    1378.0485   -20126.781    22.838087   0.94393226 
    6900    237.90903    -283.3768    216009.12   -18718.521    1383.5743   -20102.095     23.16324   0.94393226 
    7000    239.14778   -386.21629    216009.12   -18710.123    1390.7784   -20100.902    23.641824   0.94393226 
    7100    239.68518   -375.86699    216009.12   -18708.598    1393.9036   -20102.501    23.896566   0.94393226 
    7200    230.80452   -334.61066    216009.12   -18731.065    1342.2576   -20073.323    24.202738   0.94393226 
    7300    233.30264    -279.8194    216009.12   -18744.554    1356.7856   -20101.339    24.692642   0.94393226 
    7400    239.73145   -224.48443    216009.12   -18720.481    1394.1727   -20114.654    24.698003   0.94393226 
    7500    240.33705   -284.74219    216009.12   -18711.331    1397.6946   -20109.025    24.956395   0.94393226 
    7600      237.231   -227.92724    216009.12   -18676.516    1379.6312   -20056.148    25.359229   0.94393226 
    7700     238.4368   -379.06975    216009.12   -18674.892    1386.6436   -20061.536    25.705423   0.94393226 
    7800    235.11699   -402.31482    216009.12   -18741.027     1367.337   -20108.364     25.74372   0.94393226 
    7900     240.7837    -284.8498    216009.12   -18708.641    1400.2921   -20108.933    26.011021   0.94393226 
    8000    246.41707   -300.81838    216009.12   -18645.834    1433.0533   -20078.888    26.399422   0.94393226 
    8100    246.40822   -237.82491    216009.12   -18631.501    1433.0019   -20064.503    26.440711   0.94393226 
    8200    240.95236   -334.32557    216009.12   -18656.128     1401.273   -20057.401    26.767536   0.94393226 
    8300    242.41953    -315.9631    216009.12   -18621.917    1409.8054   -20031.723    27.313931   0.94393226 
    8400    241.67817   -365.58533    216009.12    -18588.19     1405.494   -19993.684    27.605956   0.94393226 
    8500    239.41633   -381.71921    216009.12   -18607.483    1392.3401   -19999.824    28.145046   0.94393226 
    8600    236.61981   -434.36299    216009.12   -18621.169    1376.0768   -19997.246    28.464533   0.94393226 
    8700    240.26748    -323.2558    216009.12   -18636.567    1397.2901   -20033.857    28.475494   0.94393226 
    8800    241.35568   -139.99704    216009.12   -18654.567    1403.6186   -20058.186    28.864512   0.94393226 
    8900     238.4894   -323.56566    216009.12   -18695.069    1386.9495   -20082.019    28.852855   0.94393226 
    9000    243.05284   -221.40323    216009.12   -18682.957    1413.4885   -20096.445    29.245029   0.94393226 
    9100    241.50275   -394.40637    216009.12   -18699.267    1404.4738    -20103.74     29.40832   0.94393226 
    9200     238.7874   -192.73629    216009.12   -18649.378    1388.6826   -20038.061    29.784067   0.94393226 
    9300    242.72478   -300.31352    216009.12    -18708.82    1411.5806     -20120.4     29.94792   0.94393226 
    9400    239.87159   -359.02539    216009.12   -18686.304    1394.9877   -20081.292    30.126323   0.94393226 
    9500    236.27823   -207.41737    216009.12   -18714.863    1374.0903   -20088.953    30.255272   0.94393226 
    9600    236.63571   -154.47788    216009.12     -18730.6    1376.1692   -20106.769    30.832033   0.94393226 
    9700    239.10626   -163.78276    216009.12   -18694.449    1390.5369   -20084.986    31.491297   0.94393226 
    9800    238.95764   -351.85631    216009.12   -18656.846    1389.6726   -20046.518    31.281516   0.94393226 
    9900    244.15357    -359.8987    216009.12   -18687.075    1419.8898   -20106.965    31.345674   0.94393226 
   10000    242.03046   -295.31938    216009.12   -18690.917    1407.5428    -20098.46    31.474361   0.94393226 
Loop time of 14.4869 on 160 procs for 10000 steps with 9248 atoms

Performance: 298.200 ns/day, 0.080 hours/ns, 690.277 timesteps/s
97.6% CPU use with 160 MPI tasks x no OpenMP threads

MPI task timing breakdown:
Section |  min time  |  avg time  |  max time  |%varavg| %total
---------------------------------------------------------------
Pair    | 0.00045586 | 2.9518     | 11.751     | 236.0 | 20.38
Neigh   | 0.00032711 | 0.094862   | 0.36066    |  39.2 |  0.65
Comm    | 0.014343   | 3.4768     | 11.668     | 218.4 | 24.00
Output  | 0.17514    | 0.17532    | 0.18322    |   0.2 |  1.21
Modify  | 0.40609    | 7.6488     | 14.153     | 219.4 | 52.80
Other   |            | 0.1394     |            |       |  0.96

Nlocal:    57.8 ave 196 max 0 min
Histogram: 72 23 25 0 0 0 0 0 13 27
Nghost:    535.181 ave 923 max 0 min
Histogram: 24 0 0 8 8 38 33 17 19 13
Neighs:    0 ave 0 max 0 min
Histogram: 160 0 0 0 0 0 0 0 0 0
FullNghs:  5905.44 ave 23698 max 0 min
Histogram: 102 18 0 0 0 0 0 2 19 19

Total # of neighbors = 944870
Ave neighs/atom = 102.17
Neighbor list builds = 568
Dangerous builds = 0
write_data 	    ${DIR}/data.${NAME}_eq
write_data 	    run_13/data.${NAME}_eq
write_data 	    run_13/data.ibeam_cooling_13_eq

undump              1
unfix               4



################################################
#######         Run Simulation         #########
################################################

reset_timestep      0
timestep	    10.0
log                 ${DIR}/log.run_${NAME}
log                 run_13/log.run_${NAME}
log                 run_13/log.run_ibeam_cooling_13
