
# Set production fixes - Nose/Hoover
#
fix                 4 water temp/csvr ${START_TEMP} ${END_TEMP} 500.0 928347
fix                 4 water temp/csvr 240 ${END_TEMP} 500.0 928347
fix                 4 water temp/csvr 240 227 500.0 928347


## divide "droplet" into core and surface
#region		core_reg cylinder z 135 135 44.6 20 INF units box
#region		surface_reg cylinder z 135 135 44.6 20 INF units box side out
#group		core dynamic all region core_reg
#group		surface dynamic all region surface_reg

## compute pressure core
#compute        peratom_core core stress/atom NULL
#compute        p_core core reduce sum c_peratom_core[1] c_peratom_core[2] c_peratom_core[3]
#variable       press_core equal -(c_p_core[1]+c_p_core[2]+c_p_core[3])/(3*1249982.5)


## compute pressure surface
#compute        peratom_surf surface stress/atom NULL
#compute        p_surf surface reduce sum c_peratom_surf[1] c_peratom_surf[2] #c_peratom_surf[3]
#variable       press_surf equal -(c_p_surf[1]+c_p_surf[2]+c_p_surf[3])/(3*42395)

## compute total pressure of drop
compute        peratom water stress/atom NULL
compute        p water reduce sum c_peratom[1] c_peratom[2] c_peratom[3]
variable       press equal -(c_p[1]+c_p[2]+c_p[3])/(3*58301)


# compute order parameter
compute        3 all orientorder/atom nnn NULL cutoff 3.5

# compute center of mass of bridge
compute 	4 water com

# Run simulation
thermo_style        custom step c_2 press vol etotal ke pe v_press c_1[4] c_4[*]
thermo              200
dump		     1 water custom 400 ${DIR}/prod.${NAME}.dump id type x y z vx vy vz c_3[*] c_peratom[*]
dump		     1 water custom 400 run_16/prod.${NAME}.dump id type x y z vx vy vz c_3[*] c_peratom[*]
dump		     1 water custom 400 run_16/prod.ibeam_cooling_16.dump id type x y z vx vy vz c_3[*] c_peratom[*]
run                 ${STEPS}
run                 5200000
Neighbor list info ...
  update every 1 steps, delay 0 steps, check yes
  max neighbors/atom: 2000, page size: 100000
  master list distance cutoff = 6.67472
  ghost atom cutoff = 6.67472
  binsize = 3.33736, bins = 57 9 12
  2 neighbor lists, perpetual/occasional/extra = 1 1 0
  (1) pair sw, perpetual
      attributes: full, newton on
      pair build: full/bin/atomonly
      stencil: full/bin/3d
      bin: standard
  (2) compute orientorder/atom, occasional, copy from (1)
      attributes: full, newton on
      pair build: copy
      stencil: none
      bin: none
Per MPI rank memory allocation (min/avg/max) = 0.851 | 6.011 | 7.138 Mbytes
Step c_2 Press Volume TotEng KinEng PotEng v_press c_1[4] c_4[1] c_4[2] c_4[3] 
       0    237.38887   -262.54799    204420.41   -23266.598    1723.0331   -24989.632   -417.82918    39.621185    95.088966     14.53668    27.839847 
     200    240.45487   -476.96585    204420.41   -23276.672    1745.2869   -25021.959   -1128.5697    41.496254     95.08886    14.537473    27.829917 
     400    239.93976   -241.67087    204420.41   -23258.536    1741.5482   -25000.084   -344.17112    43.526596    95.090324    14.539893    27.810306 
     600    240.11095   -55.372035    204420.41   -23146.158    1742.7907   -24888.948    307.06895    45.570451    95.089081    14.542626     27.80941 
     800    247.32462   -347.07417    204420.41   -23155.586    1795.1495   -24950.736   -717.82927    47.553095    95.088683    14.544015    27.796555 
    1000    234.86398   -314.23401    204420.41   -23212.054    1704.7068   -24916.761   -589.98009    49.109886    95.088312      14.5444    27.773192 
    1200    237.75937   -465.74987    204420.41   -23210.571    1725.7223   -24936.293   -1133.5215    51.155046    95.087881    14.546112      27.7867 
    1400    242.38011   -357.77373    204420.41   -23212.613    1759.2609   -24971.874    -699.4433    53.671014    95.089049     14.55008    27.793724 
    1600     241.7987   -292.24878    204420.41   -23216.499    1755.0408    -24971.54   -517.57344    56.138313    95.088494    14.550175    27.795984 
    1800    244.20042   -272.12942    204420.41   -23190.525    1772.4732   -24962.999   -423.94653    58.624445    95.090074    14.550725    27.792895 
    2000    239.57092   -178.00417    204420.41   -23115.447     1738.871   -24854.318   -144.72257    58.262724    95.091261    14.549235    27.795121 
    2200    243.38683   -322.27735    204420.41     -23155.3    1766.5679   -24921.868   -596.63361      58.7521    95.091854    14.551286    27.797728 
    2400    237.58423   -152.54218    204420.41   -23130.295     1724.451   -24854.746     1.476143    59.925023    95.092228     14.55024    27.808633 
    2600    236.95709   -322.15298    204420.41    -23200.92    1719.8991   -24920.819    -645.0638    61.061154    95.091332    14.550167     27.81072 
    2800    240.88233   -464.26749    204420.41   -23120.772    1748.3896   -24869.161   -1102.0114    61.871462    95.092401    14.550008     27.81324 
    3000    243.73857    3.1817973    204420.41   -23119.694    1769.1209   -24888.815    552.95524    63.561089    95.093647    14.551043    27.794617 
    3200    240.88299   -396.56135    204420.41   -23209.222    1748.3944   -24957.616   -894.74903    63.978724    95.094449    14.554209    27.793843 
    3400    238.88389   -143.31429    204420.41   -23236.912    1733.8844   -24970.796    8.2582797    65.361784    95.092862    14.556226    27.782937 
    3600    237.02367   -338.40277    204420.41   -23234.565    1720.3824   -24954.947   -674.38505    67.600418    95.090847    14.557512    27.786744 
    3800    238.23822   -316.02126    204420.41   -23168.174    1729.1979   -24897.372   -608.37757    68.681276    95.089536     14.55793    27.767796 
    4000    234.63665   -387.97963    204420.41   -23236.666    1703.0567   -24939.723   -850.64075     69.34947    95.090345    14.556241    27.723497 
    4200    237.72144   -438.48274    204420.41   -23195.168     1725.447   -24920.615   -1001.4364    70.882696    95.089468    14.558049    27.691882 
    4400    242.71109   -505.80158    204420.41   -23228.091    1761.6632   -24989.754   -1259.4021    72.203607     95.08909      14.5565    27.672719 
    4600    235.89613   -366.03239    204420.41   -23313.799    1712.1984   -25025.997   -740.91854    73.346789    95.090321    14.554529     27.66797 
    4800    241.62448   -237.59783    204420.41   -23180.378    1753.7763   -24934.155   -316.29227    75.370621    95.090479    14.553645    27.648784 
    5000    238.13453   -305.07858    204420.41   -23242.577    1728.4453   -24971.022   -533.83431    77.011206    95.089982    14.552577    27.670935 
    5200    240.36644   -456.60192    204420.41    -23212.04    1744.6451   -24956.685   -1080.3128    79.948031    95.091284    14.551045    27.670853 
    5400    239.75025   -432.54731    204420.41   -23228.974    1740.1726   -24969.146   -987.53089    82.736357    95.090142    14.551118    27.667775 
    5600    238.57959   -365.69148    204420.41   -23245.131    1731.6756   -24976.807   -734.83815    85.862906    95.089892    14.549777    27.671445 
    5800    242.26141   -199.17771    204420.41   -23212.168    1758.3993   -24970.568   -187.80168    88.051607    95.089472    14.548786    27.652714 
    6000    237.66894   -421.00664    204420.41   -23252.245     1725.066   -24977.311   -959.62978    88.450997    95.089578    14.550332    27.666459 
    6200    235.71364   -106.40575    204420.41   -23285.739    1710.8738   -24996.613    145.05362    88.298775    95.089472    14.548666    27.675462 
    6400    238.33737   -418.61719    204420.41   -23273.788    1729.9176   -25003.706   -950.29767    90.614522    95.088991    14.546831    27.677887 
    6600    239.52644   -319.08499    204420.41   -23261.273    1738.5481   -24999.821    -581.9918    92.964067    95.089223     14.54888    27.668768 
    6800    242.41121   -445.06912    204420.41   -23221.297    1759.4866   -24980.784   -1025.6573    94.768614    95.089928    14.547651    27.685014 
    7000    240.28188   -243.44333    204420.41   -23205.187    1744.0314   -24949.218   -344.42006    95.392708    95.091405    14.546198    27.689802 
    7200    233.49382   -321.96892    204420.41   -23303.845    1694.7618   -24998.606   -577.53312    96.467973    95.091497    14.547028    27.678954 
    7400    237.37813   -351.96181    204420.41   -23265.726    1722.9552   -24988.682   -684.85615    98.932939    95.091024    14.546984    27.694929 
    7600    245.87646   -324.90703    204420.41   -23156.993    1784.6383   -24941.631   -621.66166    100.83719    95.091814    14.544487    27.688799 
    7800    230.08646   -267.23497    204420.41   -23292.966    1670.0302   -24962.996   -364.68872    102.79612    95.091981    14.544113     27.69907 
    8000    243.59337   -341.41009    204420.41   -23145.639     1768.067   -24913.706   -637.14413    105.65765    95.093459    14.542417    27.688785 
    8200    239.00521   -654.99163    204420.41   -23205.818    1734.7649   -24940.583   -1763.2845     107.3049    95.094013    14.546277    27.688607 
    8400    244.37924    3.6242264    204420.41   -23178.246    1773.7711   -24952.017    539.21112    107.55683    95.096487    14.547179    27.696877 
    8600    236.69902   -363.08518    204420.41   -23242.899     1718.026   -24960.925   -734.02513     110.6505    95.098272    14.547946    27.704401 
    8800    235.74364   -185.28416    204420.41   -23259.012    1711.0916   -24970.103   -105.23287    113.10656    95.098626    14.549594    27.699001 
    9000    241.39545   -407.26215    204420.41   -23226.653    1752.1139   -24978.767   -874.69806    116.39209    95.098304    14.550929    27.711409 
    9200     239.2981   -347.60764    204420.41   -23166.169    1736.8908   -24903.059    -698.5948    118.77411    95.099915    14.553205    27.695925 
    9400    247.96826   -409.01436    204420.41    -23243.04    1799.8212   -25042.861   -881.46522     119.4718    95.099513    14.555451    27.681686 
    9600    236.76718   -178.66318    204420.41   -23292.049    1718.5207    -25010.57   -119.03846    122.21199    95.102099      14.5604    27.678441 
    9800    241.11048   -230.24228    204420.41   -23174.055    1750.0456   -24924.101   -279.51953    123.50177    95.101955    14.563251     27.67865 
   10000    241.67737   -270.60764    204420.41   -23218.572    1754.1602   -24972.732   -384.51071     126.8116    95.100819    14.564142    27.672364 
   10200     244.2808   -310.95648    204420.41   -23149.278    1773.0566   -24922.334   -580.58612    128.70426    95.101736    14.563692    27.673233 
   10400    251.70335   -481.47591    204420.41   -23169.682    1826.9315   -24996.613   -1150.5546    130.02129     95.10284    14.564913    27.686559 
   10600    243.32618   -313.62511    204420.41   -23277.038    1766.1277   -25043.166   -548.66458    130.39976      95.1022    14.565363    27.706063 
   10800    232.22982   -334.34565    204420.41   -23315.497    1685.5873   -25001.085   -624.45926    129.72386    95.100667    14.562941    27.723778 
   11000    236.37984    -275.5181    204420.41   -23299.828    1715.7093   -25015.538   -446.97985    130.21512    95.098872    14.563101     27.70851 
   11200    241.88734   -421.76775    204420.41   -23267.956    1755.6842    -25023.64   -964.41242    129.98803    95.099893    14.562501    27.739092 
   11400    241.29842   -97.630497    204420.41   -23235.418    1751.4097   -24986.828    190.63245    130.88723    95.100065    14.561722    27.749978 
   11600    241.23142   -474.44286    204420.41   -23125.316    1750.9234   -24876.239   -1159.9777     134.2047    95.099121     14.56224    27.746285 
   11800    243.20064   -497.44549    204420.41   -23160.637    1765.2165   -24925.854   -1215.9115    137.62105    95.099507    14.561062    27.745014 
   12000    247.43661   -326.52942    204420.41   -23185.313    1795.9623   -24981.276   -588.25294     139.8161    95.097977    14.561943    27.733193 
   12200    245.07227   -305.11917    204420.41   -23177.428    1778.8013   -24956.229   -521.61709    142.09549    95.096858    14.564623     27.70578 
   12400    234.49526   -425.82619    204420.41   -23228.839    1702.0305   -24930.869   -972.69082    145.02019    95.097059    14.566701    27.722098 
   12600    242.51632   -344.18091    204420.41   -23163.455    1760.2495   -24923.705   -672.90642    146.54156    95.098232    14.566411    27.741968 
   12800    240.59025   -105.82602    204420.41   -23214.628    1746.2696   -24960.897    173.42305    149.79939     95.09803    14.568763    27.741707 
   13000     240.5256   -508.91804    204420.41   -23238.577    1745.8003   -24984.377   -1255.1199    151.78638    95.095944    14.569058    27.762819 
   13200    241.95616   -309.16382    204420.41   -23267.401    1756.1837   -25023.585   -601.92995    152.85475    95.096756    14.569876    27.749467 
   13400    238.06208   -514.05387    204420.41   -23338.704    1727.9195   -25066.624   -1255.3397    154.33522    95.097896    14.567672    27.746822 
   13600    238.39839   -395.53821    204420.41   -23295.015    1730.3605   -25025.376   -865.14637    157.23112    95.097095    14.569623    27.742945 
   13800    237.25398   -341.42043    204420.41   -23222.969    1722.0541   -24945.023    -628.0506    157.84175     95.09593    14.571796    27.742412 
   14000    243.90168   -422.56748    204420.41   -23135.307    1770.3049   -24905.612   -945.11883    158.20654    95.097611    14.569885    27.733265 
   14200      237.128   -396.44627    204420.41   -23224.782    1721.1396   -24945.922   -840.59674    157.57041    95.098849    14.571258    27.742467 
   14400    240.69276   -396.48977    204420.41   -23276.865    1747.0136   -25023.879   -842.76676    157.54544    95.096403    14.571664    27.754884 
   14600    238.25419   -140.40878    204420.41   -23233.037    1729.3138   -24962.351    8.3950597    158.19625      95.0954    14.570603    27.759161 
   14800    235.94494   -243.38806    204420.41   -23162.962    1712.5527   -24875.514   -365.89303    159.80616    95.095231    14.565763    27.758421 
   15000    239.09004   -421.00355    204420.41   -23202.109    1735.3806    -24937.49   -952.08609    161.93694    95.094883    14.562079    27.748345 
   15200    240.07784    -213.2436    204420.41   -23182.872    1742.5504   -24925.422   -243.38258    163.61923     95.09401    14.561427    27.762138 
   15400    231.54121    -299.7128    204420.41   -23224.353    1680.5892   -24904.942   -539.05202    163.61674    95.093677    14.562266    27.787138 
   15600    242.83727   -277.41317    204420.41   -23088.896    1762.5791   -24851.475   -490.72034    164.01376    95.096462    14.562238    27.791914 
   15800    244.86359   -132.12304    204420.41   -23127.703    1777.2866   -24904.989    69.587803    162.64205    95.096847      14.5622    27.790949 
   16000    239.35104   -307.49932    204420.41   -23182.769    1737.2751   -24920.044   -559.21841    161.40055    95.096331    14.563977    27.773728 
   16200    242.79564    -474.8055    204420.41    -23151.13    1762.2769   -24913.407   -1145.3786    161.53315     95.09613    14.565077    27.783384 
   16400    238.12666   -362.37248    204420.41   -23242.311    1728.3882   -24970.699   -731.84839    162.79468    95.097357    14.565991    27.793913 
   16600    245.53087   -400.76694    204420.41   -23138.276      1782.13   -24920.406   -883.25003    164.10546    95.099567    14.565559    27.797598 
   16800    237.54794   -189.03037    204420.41   -23176.425    1724.1877   -24900.612   -113.18791    164.41958    95.100216    14.566582    27.806105 
   17000     237.7393   -92.902145    204420.41   -23245.672    1725.5766   -24971.249    219.26769    165.08878    95.101263    14.566209    27.824854 
   17200    239.85513   -451.86014    204420.41   -23266.137    1740.9339   -25007.071   -1036.7437    167.31178    95.100503    14.564612    27.828619 
   17400    236.55593   -338.68043    204420.41   -23332.112    1716.9874   -25049.099   -681.42767    168.32185    95.100195    14.565441     27.82341 
   17600     237.2781   -490.68847    204420.41   -23225.277    1722.2291   -24947.507   -1166.9872    170.39359    95.100563    14.567382    27.811813 
   17800    244.16729   -358.48059    204420.41   -23227.505    1772.2327   -24999.738   -723.36957    171.84372    95.100925    14.565711    27.808224 
   18000    239.87647   -327.72924    204420.41   -23197.087    1741.0887   -24938.176   -607.72388     172.5182     95.10299    14.568391    27.824188 
   18200    242.79247   -380.65677    204420.41   -23220.216    1762.2539   -24982.469   -784.17725    173.13963    95.104209    14.567826    27.803612 
   18400     240.6171   -273.76128    204420.41   -23196.087    1746.4645   -24942.551    -439.2644    173.94356    95.105988     14.56622    27.803962 
   18600    242.22292   -502.91746    204420.41   -23191.655    1758.1199   -24949.775   -1217.1587    177.64227     95.10734    14.567451    27.783503 
   18800    239.22984   -200.56624    204420.41   -23258.189    1736.3953   -24994.585   -179.11731    178.73134    95.107351    14.568726    27.778782 
   19000    241.08417   -236.44237    204420.41   -23229.399    1749.8546   -24979.254   -312.87965    178.74189    95.107482    14.565433    27.779873 
   19200    235.04535    -342.9647    204420.41   -23193.891    1706.0232   -24899.914   -662.98893    180.76433    95.108148    14.562525    27.750514 
   19400    241.56137   -144.06147    204420.41   -23123.406    1753.3183   -24876.725    40.004777    183.62669    95.108673    14.564092    27.763125 
   19600    242.82503   -236.38334    204420.41   -23166.989    1762.4903    -24929.48   -320.20669    184.81755    95.105891    14.567627    27.773155 
   19800    241.12546   -530.99281    204420.41   -23157.282    1750.1543   -24907.436   -1294.9411    186.94119     95.10533    14.569482    27.811064 
   20000    238.73218   -322.89372    204420.41   -23158.488    1732.7832   -24891.272   -606.93898    189.18191    95.105006    14.569539    27.805713 
   20200    233.89299   -180.60676    204420.41   -23268.934     1697.659   -24966.593   -106.07436    188.92798    95.105537    14.570269    27.810509 
   20400    242.55694   -409.21367    204420.41   -23200.393    1760.5444   -24960.937   -881.87588    190.23015    95.106344    14.569603    27.846892 
   20600    240.93162   -492.91446    204420.41   -23273.026    1748.7473   -25021.773   -1212.3312    190.00072    95.103973    14.570137    27.850864 
   20800    245.23978   -450.66646    204420.41    -23178.22    1780.0172   -24958.237   -1053.6044    189.81273    95.103739    14.570026    27.834904 
   21000    242.89252   -245.86413    204420.41   -23194.021    1762.9801   -24957.001   -336.70815    190.83684    95.102983    14.569713    27.838928 
   21200    243.52326   -407.45224    204420.41   -23179.606    1767.5581   -24947.164   -898.13227    191.41887    95.105296    14.570771    27.852404 
   21400    239.21189   -343.52514    204420.41   -23171.153     1736.265   -24907.418   -684.84127    191.01451    95.103314    14.571255    27.849766 
   21600    243.52013   -191.85419    204420.41   -23052.994    1767.5355    -24820.53   -97.193239     191.0436    95.103366    14.571243    27.838533 
   21800    238.12725   -488.42488    204420.41   -23167.028    1728.3924    -24895.42   -1174.3226    194.48666    95.101746    14.573203    27.827203 
   22000    233.37706   -255.62618    204420.41   -23249.263    1693.9143   -24943.177   -397.55744     194.1007    95.100804    14.572458    27.857673 
   22200     233.7863   -201.44754    204420.41   -23321.739    1696.8847   -25018.624   -171.99762    193.95229    95.100486    14.570495    27.864637 
   22400    240.02834   -329.72592    204420.41   -23153.102    1742.1911   -24895.293   -617.13317    195.21651    95.100573    14.566721    27.872942 
   22600     241.6546   -112.08998    204420.41   -23213.396    1753.9949   -24967.391    167.67814    196.30767    95.099092    14.566213    27.861151 
   22800    242.77214   -302.06102    204420.41   -23212.166    1762.1063   -24974.272   -559.14466     199.3826    95.097414    14.566205    27.840039 
   23000    230.71878    -448.5453    204420.41    -23266.94    1674.6197    -24941.56   -1071.1203    200.96002    95.096177    14.567157    27.853212 
   23200    244.83137   -264.40148    204420.41   -23185.149    1777.0528   -24962.202   -407.00617    202.11836    95.094634    14.568607    27.835992 
   23400    237.65536   -460.70276    204420.41   -23192.332    1724.9674     -24917.3   -1053.9185    204.62008    95.092088    14.571493    27.832957 
   23600    240.05391   -355.79162    204420.41    -23099.12    1742.3767   -24841.496   -697.17987    205.38019    95.093333    14.572147    27.831817 
   23800    246.40227   -488.68357    204420.41   -23116.258    1788.4548   -24904.713   -1206.7119    208.35108    95.092474    14.574264    27.835645 
   24000    238.85376   -244.60502    204420.41   -23159.477    1733.6656   -24893.143   -328.98737    211.19573    95.090779    14.576283    27.834244 
   24200    242.23264   -451.76862    204420.41   -23174.519    1758.1905    -24932.71   -1101.0093    214.17029      95.0905    14.577789    27.835714 
   24400    237.37166   -297.99019    204420.41   -23254.508    1722.9082   -24977.416     -528.373    215.17144     95.09062    14.577438     27.83014 
   24600    237.63402   -353.95553    204420.41   -23293.005    1724.8125   -25017.818   -719.46764    216.39345    95.089684    14.578411     27.82412 
   24800    242.57365   -364.52126    204420.41   -23254.602    1760.6657   -25015.268   -763.35655    218.85954    95.089172     14.57828    27.822985 
   25000    238.49368   -285.46449    204420.41   -23260.892    1731.0521   -24991.944   -427.89608    220.43076    95.088559    14.579549     27.81694 
   25200    232.41008   -452.24127    204420.41   -23373.238    1686.8957   -25060.133   -1107.4377    222.17783    95.087396    14.580679    27.832412 
   25400    235.70225   -365.76216    204420.41   -23247.074    1710.7911   -24957.865   -721.31881    225.63856    95.087825    14.579867    27.836013 
   25600    245.26608   -378.39713    204420.41   -23092.832     1780.208    -24873.04   -796.79631    228.22375    95.085276    14.579818     27.82655 
   25800    245.37097    -360.7216    204420.41   -23136.426    1780.9694   -24917.396   -757.60206    230.40473    95.083183    14.577777     27.83023 
   26000    242.27428   -356.36448    204420.41   -23177.455    1758.4927   -24935.948   -727.18167    232.26593    95.081927    14.576451    27.829535 
   26200    236.70786    -150.9886    204420.41   -23174.022    1718.0901   -24892.112   -13.712591    233.49659    95.081574    14.575522    27.815328 
   26400    239.27037   -174.68428    204420.41   -23201.336    1736.6895   -24938.026   -127.84611    236.39805     95.08165    14.575392    27.830146 
   26600    242.07751   -227.55423    204420.41   -23140.244    1757.0645   -24897.308   -243.81096    240.45083    95.082055    14.571938    27.832248 
   26800    242.67734   -307.55187    204420.41   -23192.442    1761.4183    -24953.86   -533.75109    239.40075    95.079564    14.572553    27.839806 
   27000    241.50193   -326.77931    204420.41   -23154.216    1752.8868   -24907.103   -635.46152    240.69123    95.081357    14.571831    27.867679 
   27200    237.85893   -552.09297    204420.41   -23218.154    1726.4449   -24944.599   -1407.3105    241.92638    95.083179    14.571528    27.887422 
   27400    241.00866   -136.08009    204420.41   -23150.361    1749.3065   -24899.668    64.498007    240.74518    95.084148    14.575152    27.887033 
   27600    237.14719   -273.12152    204420.41   -23239.278    1721.2789   -24960.557   -412.68291    243.37479    95.084867    14.577988    27.909252 
   27800    244.06475   -256.79476    204420.41   -23106.444    1771.4885   -24877.933   -378.95021    243.46702    95.084157    14.581262    27.926602 
   28000    232.78729   -355.22518    204420.41   -23222.525    1689.6336   -24912.159   -784.47819    243.19267    95.086091    14.581892    27.907814 
   28200    240.90385    -135.8293    204420.41   -23196.955    1748.5457   -24945.501    31.231389      244.725    95.086055    14.579852     27.89319 
   28400    234.98732   -251.66322    204420.41   -23246.506     1705.602   -24952.108   -356.77309    246.37553    95.086387    14.578222    27.892312 
   28600    241.91342   -504.69924    204420.41    -23224.28    1755.8735   -24980.154   -1266.5362    248.19747    95.087165    14.579188    27.877955 
   28800    234.59217   -10.562861    204420.41   -23244.525    1702.7339   -24947.259    478.84299    248.25873    95.087281    14.578548    27.857255 
   29000    237.58868   -396.58883    204420.41   -23234.909    1724.4833   -24959.392    -862.0494    249.90907    95.085995    14.577943    27.879944 
   29200    241.79744   -469.69361    204420.41   -23216.325    1755.0317   -24971.357   -1104.4358    250.10341    95.085053     14.57895    27.877504 
   29400    248.27681   -261.14254    204420.41   -23248.978    1802.0607   -25051.039   -432.73125    251.94044    95.084449    14.579984     27.87408 
   29600    236.04594   -290.85049    204420.41    -23251.98    1713.2857   -24965.266   -524.69126    252.99552    95.085066    14.581788    27.882931 
   29800    232.43428   -394.43504    204420.41   -23345.072    1687.0714   -25032.144   -853.27352    254.79258    95.084486    14.584338    27.875827 
   30000    229.90565   -515.73321    204420.41   -23327.925    1668.7179   -24996.643   -1300.0343    257.55227    95.086257    14.585214    27.865571 
   30200    240.05253   -430.55226    204420.41    -23274.04    1742.3666   -25016.407   -988.77125    261.69267    95.086682    14.583305    27.874149 
   30400    234.79445    -529.8177    204420.41    -23260.77    1704.2021   -24964.972   -1342.3374    262.94528    95.086542    14.584886    27.862002 
   30600    233.24705   -161.96556    204420.41   -23335.352    1692.9706   -25028.323   -82.920838    262.15403    95.085869    14.583871    27.835767 
   30800    244.02383   -287.74077    204420.41   -23256.977    1771.1914   -25028.168   -525.89302    263.57485    95.084613    14.587004     27.83738 
   31000    237.03363   -241.81094    204420.41   -23234.513    1720.4547   -24954.968   -328.27757    265.37887    95.085284    14.585095    27.851586 
   31200    240.40408   -371.94953    204420.41   -23206.584    1744.9183   -24951.503   -769.54828    266.11766    95.085077    14.580071    27.864574 
   31400     241.6886   -480.37885    204420.41    -23188.28    1754.2417   -24942.521   -1130.5106    266.98172    95.085244    14.576752    27.869073 
   31600    234.71578   -393.39147    204420.41    -23256.77    1703.6311   -24960.401   -858.01426    268.55053    95.084899    14.575559    27.851772 
   31800     244.4879   -260.17537    204420.41   -23181.368    1774.5598   -24955.928   -389.41929    268.86638    95.084908     14.57593    27.842848 
   32000    245.01934    -254.6365    204420.41   -23261.011    1778.4171   -25039.429   -354.84946    270.98448    95.084078    14.575961    27.828645 
   32200    239.49501   -562.46006    204420.41   -23308.178      1738.32   -25046.498   -1464.2666    271.79094    95.080765    14.574689    27.829224 
   32400    232.77001   -365.73731    204420.41   -23357.258    1689.5082   -25046.766   -763.38316    271.03984    95.079255    14.575663    27.799374 
   32600     239.9496   -363.39995    204420.41   -23239.209    1741.6196   -24980.828   -749.86163    272.33444    95.079918    14.576459    27.812233 
   32800    244.73554   -234.08352    204420.41   -23219.456    1776.3572   -24995.813   -300.98136    274.74422    95.077668    14.577479    27.800851 
   33000    238.72992   -453.50473    204420.41   -23195.927    1732.7668   -24928.694   -1067.9672    277.15484    95.079444    14.577265     27.78984 
   33200    238.85143   -278.03447    204420.41   -23235.365    1733.6487   -24969.014   -474.67117    277.57811    95.083037    14.579903    27.774347 
   33400    237.25513   -482.04227    204420.41   -23262.637    1722.0624   -24984.699   -1155.3004    279.16943    95.083203    14.579973    27.783549 
   33600    237.64707   -349.44719    204420.41   -23283.442    1724.9072   -25008.349   -715.16464    278.98133    95.082729     14.57986    27.779253 
   33800    249.19285   -192.69781    204420.41   -23109.475    1808.7096   -24918.185   -150.66729    279.26235    95.083445    14.580889    27.770908 
   34000    237.88074   -358.55634    204420.41   -23208.018    1726.6032   -24934.621   -709.57009    280.24028    95.084333    14.579684     27.77301 
   34200    236.44312   -243.94609    204420.41   -23216.722    1716.1686    -24932.89   -346.52428    282.13861    95.085023    14.577621    27.794189 
   34400    241.37757   -205.11796    204420.41   -23250.055    1751.9842   -25002.039   -216.30571    285.81985    95.083547    14.576755    27.829422 
   34600    241.11504   -307.54251    204420.41   -23130.893    1750.0786   -24880.972   -564.55191    285.02776    95.082174    14.577594    27.829684 
   34800     237.4789   -250.26408    204420.41   -23181.398    1723.6865   -24905.084   -399.51242    287.71207    95.081937    14.578325    27.795087 
   35000     237.7781   -413.86135    204420.41   -23195.267    1725.8583   -24921.125   -878.25745    288.20764      95.0824    14.577647    27.805679 
   35200    241.50279   -359.28203    204420.41   -23152.818     1752.893   -24905.711   -719.64805    289.97001    95.083277    14.579187    27.806227 
   35400    242.78042   -282.69804    204420.41   -23167.874    1762.1665    -24930.04   -501.64055    290.56198    95.082805    14.582381    27.816127 
   35600    246.85501   -236.46257    204420.41   -23188.161     1791.741   -24979.902   -302.21858    293.42281    95.081545    14.584026     27.82107 
   35800    241.24322    -341.0989    204420.41   -23104.253     1751.009   -24855.262   -695.99579    295.70159    95.080308    14.586993    27.837186 
   36000    235.64087   -443.67456    204420.41   -23197.144    1710.3457    -24907.49    -1025.447    297.20361    95.080555    14.587814    27.861247 
   36200    245.80984   -325.60212    204420.41   -23214.144    1784.1548   -24998.298   -597.73046    298.91896    95.080444    14.586227    27.853967 
   36400    241.18249   -322.68434    204420.41   -23174.344    1750.5682   -24924.912   -623.22329    299.27966    95.080675    14.587759    27.862908 
   36600      247.729   -337.96774    204420.41    -23177.67    1798.0846   -24975.754    -590.2189    301.73826    95.080221    14.589917    27.874253 
   36800    234.65075   -302.70638    204420.41   -23270.214    1703.1591   -24973.374   -485.58904    303.14956    95.079192    14.590816      27.8835 
   37000    235.62406   -234.32909    204420.41   -23218.533    1710.2236   -24928.757   -315.72066    304.21696     95.07958    14.588388    27.895305 
   37200    246.01003   -452.23298    204420.41   -23227.765    1785.6078   -25013.373   -1043.2262    303.58259    95.079712    14.589267    27.894327 
   37400     240.0526   -282.06299    204420.41   -23254.307    1742.3672   -24996.674   -450.47939    302.92852    95.077961    14.591392    27.867774 
   37600     237.4994   -315.56254    204420.41    -23307.25    1723.8353   -25031.085    -569.6058    304.82248    95.077821    14.595274    27.868424 
   37800    235.80527   -316.15828    204420.41   -23342.251    1711.5389    -25053.79   -605.40615    305.91893    95.076669    14.599485    27.865245 
   38000    241.84495    -358.1724    204420.41   -23247.103    1755.3765    -25002.48   -709.62699    305.29041    95.076728     14.59927    27.840754 
   38200    240.87705   -441.60387    204420.41   -23243.708    1748.3512    -24992.06   -1006.2679    308.34699    95.076992    14.598615    27.844166 
   38400    240.30955   -302.50351    204420.41   -23162.563    1744.2322   -24906.796    -548.1389    308.40207    95.076648     14.59813    27.865598 
   38600    239.71337   -334.49903    204420.41   -23207.813     1739.905   -24947.718   -667.51903    311.29281    95.075627    14.597352    27.874564 
   38800    233.19615   -390.77316    204420.41   -23187.992    1692.6012   -24880.593   -815.85526    313.55051    95.075464    14.595063    27.872904 
   39000    238.67233   -203.10538    204420.41   -23121.286    1732.3488   -24853.635   -189.36923     313.6252    95.073746    14.594534     27.86431 
   39200    241.24286   -438.67779    204420.41   -23222.733    1751.0064   -24973.739   -1007.6338     315.7406    95.074711       14.594    27.853714 
   39400    240.21949   -270.64594    204420.41   -23191.904    1743.5785   -24935.483    -380.9199    316.82094    95.074434    14.593921    27.835234 
   39600    238.19792   -205.79317    204420.41   -23122.949    1728.9054   -24851.854   -193.75932    320.13948    95.074867    14.591645    27.842287 
   39800    236.63083   -175.03379    204420.41   -23200.216    1717.5311   -24917.747   -84.177243    323.54977    95.074408    14.591016    27.840621 
   40000     245.2389   -387.86335    204420.41   -23180.221    1780.0108   -24960.232   -803.59417    327.70825    95.075007     14.59074    27.822427 
   40200    247.35346   -445.49052    204420.41   -23193.783    1795.3588   -24989.141   -1010.7324    329.95702    95.078024    14.589317    27.810471 
   40400    238.05737    -440.7576    204420.41   -23252.395    1727.8852    -24980.28   -964.80455    332.32242    95.078949    14.589087    27.798506 
   40600     234.9366    -435.9933    204420.41   -23164.804    1705.2338   -24870.038   -935.68626    334.27184    95.079635    14.590271    27.794156 
   40800    238.77889   -617.26329    204420.41   -23238.901    1733.1223   -24972.023    -1624.094     335.3694    95.078565    14.589175    27.795772 
   41000    240.35769   -374.84409    204420.41   -23239.794    1744.5816   -24984.376   -750.25737    335.42603    95.080183    14.590897    27.804683 
   41200    243.91486   -242.10521    204420.41   -23140.726    1770.4005   -24911.127   -328.09309    336.54615    95.081018    14.593685    27.795818 
   41400     238.4441   -364.44184    204420.41   -23210.793    1730.6922   -24941.485   -699.92451    336.97796    95.079154    14.589565    27.799034 
   41600    240.96946   -279.83535    204420.41   -23213.515     1749.022   -24962.537   -466.28165    336.39012    95.079259      14.5869    27.797754 
   41800    244.36797   -373.01382    204420.41   -23250.132    1773.6893   -25023.822   -752.41766    339.70342    95.079359    14.586877    27.797813 
   42000    238.75466   -516.98631    204420.41   -23273.346    1732.9464   -25006.293   -1252.1166    340.10232    95.079442    14.587474    27.790948 
   42200    233.42272   -405.57435    204420.41   -23305.135    1694.2457   -24999.381   -873.35916    340.27078    95.078512    14.585932    27.805996 
   42400    240.92168    -391.6197    204420.41   -23245.194    1748.6752   -24993.869     -851.727     341.8955    95.077938    14.583814    27.802514 
   42600    237.70435   -68.552592    204420.41   -23244.329    1725.3229   -24969.652    271.64729    345.34855    95.077684    14.582691    27.813127 
   42800    244.05909   -362.25018    204420.41   -23184.615    1771.4474   -24956.062   -712.16613     347.5076    95.077234    14.580988    27.822082 
   43000    241.14791   -283.43986    204420.41   -23224.827    1750.3172   -24975.144   -468.31965     348.9982    95.076171    14.579752     27.82601 
   43200    242.16199   -358.94252    204420.41   -23250.225    1757.6777   -25007.902   -737.70743    347.96397    95.076732    14.579281    27.812093 
   43400    242.19319   -478.64196    204420.41   -23255.341    1757.9042   -25013.245   -1126.8323    348.30812    95.075667    14.580193    27.816546 
   43600    245.32639   -270.19966    204420.41   -23267.219    1780.6458   -25047.865   -420.24403    349.98685    95.073669    14.582429    27.810143 
   43800    234.55487   -366.55966    204420.41   -23279.984    1702.4632   -24982.447   -721.27468    351.98827    95.073724    14.579044    27.826704 
   44000    235.88517   -329.90249    204420.41   -23309.723    1712.1189   -25021.842   -635.35272    356.08412    95.073567    14.579626    27.822292 
   44200     236.6301   -122.03568    204420.41   -23282.939    1717.5258   -25000.465    108.18943    359.04387    95.072131    14.578541    27.817402 
   44400    238.74901   -188.92882    204420.41   -23308.527    1732.9053   -25041.433   -126.13421    360.94937    95.070578    14.581535    27.810529 
   44600    234.08341   -411.99065    204420.41   -23319.673    1699.0412   -25018.714   -874.53566    363.08992    95.071116    14.581537    27.798355 
   44800    237.29687   -422.03651    204420.41   -23312.093    1722.3653   -25034.459   -921.01733    365.02096    95.071937    14.581993    27.810225 
   45000    239.97584   -73.307336    204420.41   -23236.158      1741.81   -24977.968    274.74221    361.96479    95.070041    14.581529    27.812753 
   45200    237.69149   -328.03559    204420.41   -23203.855    1725.2296   -24929.084    -642.7458    359.99035    95.070617    14.583599    27.815805 
   45400    241.19817   -279.59987    204420.41    -23284.92    1750.6821   -25035.602   -437.59505    358.80571    95.071169    14.586266    27.830249 
   45600    241.72027   -452.87012    204420.41   -23192.437    1754.4716   -24946.909   -1038.0293    360.76385    95.070813    14.586972    27.814016 
   45800    239.58183   -225.09584    204420.41   -23203.608    1738.9502   -24942.558   -248.64428    363.02017    95.069972    14.586644    27.831641 
   46000    241.40762   -446.70244    204420.41   -23127.714    1752.2023   -24879.916   -1048.6369    364.55072    95.070228    14.585611     27.84467 
   46200    246.72376   -236.44067    204420.41   -23102.923    1790.7882   -24893.711   -281.74402    366.85099    95.069775    14.583059    27.846766 
   46400    235.29787   -340.09787    204420.41   -23159.097    1707.8561   -24866.954   -681.60571    366.79256    95.069321    14.582433    27.847542 
   46600    241.78913   -136.25521    204420.41     -23195.5    1754.9714   -24950.471    41.021829    368.07222    95.069658     14.58338    27.834506 
   46800    238.70506    -263.9029    204420.41   -23174.441    1732.5864   -24907.027   -373.64135     369.6427    95.069218    14.585592    27.833937 
   47000    240.73243   -364.29626    204420.41   -23151.123    1747.3016   -24898.425   -737.96512    370.48901    95.068092    14.585319    27.831107 
   47200    237.18647   -267.41644    204420.41   -23266.553     1721.564   -24988.117   -414.11259    371.36255    95.065838    14.587426    27.843065 
   47400    239.71265   -459.03615    204420.41   -23213.993    1739.8997   -24953.893   -1097.7682    372.61013    95.064509    14.589353    27.835446 
   47600    240.32052   -262.67804    204420.41   -23190.415    1744.3118   -24934.727   -354.58935    370.48377    95.062421    14.591449    27.832836 
   47800    242.60061    -380.1292    204420.41   -23262.551    1760.8613   -25023.412    -780.0377    373.46771    95.060001    14.592156     27.82258 
   48000    234.57788   -364.10844    204420.41   -23298.975    1702.6302   -25001.605   -755.14549    376.86276    95.060029    14.591274    27.821384 
   48200    237.19956   -381.52951    204420.41   -23262.557     1721.659   -24984.216   -777.41214    378.52316    95.059248    14.588827    27.805986 
   48400    239.49617   -210.33228    204420.41   -23233.289    1738.3284   -24971.618   -215.00536    380.43885    95.057425    14.588146    27.821371 
   48600    234.00294   -339.88078    204420.41   -23300.505    1698.4571   -24998.962   -646.24624    381.36893    95.056465    14.587832    27.821802 
   48800    238.15234   -419.90233    204420.41   -23262.954    1728.5746   -24991.529   -936.69931     381.6069    95.058943    14.589282    27.832604 
   49000    239.11598   -495.69339    204420.41   -23294.178    1735.5689   -25029.747   -1213.9095    382.15499    95.057406     14.58674    27.822199 
   49200    240.97435   -461.77013    204420.41    -23197.23    1749.0575   -24946.287   -1076.1305    382.55979    95.058629    14.585314    27.813336 
   49400    237.70312   -344.64659    204420.41   -23273.371     1725.314   -24998.685   -672.91618    385.24367    95.059608    14.583766    27.815766 
   49600     235.0472   -562.57801    204420.41    -23246.44    1706.0366   -24952.477   -1415.5258    387.19214    95.059945    14.583622     27.80703 
   49800    243.58029   -393.66235    204420.41   -23230.363    1767.9721   -24998.335   -893.44511    385.93271     95.05949    14.585137    27.815069 
   50000    240.69615   -415.13372    204420.41   -23263.715    1747.0383   -25010.753   -875.69262     387.2938    95.057865    14.585465    27.842541 
   50200    245.54219   -343.92604    204420.41   -23192.243    1782.2121   -24974.455   -663.68582    390.00923    95.055626    14.585791    27.861742 
   50400    239.22548   -255.66518    204420.41   -23217.976    1736.3637    -24954.34   -375.24116    392.12251    95.056755     14.58597    27.851479 
   50600    247.95081   -163.15925    204420.41   -23072.855    1799.6945    -24872.55   -24.398797    394.27663    95.058057    14.590054    27.833247 
   50800    238.94506   -396.63689    204420.41   -23297.638    1734.3284   -25031.967   -818.63674    395.74591    95.058302    14.593853    27.818305 
   51000    236.33686   -273.04123    204420.41   -23284.774    1715.3973   -25000.171   -425.10117    394.87605    95.057858    14.594041    27.826021 
   51200    235.45621   -362.08308    204420.41   -23275.528    1709.0053   -24984.533   -708.48355    394.77248    95.056303    14.592963    27.817952 
   51400    240.92831   -499.48039    204420.41   -23257.939    1748.7233   -25006.662    -1198.446    395.98885    95.057584    14.591281     27.80824 
   51600    236.07331   -258.85529    204420.41   -23273.465    1713.4844    -24986.95   -369.74171    398.79134    95.056511    14.589357    27.803055 
   51800    240.90264   -482.06981    204420.41   -23218.743     1748.537    -24967.28   -1186.3915    398.41476    95.054897    14.589004    27.788049 
   52000    239.92819   -482.93906    204420.41   -23288.785    1741.4642   -25030.249   -1141.7625    399.83306    95.051822    14.589258    27.802884 
   52200    231.87108   -322.98985    204420.41   -23270.843    1682.9835   -24953.826   -619.74503     403.7905    95.051245    14.590925    27.796595 
   52400    227.43993   -402.77977    204420.41   -23364.536     1650.821   -25015.357   -913.13199    406.26523    95.050268    14.594939    27.780724 
   52600    239.09977   -418.30117    204420.41   -23235.454    1735.4513   -24970.905   -927.45645    410.77014    95.048309    14.597746    27.796728 
   52800    245.66515   -377.16769    204420.41   -23173.286    1783.1046   -24956.391   -785.49016    414.50081    95.050322    14.599532    27.789955 
   53000    245.53037   -459.58167    204420.41   -23181.799    1782.1263   -24963.926   -1104.6765    419.54662    95.052625    14.601766     27.78595 
   53200    239.12515    -284.0543    204420.41   -23325.803    1735.6355   -25061.439   -476.90618    421.25004    95.052699    14.599676    27.804409 
   53400    235.34634   -303.19772    204420.41    -23284.24    1708.2079   -24992.448   -530.33874    421.72699    95.052333    14.600064    27.803071 
   53600     229.5944    -401.0052    204420.41   -23326.284    1666.4587   -24992.742   -897.89762    420.97906    95.052749    14.598763    27.794598 
   53800     236.5245    -433.2149    204420.41   -23244.444    1716.7593   -24961.203   -977.33243     422.5195    95.054229    14.598947    27.778355 
   54000    242.03028   -190.67344    204420.41   -23200.419    1756.7217    -24957.14   -162.51697    424.07993    95.055624    14.598773    27.793309 
   54200    242.59784   -380.63136    204420.41   -23210.473    1760.8412   -24971.315   -790.86222    424.24792    95.055315    14.597611    27.811155 
   54400    245.74311   -265.34367    204420.41   -23178.642    1783.6705   -24962.312   -386.21993    422.83192    95.055021    14.598517    27.802858 
   54600    240.94601   -445.64602    204420.41   -23218.212    1748.8518   -24967.063   -988.33962    420.87902    95.054908    14.600399    27.799724 
   54800    240.27031     -239.847    204420.41   -23201.315    1743.9474   -24945.262   -339.06549     421.6052    95.054612    14.603576    27.813046 
   55000    243.29473   -376.43974    204420.41   -23160.958    1765.8995   -24926.858   -780.75647    423.50934    95.055373    14.602652    27.811021 
   55200    237.11454   -404.78521    204420.41    -23286.86    1721.0419   -25007.902   -902.69211    426.77898    95.054961    14.602381    27.834557 
   55400    238.52623   -346.17499    204420.41   -23246.681    1731.2883   -24977.969   -647.95451    427.76793    95.055186    14.603667    27.832491 
   55600     240.0019   -196.19124    204420.41   -23203.358    1741.9992   -24945.357   -173.97248    430.01384    95.055924    14.604301     27.82572 
   55800     243.7647   -320.04835    204420.41   -23096.894    1769.3106   -24866.204   -585.62639    430.27136    95.055166    14.605486    27.825706 
   56000    243.68914   -346.22723    204420.41    -23124.36    1768.7622   -24893.122    -686.8768     433.7423    95.053956    14.602855    27.831004 
   56200    247.26123    -234.0685    204420.41   -23129.377    1794.6894   -24924.066   -293.86352    435.67017    95.054669    14.601827    27.857853 
   56400    239.03039   -240.61303    204420.41   -23255.291    1734.9477   -24990.239   -321.26986    436.72609    95.054884    14.600652    27.874063 
   56600    233.85423   -361.19149    204420.41   -23345.468    1697.3777   -25042.846   -727.02373    437.11122    95.056277    14.601796    27.877994 
   56800    239.96949   -229.26656    204420.41   -23251.671    1741.7639   -24993.435   -264.57534    438.69422    95.056021    14.600846     27.87497 
   57000    230.39437   -450.81621    204420.41   -23325.984    1672.2651   -24998.249    -1050.739    439.73413      95.0545    14.602024    27.866657 
   57200    241.43047   -451.78202    204420.41   -23191.367    1752.3682   -24943.735   -1097.4876    442.18088    95.054598    14.599792     27.85576 
   57400    236.18953   -387.00483    204420.41   -23196.189    1714.3279   -24910.517   -825.33651     443.3915    95.053888    14.601933     27.86853 
   57600    236.26519   -173.21921    204420.41   -23271.348    1714.8771   -24986.225   -93.921186    444.17298    95.053622    14.600544    27.870583 
   57800    239.37127   -567.43654    204420.41   -23182.649    1737.4219   -24920.071   -1429.0596    447.18186    95.054525    14.598875    27.888779 
   58000    241.33617   -266.55851    204420.41   -23229.353    1751.6837   -24981.037   -417.65516    446.76343    95.056249    14.599027    27.882448 
   58200     247.4877   -172.01534    204420.41   -23221.842    1796.3332   -25018.176   -74.244545    448.86685    95.056027    14.600934    27.878528 
   58400    238.77635   -413.02555    204420.41   -23213.315    1733.1038   -24946.419   -931.58761    450.20151    95.055931    14.600035    27.860703 
   58600    237.45225   -150.49879    204420.41   -23246.676    1723.4931   -24970.169    13.030757    449.79305    95.055361    14.601454     27.85901 
   58800    238.89162   -430.26998    204420.41   -23210.307    1733.9405   -24944.248   -993.60666    450.62899    95.055372    14.601208     27.84893 
   59000    241.59812   -288.33097    204420.41    -23129.04     1753.585   -24882.625   -439.66115    451.07555    95.054307    14.603168    27.842524 
   59200    242.27573   -285.44719    204420.41   -23191.977    1758.5032   -24950.481    -469.1525    450.71539    95.053083    14.603445    27.874412 
   59400    236.90592   -426.00893    204420.41   -23193.709    1719.5278   -24913.237   -1000.0204    452.79983    95.054132     14.60404    27.874973 
   59600    233.26347   -219.35025    204420.41   -23212.005    1693.0899   -24905.094    -290.0218    455.22255    95.053496    14.604325    27.887654 
   59800    241.60112   -371.15047    204420.41   -23188.986    1753.6068   -24942.592   -777.27002    455.08706    95.053021    14.604068    27.867553 
   60000    240.78048   -161.52011    204420.41    -23161.52    1747.6503    -24909.17    -10.91556    454.62179    95.052254    14.605534    27.846129 
   60200    241.28472   -147.70311    204420.41   -23210.679    1751.3102   -24961.989     7.103273    455.42245     95.05125    14.604914    27.855365 
   60400    242.34951   -303.80295    204420.41     -23168.5    1759.0388   -24927.539   -519.12604    453.23491    95.050136    14.604382    27.863016 
   60600    242.37582   -574.88832    204420.41   -23179.446    1759.2297   -24938.676   -1478.0743    454.69717    95.050785    14.604484     27.86041 
   60800    242.00564   -228.00792    204420.41   -23109.462    1756.5429   -24866.005   -284.74256    455.72008     95.05057    14.604501    27.858951 
   61000    239.61754   -290.02958    204420.41   -23173.036    1739.2094   -24912.245   -478.13331    455.71023    95.049575    14.604787    27.854565 
   61200    241.69503    -339.0621    204420.41   -23132.513    1754.2883   -24886.801   -662.43512    457.28713    95.050017    14.608821     27.86727 
   61400    238.01274   -421.22677    204420.41   -23154.084    1727.5613   -24881.646   -953.07147    455.81414    95.050885    14.613472    27.853385 
   61600     238.5988   -441.50852    204420.41   -23212.354    1731.8151   -24944.169   -1001.2122    457.63088    95.051361    14.613462    27.853768 
   61800    234.83167   -453.11987    204420.41   -23263.041    1704.4723   -24967.514    -1047.028    458.42835    95.051186    14.616411    27.850861 
   62000     237.2834   -509.81967    204420.41   -23195.004    1722.2676   -24917.272   -1190.7625    458.08123    95.053006    14.619316    27.864373 
   62200    245.17021   -510.46766    204420.41    -23210.41    1779.5122   -24989.922      -1279.2    459.82377    95.051391    14.621206    27.875872 
   62400     237.3171   -271.73615    204420.41   -23220.983    1722.5122   -24943.495   -444.38043    460.80392    95.051687    14.618708    27.853389 
   62600    238.38609   -585.77095    204420.41   -23231.069    1730.2712    -24961.34   -1499.3378    464.47724    95.050644    14.617394    27.861097 
   62800    228.80024   -326.37013    204420.41   -23299.406    1660.6945   -24960.101   -609.58015      463.279    95.051086    14.615178    27.860084 
   63000    243.55604   -305.83047    204420.41   -23202.698    1767.7961   -24970.494   -528.70783    464.94092    95.051838    14.612755    27.857451 
   63200    244.22475   -452.41977    204420.41   -23277.731    1772.6498    -25050.38   -1001.7659    470.03797    95.052451    14.610677    27.881661 
   63400    237.16894     -413.333    204420.41   -23310.853    1721.4368    -25032.29   -936.29212    471.57926    95.053143    14.607948    27.870517 
   63600    236.12544   -441.55098    204420.41   -23324.431    1713.8628   -25038.293   -1021.6144    472.08049    95.054342    14.606541    27.880066 
   63800    231.36435    -372.7837    204420.41   -23335.881    1679.3055   -25015.186   -761.10292    474.11678    95.054514    14.608022     27.89515 
   64000    247.53508   -268.59611    204420.41   -23202.487    1796.6771   -24999.164    -446.2168    474.24992    95.055095    14.605815    27.883702 
   64200     241.7654   -375.65853    204420.41   -23196.322    1754.7991   -24951.122   -803.92668    474.04767     95.05427    14.607243    27.896006 
   64400    235.84407   -47.403931    204420.41    -23287.35    1711.8205    -24999.17     349.9301    474.90388    95.052791     14.60771    27.901806 
   64600    241.47993   -236.41629    204420.41    -23305.21    1752.7271   -25057.938   -312.63081     476.1229    95.053187    14.607362    27.895702 
   64800    236.55195   -426.75286    204420.41   -23334.849    1716.9585   -25051.807   -954.04441    480.04183    95.053239    14.611027    27.863806 
   65000    246.07965   -314.60346    204420.41   -23245.193    1786.1131   -25031.306    -550.1508    483.10767    95.053385    14.612427    27.848062 
   65200    236.13939   -426.90289    204420.41   -23271.863     1713.964   -24985.827    -955.8862     485.0453    95.055478    14.614719    27.863708 
   65400    233.89288   -535.22787    204420.41   -23313.432    1697.6583   -25011.091   -1349.4054     484.7164    95.056218    14.617768    27.881026 
   65600    246.11751   -464.45461    204420.41   -23237.667    1786.3879   -25024.055     -1090.98    484.59678    95.054718    14.617448    27.880964 
   65800    244.74974   -249.43537    204420.41   -23274.596    1776.4603   -25051.056   -357.41636     482.9472    95.054296    14.617848    27.867808 
   66000    242.59728    -351.3837    204420.41   -23269.397    1760.8372   -25030.234   -709.61095    482.26058    95.053144    14.618982    27.859463 
   66200    237.38871   -442.05958    204420.41    -23327.03    1723.0319   -25050.061   -1043.6463    483.70911     95.05322    14.620578    27.852996 
   66400    239.61629   -433.96752    204420.41   -23288.092    1739.2003   -25027.292   -987.19038    484.47929    95.051946    14.618752    27.820378 
   66600     237.9154   -393.69312    204420.41   -23311.688    1726.8548   -25038.542    -837.5473    487.03042     95.05235    14.614779    27.817901 
   66800    233.78317   -544.82673    204420.41   -23304.382    1696.8619   -25001.244   -1333.8719    487.62488    95.051328    14.611259    27.814439 
   67000    230.57497   -390.71201    204420.41   -23369.442     1673.576   -25043.018   -848.23564    490.37232    95.049426    14.611085    27.821077 
   67200    236.55128   -262.93312    204420.41   -23305.494    1716.9536   -25022.448   -393.59235    492.60447    95.047562    14.609281    27.822432 
   67400     238.3082   -363.43827    204420.41   -23260.476    1729.7059   -24990.181    -714.5601    492.52289     95.04655    14.606919    27.842655 
   67600    238.83178   -443.68134    204420.41   -23211.743    1733.5061   -24945.249   -1020.8489    493.90744    95.045203    14.606383     27.86572 
   67800    238.58501   -256.92328    204420.41   -23230.334     1731.715   -24962.049    -392.0845    494.26659    95.044487     14.60559    27.857318 
   68000    234.11224   -534.74688    204420.41   -23289.865    1699.2504   -24989.115   -1344.9745    497.55265    95.043527    14.601312     27.86501 
   68200    241.45993   -312.11194    204420.41   -23255.393    1752.5819   -25007.975   -541.10598    498.22677    95.045192    14.599741    27.855325 
   68400    241.50248   -336.99008    204420.41    -23231.73    1752.8908   -24984.621   -648.13617    497.24179     95.04705    14.600044    27.859748 
   68600     234.8387   -313.36294    204420.41   -23276.742    1704.5233   -24981.266   -585.22489    496.51165    95.047925    14.601193    27.865899 
   68800     242.6908   -186.52645    204420.41   -23201.948     1761.516   -24963.464   -135.69559     497.7709    95.050882    14.600128    27.865626 
   69000    235.75126   -398.51289    204420.41   -23211.969    1711.1468   -24923.116   -846.80128    499.55048    95.051424    14.599668    27.872691 
   69200    238.20852   -422.65861    204420.41   -23286.701    1728.9823   -25015.683   -971.91424    500.46893    95.051064    14.602572    27.896596 
   69400    236.62188   -308.27998    204420.41    -23322.44     1717.466   -25039.906   -553.77894    502.17566    95.051347    14.605705     27.90016 
   69600     249.7811    -417.7895    204420.41   -23199.002    1812.9793   -25011.982   -951.72111    504.80474    95.049477    14.609337    27.914138 
   69800    240.67945   -378.91313    204420.41   -23268.818    1746.9171   -25015.735   -776.69802    505.24443    95.050206    14.611218    27.900295 
   70000    232.53936   -293.91028    204420.41   -23302.352    1687.8341   -24990.186   -508.47708    506.81087    95.049712    14.614776    27.908928 
   70200     244.7929    -327.9894    204420.41   -23202.797    1776.7736   -24979.571   -609.63628    507.41573    95.049204    14.614811    27.891903 
   70400    239.45385   -272.67455    204420.41    -23203.51    1738.0213   -24941.531   -422.20515    505.19737    95.047934    14.615488    27.890014 
   70600    236.07845   -501.19506    204420.41   -23255.635    1713.5217   -24969.157   -1255.4039    504.07248    95.047597    14.616755    27.881023 
   70800     240.2157   -284.96008    204420.41   -23259.453     1743.551   -25003.004   -472.97391    503.83671    95.047003    14.617324    27.886196 
   71000    239.35204   -132.62852    204420.41   -23273.286    1737.2823   -25010.569    32.946881    504.06814    95.047867    14.616307    27.866535 
   71200     238.5241   -463.56717    204420.41   -23252.622    1731.2729   -24983.895   -1130.0713    506.47884    95.047425    14.618044    27.867157 
   71400    239.55005   -337.10335    204420.41   -23257.819    1738.7195   -24996.538   -678.07876    506.17169    95.047137    14.620236    27.849149 
   71600    241.01711   -365.19646    204420.41    -23162.36    1749.3678   -24911.728   -765.76289    506.88223    95.048671    14.622099    27.836032 
   71800     231.5982   -349.25185    204420.41   -23259.983    1681.0028   -24940.986   -723.91311     505.8439    95.048531    14.626366    27.833821 
   72000    238.12793   -409.86185    204420.41   -23274.724    1728.3974   -25003.121    -902.5594    505.88623    95.048508    14.628964    27.829855 
   72200    244.19544   -471.02593    204420.41   -23128.437     1772.437   -24900.874    -1106.273     508.0378    95.048771    14.629366    27.834372 
   72400    239.65993   -408.73548    204420.41   -23186.453    1739.5171   -24925.971   -886.12643    510.39421     95.04771    14.629854    27.833116 
   72600     246.6959   -337.20589    204420.41   -23214.253     1790.586   -25004.839   -648.99113    509.81325    95.046749    14.627799    27.827954 
   72800    233.99429    -187.9727    204420.41   -23270.487    1698.3943   -24968.881   -119.63791    511.10481     95.04528    14.624262    27.820902 
   73000    237.15652   -174.00784    204420.41   -23250.302    1721.3466   -24971.649   -92.060224    511.31222    95.044854    14.620542    27.812844 
   73200    244.14772   -436.70216    204420.41   -23182.784    1772.0907   -24954.875   -989.69297    511.89633    95.044483    14.622484    27.802245 
   73400     239.7266   -220.61514    204420.41   -23172.549     1740.001    -24912.55   -233.52045    512.33872    95.042927     14.62071    27.790305 
   73600    238.83094   -295.69825    204420.41   -23204.885    1733.5001   -24938.385   -516.54733    514.00499    95.042213    14.621024    27.796145 
   73800    234.42185   -349.87758    204420.41   -23319.931    1701.4976   -25021.429   -676.45353    516.86676    95.042226    14.616087    27.787044 
   74000    238.15524   -399.61713    204420.41   -23338.983    1728.5957   -25067.579    -883.9731     516.4783    95.041336     14.61453    27.758477 
   74200    241.94835   -199.50263    204420.41   -23224.908     1756.127   -24981.035   -208.69874    518.00149    95.041948    14.610081    27.751713 
   74400     244.5911   -258.50451    204420.41     -23228.3    1775.3089   -25003.609   -382.50959    520.51855    95.044312    14.609368    27.761472 
   74600    238.99219   -542.82714    204420.41   -23225.261    1734.6705   -24959.931   -1385.8583    520.14886    95.043936    14.610813    27.767459 
   74800     240.5353   -190.16773    204420.41   -23280.616    1745.8708   -25026.487   -160.65593    519.81356    95.043629    14.612512    27.771187 
   75000    245.90187   -340.82473    204420.41    -23284.21    1784.8228   -25069.032   -624.68913     519.6358    95.043423     14.61155    27.787692 
   75200    245.47286   -353.76394    204420.41   -23184.422    1781.7089   -24966.131   -697.98467    520.75654    95.042878    14.610163    27.796689 
   75400    237.30618   -310.10506    204420.41   -23283.639    1722.4329   -25006.072   -548.25034    521.93854    95.042058    14.611615    27.811659 
   75600    236.30582   -386.81054    204420.41   -23215.242     1715.172   -24930.414   -800.96124    523.16587    95.043302    14.612104     27.81436 
   75800    234.16724   -529.29063    204420.41   -23193.876    1699.6496   -24893.526   -1358.4126    524.61295    95.042508    14.612933    27.826399 
   76000    242.90573   -310.54334    204420.41   -23165.237    1763.0759   -24928.313   -544.40904    525.70114    95.043977    14.611672    27.833487 
   76200    237.55941   -312.01138    204420.41   -23263.809    1724.2709    -24988.08    -575.7561    524.91022    95.043405    14.610487    27.843702 
   76400    242.01167   -268.58365    204420.41   -23239.934    1756.5866   -24996.521   -410.93029    526.05267    95.042312    14.611308    27.853965 
   76600     241.6662   -313.50106    204420.41   -23193.096    1754.0792   -24947.175   -588.84969    529.15054    95.041412    14.611408    27.871024 
   76800    240.04019   -323.62999    204420.41   -23204.737    1742.2771   -24947.014   -594.90148    530.86693    95.041204    14.608332    27.870482 
   77000    239.89958    -359.4492    204420.41   -23233.619    1741.2565   -24974.875   -741.96071     532.4964    95.040604     14.60803    27.869568 
   77200    241.65027   -316.82892    204420.41   -23208.778    1753.9635   -24962.741   -577.35685    535.68217    95.040294    14.610006    27.871629 
   77400    244.51947    -274.4389    204420.41   -23212.012     1774.789   -24986.801    -416.0228    536.90889    95.041269    14.611498    27.854837 
   77600    234.84647   -199.16726    204420.41   -23255.708    1704.5797   -24960.287   -159.85091    537.16007    95.040579    14.612917     27.84935 
   77800    243.10613   -316.89383    204420.41   -23279.375    1764.5305   -25043.905   -594.80743      537.692    95.037967    14.612764    27.836825 
   78000    242.13528   -324.84498    204420.41   -23248.497    1757.4839   -25005.981   -601.25371     539.0341    95.038259    14.610952    27.848392 
   78200    236.40376   -417.61012    204420.41   -23230.867    1715.8829    -24946.75   -919.55256    539.07465    95.038468    14.610487    27.851786 
   78400    244.48052   -314.53649    204420.41   -23167.124    1774.5062    -24941.63   -565.19115    540.05121    95.039283    14.609796    27.859168 
   78600    240.98027   -429.96932    204420.41   -23203.001    1749.1005   -24952.101   -966.85033    541.13419    95.039216    14.609194    27.878288 
   78800    246.50741   -397.18652    204420.41   -23173.035     1789.218   -24962.253   -829.12978    543.95729    95.038942    14.608038    27.878315 
   79000    238.62268   -320.01915    204420.41   -23181.967    1731.9884   -24913.956   -579.55381    543.72626    95.039691    14.610664    27.897934 
   79200    245.98378   -426.84598    204420.41    -23156.54    1785.4173   -24941.958   -968.20856    545.69503    95.040229    14.611741    27.923288 
   79400    249.08203   -319.01036    204420.41   -23188.411    1807.9052   -24996.316   -623.84106    547.58362    95.040319    14.610056    27.919555 
   79600    238.96635   -279.32522    204420.41   -23314.173    1734.4829   -25048.656   -433.91428    548.43054    95.041676    14.612488    27.935036 
   79800    240.33626   -285.81363    204420.41   -23291.491     1744.426   -25035.917   -446.61156    550.96869    95.040554    14.612317    27.938509 
   80000    236.27481   -287.64796    204420.41   -23327.447    1714.9469   -25042.394   -511.71645    552.39827    95.039722    14.614599    27.914368 
   80200    238.46202   -290.32638    204420.41   -23313.613    1730.8223   -25044.435     -506.161    551.55825    95.039591    14.615661    27.878145 
   80400     234.1403   -220.63366    204420.41   -23318.097    1699.4541   -25017.551   -232.84254    554.68915    95.037249    14.615612    27.878986 
   80600    237.66937   -431.07334    204420.41   -23284.471     1725.069    -25009.54   -957.49097    556.21606    95.035477    14.612761    27.870364 
   80800    236.45461   -196.15448    204420.41    -23199.59     1716.252   -24915.842   -152.42516    556.45831    95.035464    14.611913    27.858311 
   81000    234.62903   -331.98084    204420.41   -23204.904    1703.0015   -24907.905   -609.16323    559.50746    95.035632    14.612683    27.842087 
   81200    245.60527   -527.52397    204420.41   -23150.387      1782.67   -24933.057   -1326.8776    561.62687    95.035588    14.613158     27.81904 
   81400    245.66365    -399.5592    204420.41   -23135.057    1783.0937    -24918.15   -886.67047    563.90111    95.036697    14.612828    27.826894 
   81600    236.29036   -394.16187    204420.41   -23224.435    1715.0598   -24939.495   -849.14229      565.899    95.036978    14.613528    27.852058 
   81800    227.52939   -213.71349    204420.41   -23283.008    1651.4703   -24934.478   -220.13531    565.76187    95.036779    14.615199    27.864591 
   82000    240.55858   -290.16206    204420.41   -23223.766    1746.0397   -24969.805   -531.24286    567.55803    95.036659     14.61577    27.852102 
   82200    241.16512   -457.84237    204420.41   -23157.582    1750.4422   -24908.024   -1055.5992    566.58802    95.037167    14.613365    27.836937 
   82400    242.77756   -270.33492    204420.41   -23251.196    1762.1457   -25013.342   -424.65517    565.28001    95.036935    14.610898    27.830329 
   82600    245.36192   -409.18051    204420.41   -23154.938    1780.9036   -24935.842   -896.71605    568.04604    95.037341    14.611621    27.810157 
   82800    242.54729   -246.75076    204420.41   -23253.744    1760.4743   -25014.219   -373.87661    570.25809    95.037019     14.60931    27.802635 
   83000    251.32133   -327.55737    204420.41    -23164.58    1824.1587   -24988.738   -649.73593    571.82906    95.038574    14.610048    27.824765 
   83200    239.13723   -349.29398    204420.41   -23236.684    1735.7232   -24972.407   -758.81948    571.95508    95.037949    14.609545    27.826151 
   83400    238.63161    -410.8317    204420.41   -23215.021    1732.0533   -24947.075   -949.30028    574.31755    95.039577    14.613672     27.82275 
   83600    240.05374    -333.5438    204420.41   -23359.891    1742.3755   -25102.267   -651.72471    575.01964    95.039858    14.612088    27.804547 
   83800    239.99206   -245.76375    204420.41   -23287.405    1741.9278   -25029.333   -349.09229    576.02165     95.04099    14.610058    27.802964 
   84000    237.82492   -168.60169    204420.41   -23283.633    1726.1981   -25009.831   -93.082936    576.76313    95.042377    14.609853    27.786447 
   84200    246.11211   -331.89649    204420.41    -23245.48    1786.3488   -25031.829   -651.49116    578.52054    95.042073     14.60793     27.79428 
   84400    232.83479   -320.81815    204420.41   -23309.593    1689.9783   -24999.572   -567.10172    578.71752    95.042215     14.60677    27.780918 
   84600    237.79296   -146.59401    204420.41   -23273.308    1725.9661   -24999.274    7.5213291     579.1769    95.043854    14.607763    27.762227 
   84800    236.20552   -525.52874    204420.41   -23267.776     1714.444    -24982.22   -1337.5427    581.60561     95.04597    14.609172    27.757845 
   85000    238.23653   -340.58934    204420.41   -23237.166    1729.1857   -24966.352    -652.9627    582.38879    95.046685    14.609957    27.791613 
   85200    241.26191   -314.51354    204420.41   -23218.606    1751.1447    -24969.75   -655.38309    581.12899    95.048107     14.61246    27.812245 
   85400    234.68764   -331.97586    204420.41   -23300.189    1703.4268   -25003.616   -628.98151     581.2217    95.048157    14.610825    27.810782 
   85600    237.82317   -411.83004    204420.41   -23258.704    1726.1854    -24984.89   -911.93509    581.38196    95.048927    14.609691    27.821846 
   85800    238.14642   -443.48753    204420.41   -23246.903    1728.5316   -24975.435   -1060.1763    582.53105    95.049236    14.612608    27.837849 
   86000    240.26472   -271.85754    204420.41   -23195.855    1743.9068   -24939.762    -435.6253    585.91768    95.049689    14.611763    27.823036 
   86200    244.23671   -452.12146    204420.41   -23173.715    1772.7366   -24946.451   -1034.7688    588.12555    95.050132    14.611101     27.82933 
   86400    226.69659   -665.33201    204420.41   -23253.268    1645.4256   -24898.694   -1832.8916    590.19752    95.049983    14.613604    27.820095 
   86600    239.64294   -414.47913    204420.41   -23168.813    1739.3937   -24908.206   -936.49809    588.09078    95.051224    14.619545    27.814221 
   86800    235.94786   -334.82774    204420.41   -23257.122    1712.5738   -24969.696   -653.47037     589.5143    95.051483    14.620394    27.801106 
   87000    238.87635   -496.00532    204420.41   -23212.526    1733.8297   -24946.356   -1224.9172    590.58739    95.052559     14.61998    27.802938 
   87200     243.0914    -243.6691    204420.41   -23196.114    1764.4236   -24960.538   -322.49434    593.03128    95.053242    14.621703    27.795644 
   87400    239.73024   -382.21892    204420.41   -23278.568    1740.0274   -25018.596   -807.60035    596.93768    95.055615    14.622333    27.780228 
   87600    239.94529   -341.99862    204420.41   -23162.413    1741.5883   -24904.001   -693.70599    598.86313    95.058026    14.622503    27.783022 
   87800    241.83624   -351.53017    204420.41   -23189.777    1755.3133    -24945.09   -719.89377    602.02277    95.057137    14.624773    27.791647 
   88000    240.44656    -347.4361    204420.41   -23203.579    1745.2267   -24948.805   -679.79784     601.9664    95.057098    14.623212    27.804332 
   88200    233.08492   -410.17529    204420.41   -23219.081    1691.7938   -24910.874     -957.794     602.8297    95.058462    14.626065    27.797548 
   88400    242.81772   -263.20539    204420.41   -23165.978    1762.4372   -24928.415   -434.01621     602.4139    95.056471    14.624341    27.801754 
   88600    238.67397   -365.78024    204420.41   -23212.807    1732.3607   -24945.167   -794.35837    604.85658    95.056429    14.619263    27.810247 
   88800    232.50918   -215.13717    204420.41   -23224.703    1687.6149   -24912.318   -251.76104    601.67823    95.056664    14.619217     27.79797 
   89000    239.65563   -211.39601    204420.41   -23195.271    1739.4858   -24934.757   -252.76165    601.42921    95.055726     14.61967    27.801749 
   89200    242.68633   -322.71057    204420.41   -23222.612    1761.4835   -24984.095   -636.74261    599.39352    95.056246    14.620678    27.794625 
   89400    247.29426   -178.40252    204420.41   -23171.681    1794.9291    -24966.61   -129.82012    600.97057    95.057786    14.622356    27.793739 
   89600    233.55939   -370.81235    204420.41   -23313.265    1695.2377   -25008.503   -754.18849    603.56544    95.056426    14.623978    27.806073 
   89800     242.9299   -350.62033    204420.41   -23209.026    1763.2514   -24972.277   -719.54396    604.03527    95.057044    14.626142    27.813714 
   90000    247.86883   -459.52283    204420.41   -23236.563    1799.0995   -25035.662   -1110.4776    603.53852      95.0561    14.624359    27.809839 
   90200    240.40576   -446.40787    204420.41   -23285.501    1744.9305   -25030.431   -1041.9139    602.68504    95.055436    14.622028    27.819876 
   90400    239.81654   -153.34687    204420.41   -23254.313    1740.6538   -24994.967   -32.964085    603.51901    95.057894    14.623665     27.82605 
   90600    243.30975   -320.43772    204420.41   -23263.812    1766.0085   -25029.821   -604.86793    606.07618    95.059358    14.623275    27.839435 
   90800    240.22815   -547.97085    204420.41   -23238.817    1743.6414   -24982.459   -1418.9307    607.40194    95.059605    14.626235    27.833796 
   91000    236.90153   -182.58708    204420.41   -23294.722    1719.4958   -25014.218   -145.62949    607.65203    95.061197    14.623617    27.823232 
   91200    230.30453   -218.23323    204420.41   -23389.611     1671.613   -25061.224   -255.90161     609.7209    95.062195    14.621868    27.826747 
   91400    238.03734   -380.14335    204420.41   -23295.193    1727.7399   -25022.933   -765.99517    610.97197    95.063129      14.6202    27.807739 
   91600    243.53033   -230.40125    204420.41   -23218.475    1767.6095   -24986.084   -275.01994    612.42415    95.063742     14.61927    27.788392 
   91800    241.56336   -371.67314    204420.41    -23252.72    1753.3327   -25006.053   -782.75385    614.61672    95.063345    14.619126    27.799828 
   92000     237.4762    -391.0455    204420.41   -23234.546    1723.6669   -24958.213    -859.1719    614.98775    95.064742    14.616623     27.80325 
   92200    242.18344   -280.84496    204420.41   -23224.169    1757.8334   -24982.003   -415.43845    616.57418    95.065223    14.618462    27.792337 
   92400    241.32339   -530.10777    204420.41   -23189.741    1751.5909   -24941.332   -1353.5894    617.71589    95.063729    14.619677    27.778344 
   92600    239.96839   -164.27103    204420.41   -23189.054    1741.7559    -24930.81   -93.942745    617.55441    95.064132    14.621328    27.769699 
   92800    234.59148   -524.48669    204420.41   -23272.524    1702.7289   -24975.253   -1281.8905    619.44769    95.064322    14.622327    27.762787 
   93000    237.72919   -409.95332    204420.41   -23295.103    1725.5032   -25020.607   -902.38121     621.5308    95.064148    14.623566    27.765573 
   93200    239.09186   -271.35399    204420.41   -23282.009    1735.3939   -25017.403   -425.41272    621.21039     95.06308    14.624374    27.769387 
   93400    237.79958   -421.08721    204420.41   -23331.441    1726.0141   -25057.455   -959.35043    622.25031     95.06091    14.622981    27.774268 
   93600    235.61404   -300.85166    204420.41   -23253.423    1710.1509   -24963.574   -496.82686    621.41885    95.059076     14.62225     27.77326 
   93800    232.42923   -348.67423    204420.41   -23244.219    1687.0346   -24931.253   -704.34774    622.16224    95.058844    14.623273    27.772718 
   94000    239.90875   -197.80322    204420.41   -23281.003    1741.3231   -25022.326   -113.21447    625.33137    95.059357    14.624093    27.765249 
   94200    239.50303   -405.00766    204420.41   -23179.843    1738.3783   -24918.221   -958.37378     628.4862     95.05968    14.621725    27.765718 
   94400    239.23257   -439.48349    204420.41   -23220.742    1736.4152   -24957.158   -1018.8334    629.35715    95.059732    14.620143    27.756376 
   94600    234.26318   -292.89031    204420.41   -23214.898     1700.346   -24915.244   -522.81212    630.85593    95.061352    14.620482    27.755884 
   94800    243.04015   -251.50685    204420.41   -23201.067    1764.0517   -24965.118   -355.30982    630.34493    95.060883    14.622697    27.754894 
   95000    240.53747   -320.48449    204420.41   -23281.118    1745.8865   -25027.004   -593.15947    633.62751    95.061935    14.627162    27.744194 
   95200    241.72281   -319.21474    204420.41   -23262.049      1754.49   -25016.539    -579.6769    634.13043    95.062488    14.627601    27.757336 
   95400    244.34927   -352.97782    204420.41   -23234.046    1773.5536     -25007.6   -710.46352    636.46417    95.063363    14.626384     27.73703 
   95600    239.36744   -289.12655    204420.41   -23176.755    1737.3941   -24914.149   -513.15441    636.08193    95.064142    14.626765    27.725553 
   95800    238.80669   -391.85609    204420.41   -23162.476     1733.324     -24895.8    -838.9836    638.14223    95.064188    14.626664     27.69927 
   96000    244.09995    -343.5735    204420.41   -23180.933    1771.7439   -24952.677   -666.09409    641.15483    95.064888    14.626246    27.689768 
   96200     245.2946   -354.66523    204420.41    -23125.97    1780.4151   -24906.385   -701.89036    641.51777    95.065337    14.629072    27.690916 
   96400    237.29176   -386.03236    204420.41   -23226.825    1722.3283   -24949.153   -826.95925    641.69137    95.064018    14.630405    27.699826 
   96600    234.27295   -372.45154    204420.41    -23250.65    1700.4169   -24951.067   -787.25692    643.13208    95.063313    14.627068    27.701525 
   96800    245.07924   -224.98306    204420.41   -23238.686    1778.8519   -25017.538   -261.49675    643.34221     95.06239    14.627863     27.70761 
   97000      239.151   -434.74442    204420.41   -23244.868    1735.8231   -24980.691   -1009.8808    646.41347    95.061579    14.629367    27.720642 
   97200     237.4494   -406.72886    204420.41   -23252.199    1723.4725   -24975.672   -895.42339    647.50822    95.059633    14.630424    27.723399 
   97400    242.45483   -336.09998    204420.41   -23264.917    1759.8032    -25024.72   -650.77479    646.57839    95.060814    14.630872    27.722944 
   97600    240.57115    -404.2532    204420.41   -23172.249     1746.131    -24918.38   -905.37317    647.81527    95.061372    14.629289     27.71232 
   97800    241.91711   -373.59227    204420.41   -23193.682    1755.9003   -24949.582   -756.58899    647.39742    95.064336     14.63091    27.714664 
   98000    238.06695   -358.47007    204420.41   -23208.902    1727.9548   -24936.857    -768.6128    647.31126    95.064696    14.629971    27.720072 
   98200     235.3809   -376.31474    204420.41   -23231.477    1708.4587   -24939.936   -780.37526    649.26417    95.064065    14.627649    27.752042 
   98400    239.75192   -283.36672    204420.41   -23143.527    1740.1848   -24883.712   -442.80683     650.5817     95.06588    14.627997    27.757988 
   98600    236.66178     -284.984    204420.41   -23173.017    1717.7557   -24890.773   -466.28252    651.41865    95.064506    14.630574     27.76115 
   98800    242.91283   -180.40129    204420.41    -23175.15    1763.1275   -24938.277   -116.49557     651.2536    95.065395    14.634119    27.784274 
   99000    239.13934   -288.13803    204420.41   -23211.789    1735.7385   -24947.527   -482.18687    651.72778    95.066612    14.638303    27.793445 
   99200     240.4464   -193.56351    204420.41   -23136.768    1745.2255   -24881.994   -152.01528    654.65322    95.067234    14.640209    27.803519 
   99400    244.87129   -385.15998    204420.41   -23174.688    1777.3425   -24952.031   -792.17463    658.10489    95.067637    14.640652    27.811903 
   99600    239.63527   -386.09892    204420.41   -23170.932    1739.3381    -24910.27    -858.4822    657.79254    95.069418    14.640139    27.827349 
   99800    238.90852   -331.58423    204420.41   -23206.711    1734.0632   -24940.774   -595.35869     656.9749    95.069967    14.641213    27.833113 
  100000    242.41138   -355.06101    204420.41   -23213.876    1759.4878   -24973.364   -687.01811    659.05652    95.070273    14.640974    27.836863 
  100200    237.50285      -447.94    204420.41   -23237.531    1723.8604   -24961.392   -1071.7949    661.00084    95.070132    14.639387    27.814405 
  100400     241.6726   -149.23323    204420.41   -23164.713    1754.1256   -24918.838   -20.289844    662.69844    95.070707    14.638497    27.829062 
  100600     241.0894   -466.78075    204420.41   -23197.294    1749.8926   -24947.187   -1111.7934    665.18756    95.072052    14.638591    27.816333 
  100800    239.44636   -400.70197    204420.41   -23250.649    1737.9669   -24988.616   -868.37285    667.60846    95.072311    14.639893    27.814903 
[...]
 5175800    231.30124   -571.05084    204420.41   -25501.917    1678.8474   -27180.764   -1472.1432    6835.1205    95.062403    14.848697    27.646581 
 5176000    228.11065   -720.69223    204420.41     -25515.1    1655.6893   -27170.789   -2003.2259    6838.6474    95.063098    14.847799    27.642385 
 5176200     222.5465    -564.0772    204420.41   -25530.199    1615.3031   -27145.502   -1401.1393    6830.6967    95.062416    14.846345    27.642024 
 5176400    225.70684   -660.69034    204420.41   -25461.928    1638.2418    -27100.17   -1755.6057    6839.0721    95.063289    14.846754    27.646811 
 5176600    233.53697   -574.24321    204420.41   -25376.239    1695.0749   -27071.314   -1487.4199     6838.004    95.063627    14.848871    27.636424 
 5176800    226.11011   -572.69557    204420.41   -25430.606    1641.1688   -27071.774   -1432.0516    6836.8588    95.064822    14.850226    27.645471 
 5177000    235.90668   -632.46727    204420.41   -25408.783     1712.275   -27121.058   -1673.1776    6833.7951    95.066803    14.850311    27.641867 
 5177200    235.81182   -640.86312    204420.41   -25387.114    1711.5864     -27098.7   -1648.8052    6833.4179    95.066303    14.850398    27.641861 
 5177400    232.05792    -688.0537    204420.41   -25356.837    1684.3396   -27041.176   -1834.0366    6839.3947    95.066208    14.850742    27.652107 
 5177600    227.32329   -521.44508    204420.41   -25447.582    1649.9744   -27097.556   -1282.2783    6834.6621    95.066573    14.851647    27.645713 
 5177800    232.61854   -728.87003    204420.41   -25478.108    1688.4087   -27166.517   -2003.2071    6840.8164    95.066257    14.851324    27.658358 
 5178000    224.16211   -621.41702    204420.41   -25476.356    1627.0296   -27103.385   -1593.5737    6830.7954    95.066963    14.850675    27.654805 
 5178200    224.95987   -656.10031    204420.41    -25467.94      1632.82    -27100.76   -1782.5971    6834.7019    95.067029    14.850752    27.662232 
 5178400    221.04036   -794.38025    204420.41   -25473.915    1604.3712   -27078.286   -2266.4702    6838.6814     95.06648    14.850211    27.663116 
 5178600    230.91868   -537.10764    204420.41   -25446.798    1676.0707   -27122.869     -1370.38    6834.5174    95.066327    14.851576    27.662318 
 5178800    228.64905   -734.19558    204420.41   -25454.997    1659.5971   -27114.594   -2001.1096    6839.8995    95.066413    14.852511    27.665317 
 5179000    227.66088   -609.80331    204420.41   -25473.579    1652.4247   -27126.003   -1600.1735    6829.8423    95.066273    14.853759    27.669517 
 5179200    219.54098   -708.58803    204420.41   -25471.928    1593.4883   -27065.417   -1873.2438    6833.8926    95.066324    14.853667    27.659701 
 5179400    235.07853   -715.70217    204420.41   -25416.059     1706.264   -27122.323   -1946.9033    6838.5786    95.065829    14.854539     27.65266 
 5179600    229.23928   -624.58022    204420.41   -25478.395    1663.8811   -27142.276   -1628.7054    6836.7729    95.065622    14.854578    27.657709 
 5179800    220.49455      -725.14    204420.41   -25453.846    1600.4095   -27054.255   -1956.4471    6840.7197    95.064324    14.855623    27.644715 
 5180000    224.06655   -529.28161    204420.41   -25568.554    1626.3361    -27194.89   -1306.8646    6831.2469     95.06452    14.855966    27.650756 
 5180200    226.28059   -803.14602    204420.41   -25529.756    1642.4061   -27172.162   -2276.3196    6837.6086    95.065403    14.855149     27.66445 
 5180400    224.36174   -569.77747    204420.41   -25457.177    1628.4786   -27085.656   -1447.9287    6831.6962    95.064596    14.854137    27.657461 
 5180600    228.57458   -725.02819    204420.41   -25456.731    1659.0566   -27115.787   -1962.5271    6838.5018     95.06509    14.852508    27.668919 
 5180800     230.2843   -612.38817    204420.41   -25494.046    1671.4662   -27165.513   -1592.1478    6833.4396    95.064805    14.853563    27.669603 
 5181000    224.66775   -641.91151    204420.41   -25541.091    1630.6997   -27171.791   -1668.4197    6836.3152    95.064251    14.852994    27.662081 
 5181200      227.633   -735.66878    204420.41   -25504.949    1652.2223   -27157.171   -2021.7726    6834.2438    95.064711      14.8522    27.654901 
 5181400    227.53363   -540.13989    204420.41   -25413.187    1651.5011   -27064.689   -1335.1507    6832.4987    95.065373    14.852014    27.669508 
 5181600      219.066   -839.63125    204420.41   -25535.496    1590.0407   -27125.536   -2393.5385    6842.5012    95.065646    14.852712    27.651208 
 5181800    232.72276   -553.66193    204420.41   -25432.866    1689.1652   -27122.031    -1397.418    6832.8813    95.065412    14.853167    27.655457 
 5182000    226.75465   -756.81294    204420.41   -25458.231     1645.847   -27104.078   -2065.0755    6838.5689    95.065652    14.853781    27.640043 
 5182200    233.02959   -647.65635    204420.41    -25428.25    1691.3923   -27119.643   -1713.3702    6835.2788    95.064798    14.853749    27.661509 
 5182400    218.52811   -613.84431    204420.41   -25504.762    1586.1366   -27090.898   -1590.9222    6834.1448    95.065112    14.854227    27.660961 
 5182600    222.88306   -686.52488    204420.41   -25472.727    1617.7459   -27090.473   -1853.8712    6837.9394    95.064869    14.854119    27.659346 
 5182800    224.85087   -544.86096    204420.41   -25444.659    1632.0288   -27076.688   -1334.0971    6833.4202    95.065043    14.854979    27.672154 
 5183000    229.06579   -871.50306    204420.41   -25412.404    1662.6219   -27075.026   -2482.3875    6839.8689    95.065295      14.8552    27.665858 
 5183200    234.07379   -575.34395    204420.41   -25437.828    1698.9714   -27136.799   -1489.6505    6832.8111     95.06583     14.85611    27.657822 
 5183400    220.70933   -665.57978    204420.41   -25571.113    1601.9684   -27173.081   -1763.8752    6837.4971     95.06605    14.856184    27.656545 
 5183600    224.65199   -574.92325    204420.41   -25553.279    1630.5853   -27183.864   -1488.1146    6835.0329    95.066104    14.856018    27.658394 
 5183800    225.13474   -675.49078    204420.41   -25531.422    1634.0893   -27165.511   -1821.1854    6838.8178    95.065043    14.854812    27.670285 
 5184000    233.01823   -644.35185    204420.41   -25450.846    1691.3098   -27142.156   -1689.0819    6836.4722     95.06486    14.853912     27.66765 
 5184200    226.19942   -647.62453    204420.41   -25456.584     1641.817   -27098.401    -1727.717    6836.0079    95.065136    14.852774     27.66599 
 5184400    235.75809   -715.04992    204420.41   -25446.014    1711.1964   -27157.211   -1965.1369    6838.0748    95.065423    14.852815     27.68049 
 5184600    227.74409    -599.0494    204420.41   -25494.271    1653.0287   -27147.299   -1522.1621    6833.7742    95.064751    14.853226    27.682128 
 5184800    227.14279   -673.09907    204420.41   -25464.531    1648.6643   -27113.196   -1783.0101    6839.2128    95.064949    14.853333    27.666393 
 5185000    227.95457    -648.3789    204420.41   -25464.094    1654.5564    -27118.65    -1660.304     6838.154    95.064034    14.854568    27.665578 
 5185200    223.67736   -615.43637    204420.41   -25539.253    1623.5112   -27162.764   -1606.4719    6835.8863    95.063837    14.854402    27.666676 
 5185400    228.20121   -772.91454    204420.41   -25463.113    1656.3465   -27119.459   -2153.2843    6839.2511    95.063885    14.854659    27.665397 
 5185600    225.12632   -446.46267    204420.41   -25463.949    1634.0281   -27097.977   -1001.6559     6831.694     95.06445    14.855848     27.66087 
 5185800    230.07566    -782.9022    204420.41   -25440.556    1669.9518   -27110.508   -2184.9635    6841.3843    95.064843    14.856792     27.65546 
 5186000     225.1477   -630.00749    204420.41   -25443.524    1634.1834   -27077.707   -1639.4216    6835.2296    95.064162     14.85798    27.649824 
 5186200    227.66489   -652.46137    204420.41   -25423.675    1652.4538   -27076.129   -1751.6891    6839.6411    95.064687    14.858581    27.661362 
 5186400    233.77188   -726.61713    204420.41   -25454.644      1696.78   -27151.424   -1996.8987    6837.2552    95.064088    14.858374    27.650958 
 5186600    229.61565   -602.63286    204420.41   -25448.395    1666.6129   -27115.008   -1572.3765    6836.0514    95.064545    14.858264    27.656464 
 5186800    224.61411   -682.28507    204420.41   -25454.532    1630.3104   -27084.843   -1815.1604     6837.645    95.064142    14.859401    27.668836 
 5187000    233.03894   -671.09029    204420.41    -25419.97    1691.4601    -27111.43   -1790.6155    6838.8359    95.063374    14.859835    27.645824 
 5187200    230.13991   -697.93893    204420.41    -25478.34    1670.4182   -27148.758   -1881.9912    6837.9864    95.062493    14.859421    27.649625 
 5187400    229.61814   -563.23405    204420.41   -25511.801     1666.631   -27178.432   -1448.2782     6835.284    95.062171    14.858669    27.663937 
 5187600    233.09331   -726.83308    204420.41   -25424.182    1691.8548   -27116.036   -1965.7225    6837.0181    95.061433    14.859965    27.667946 
 5187800    227.84534   -604.53793    204420.41   -25467.191    1653.7635   -27120.955    -1567.341    6833.7555    95.060511    14.860752    27.666621 
 5188000    226.40993    -698.7486    204420.41   -25407.328     1643.345   -27050.673   -1876.5797    6839.5845    95.060879    14.862009    27.654559 
 5188200    227.78594   -579.21423    204420.41   -25458.472    1653.3324   -27111.805   -1516.0545    6835.1279    95.061193    14.863654    27.642113 
 5188400    223.61028   -615.24932    204420.41   -25459.553    1623.0243   -27082.577   -1607.5401    6835.0852    95.061669    14.864937    27.657943 
 5188600    224.92996   -660.21516    204420.41   -25487.424    1632.6029   -27120.027    -1754.673    6836.7562       95.061    14.866526    27.665422 
 5188800    226.48527   -583.65446    204420.41   -25526.125    1643.8918   -27170.017   -1513.7281    6833.9952    95.060404    14.867916    27.663983 
 5189000    229.37986   -670.29711    204420.41   -25482.212    1664.9016   -27147.114   -1796.5348     6836.388    95.060456    14.869471    27.658718 
 5189200    219.55967   -588.12396    204420.41   -25577.192    1593.6239   -27170.816   -1512.3742    6835.2389    95.060468    14.870482    27.662398 
 5189400    227.00436   -669.08544    204420.41   -25526.293    1647.6595   -27173.952   -1772.3446    6839.7539    95.059616    14.871884    27.655666 
 5189600    227.18188   -634.61234    204420.41   -25446.159     1648.948   -27095.107   -1672.0353    6835.2514    95.059775    14.874301    27.650692 
 5189800    228.30138    -680.4545    204420.41   -25483.817    1657.0737    -27140.89   -1842.3003    6838.9629    95.060558    14.874796    27.646213 
 5190000    226.61086    -611.9071    204420.41   -25475.989    1644.8034   -27120.792   -1589.1553    6836.0069    95.059807    14.875186    27.649867 
 5190200    224.81448   -585.57108    204420.41   -25490.031    1631.7647   -27121.795   -1499.8766    6837.8718    95.059635      14.8751    27.653438 
 5190400    229.54689    -644.1059    204420.41   -25405.425    1666.1139   -27071.539   -1746.8516    6837.6187    95.059197    14.875827     27.65697 
 5190600    231.65111   -596.09451    204420.41   -25485.257    1681.3869   -27166.644   -1518.1381    6835.6868    95.058586    14.875517    27.651806 
 5190800    228.20182   -685.87082    204420.41    -25448.45     1656.351   -27104.801     -1840.24    6837.5809    95.057552    14.875696    27.650051 
 5191000    225.57347   -655.79313    204420.41   -25467.413    1637.2737   -27104.686   -1745.9016     6834.719    95.057013    14.877195    27.659929 
 5191200    227.74977   -655.61223    204420.41    -25464.84    1653.0699    -27117.91   -1717.0184    6836.2616    95.056969    14.876194    27.635451 
 5191400    227.06256   -737.52121    204420.41   -25443.507    1648.0819   -27091.589   -2030.2581     6836.886    95.057405    14.876828    27.646347 
 5191600    220.90456    -661.0792    204420.41    -25462.88    1603.3855   -27066.265   -1800.2542    6833.5229    95.056641    14.876634    27.646307 
 5191800    231.16631   -659.63673    204420.41   -25414.736    1677.8681   -27092.604   -1744.4991    6837.1809    95.056199    14.876371    27.638296 
 5192000    231.73007   -613.26701    204420.41    -25405.43      1681.96    -27087.39   -1564.9428    6833.3367    95.056622     14.87579    27.642559 
 5192200    227.26875   -649.43239    204420.41   -25462.678    1649.5785   -27112.257   -1752.5184    6834.9891    95.056796    14.876038    27.648706 
 5192400     224.7362   -749.89298    204420.41   -25459.096    1631.1965   -27090.292   -2080.2149    6839.9074    95.056526    14.876498    27.654376 
 5192600    225.82635   -553.26872    204420.41   -25481.242    1639.1092   -27120.351   -1388.1175    6831.3616    95.056326    14.878654    27.653747 
 5192800    230.85772    -753.3049    204420.41   -25432.655    1675.6282   -27108.283   -2065.8475    6839.5302    95.056902    14.878471    27.647734 
 5193000    222.80123   -613.70821    204420.41   -25495.858     1617.152    -27113.01   -1611.8297    6834.0698    95.056928     14.87904    27.647424 
 5193200    229.12635   -682.85296    204420.41   -25438.501    1663.0615   -27101.562   -1848.7935    6833.4342    95.056849    14.879331    27.661626 
 5193400     226.6732   -696.00646    204420.41   -25428.552    1645.2559   -27073.808   -1903.3323    6838.0172    95.056677    14.880367     27.64569 
 5193600    226.46125   -554.78766    204420.41   -25403.997    1643.7175   -27047.714   -1390.1802    6834.5671    95.058336    14.881571     27.64954 
 5193800     230.5233   -732.52971    204420.41   -25431.258    1673.2009   -27104.459   -2053.1963    6838.7659    95.057801    14.881315    27.651837 
 5194000    218.43934   -775.04941    204420.41   -25534.625    1585.4923   -27120.117   -2154.4509    6836.8972    95.057796    14.881621    27.667262 
 5194200    226.64627    -665.2093    204420.41   -25481.794    1645.0604   -27126.855   -1773.1484    6837.4672    95.057633    14.881708    27.658421 
 5194400     228.7184   -508.68467    204420.41   -25433.794    1660.1004   -27093.894   -1208.6469    6835.7522    95.057696    14.882619    27.661481 
 5194600    228.95084   -682.15209    204420.41   -25398.972    1661.7876   -27060.759   -1869.3034    6839.3338    95.057522    14.883149    27.667329 
 5194800    231.91085   -699.46134    204420.41   -25423.737    1683.2721   -27107.009   -1875.5097    6835.7204    95.056826    14.883431    27.665701 
 5195000    226.43027   -583.38105    204420.41   -25443.361    1643.4926   -27086.854   -1500.9688    6832.3544    95.057402    14.883741    27.662516 
 5195200    220.12339   -690.93871    204420.41   -25427.014    1597.7155   -27024.729   -1868.8008    6837.3871     95.05771    14.884822    27.662674 
 5195400    228.09612    -655.0346    204420.41   -25446.591    1655.5838   -27102.175   -1749.5174    6837.7657    95.058185    14.885011    27.643308 
 5195600    225.15573   -565.14627    204420.41   -25484.378    1634.2417    -27118.62   -1415.1672     6835.568    95.058341    14.883983     27.64824 
 5195800    231.64967   -617.69521    204420.41   -25373.821    1681.3764   -27055.198   -1612.3101    6838.2674    95.057027    14.883114    27.653231 
 5196000     230.2077   -725.31864    204420.41   -25454.091    1670.9102   -27125.001   -1993.2196    6836.1489    95.056124    14.884935    27.651527 
 5196200    221.54449   -632.38225    204420.41   -25451.231    1608.0303   -27059.262    -1660.627    6836.0293    95.055873    14.886193    27.661214 
 5196400    227.81381   -636.28676    204420.41   -25435.476    1653.5347   -27089.011   -1692.1772    6838.7718    95.054776    14.885695    27.654404 
 5196600    229.87195   -545.28861    204420.41   -25423.108    1668.4733   -27091.582   -1386.8119    6837.1405    95.054818    14.884666    27.659065 
 5196800     224.3112   -621.10984    204420.41   -25414.692    1628.1118   -27042.804   -1651.3588    6836.9549    95.054706    14.885094    27.653326 
 5197000    234.09437   -616.51672    204420.41   -25363.026    1699.1207   -27062.147   -1576.2381    6839.2821    95.054943    14.885079    27.644954 
 5197200    227.53477   -529.79142    204420.41   -25459.695    1651.5094   -27111.205   -1287.4811    6834.8486    95.054397    14.885959    27.655471 
 5197400    223.24772   -696.10471    204420.41   -25459.745    1620.3928   -27080.138   -1890.2101    6838.9746    95.053886    14.886196    27.661051 
 5197600    222.60202   -692.61371    204420.41   -25495.515    1615.7061   -27111.221   -1855.4483    6838.0779     95.05438     14.88709    27.655954 
 5197800    219.65473   -574.44787    204420.41   -25529.507    1594.3139   -27123.821   -1431.6615    6835.0089    95.054225    14.886895    27.657953 
 5198000    232.01689   -720.47823    204420.41   -25406.094    1684.0418   -27090.135   -1979.1217    6836.7028    95.053776    14.886778      27.6607 
 5198200    233.48605   -656.75756    204420.41   -25422.995    1694.7054   -27117.701   -1762.7406    6836.9611    95.053133    14.887478    27.656904 
 5198400    224.40276   -600.01686    204420.41   -25485.259    1628.7764   -27114.035   -1523.2109    6836.2491    95.052971    14.888906    27.658192 
 5198600    228.84839   -667.71177    204420.41   -25528.858     1661.044   -27189.902   -1787.0542    6838.9265    95.052432    14.891068    27.646872 
 5198800    230.28377   -631.01677    204420.41   -25450.655    1671.4624   -27122.118   -1685.9994    6831.2305    95.052031    14.890647    27.655128 
 5199000    231.17455   -680.04253    204420.41   -25389.591    1677.9278   -27067.519   -1855.3226    6837.2179    95.052575    14.892197    27.660724 
 5199200    230.67899   -597.60596    204420.41    -25446.76     1674.331   -27121.091   -1560.6575    6836.7312    95.052129    14.892201    27.661532 
 5199400    225.01591   -584.82711    204420.41   -25447.781    1633.2268   -27081.008   -1479.7972    6835.2719    95.051296    14.894856    27.664621 
 5199600    232.38345   -672.74652    204420.41   -25443.655    1686.7024   -27130.357   -1779.2322    6838.5198    95.050851    14.895693     27.66883 
 5199800    227.17603   -663.70309    204420.41   -25454.596    1648.9055   -27103.502   -1787.9388    6832.2436    95.050537    14.895887    27.664636 
 5200000    229.01721   -674.95578    204420.41   -25399.368    1662.2693   -27061.638   -1817.6456    6835.3924    95.050316    14.895596    27.678248 
Loop time of 6330.34 on 160 procs for 5200000 steps with 8482 atoms

Performance: 709.725 ns/day, 0.034 hours/ns, 821.441 timesteps/s
97.9% CPU use with 160 MPI tasks x no OpenMP threads

MPI task timing breakdown:
Section |  min time  |  avg time  |  max time  |%varavg| %total
---------------------------------------------------------------
Pair    | 0.24431    | 1585.1     | 5018.9     |4606.7 | 25.04
Neigh   | 0.33937    | 89.268     | 324.16     |1094.5 |  1.41
Comm    | 8.4924     | 1617.7     | 5112.7     |4273.3 | 25.56
Output  | 80.971     | 81.039     | 82.891     |   1.6 |  1.28
Modify  | 297.39     | 2866.6     | 6157.4     |4672.9 | 45.28
Other   |            | 90.58      |            |       |  1.43

Nlocal:    53.0125 ave 164 max 0 min
Histogram: 58 7 55 0 0 0 0 5 5 30
Nghost:    543.175 ave 870 max 0 min
Histogram: 16 4 1 3 14 34 20 16 25 27
Neighs:    0 ave 0 max 0 min
Histogram: 160 0 0 0 0 0 0 0 0 0
FullNghs:  5298.4 ave 20639 max 0 min
Histogram: 88 32 0 0 0 0 0 7 12 21

Total # of neighbors = 847744
Ave neighs/atom = 99.9462
Neighbor list builds = 552755
Dangerous builds = 0
write_data 		${DIR}/data.${NAME}_run
write_data 		run_16/data.${NAME}_run
write_data 		run_16/data.ibeam_cooling_16_run
Total wall time: 1:45:44
