
# Set production fixes - Nose/Hoover
#
fix                 4 water temp/csvr ${START_TEMP} ${END_TEMP} 500.0 928347
fix                 4 water temp/csvr 240 ${END_TEMP} 500.0 928347
fix                 4 water temp/csvr 240 227 500.0 928347


## divide "droplet" into core and surface
#region		core_reg cylinder z 135 135 44.6 20 INF units box
#region		surface_reg cylinder z 135 135 44.6 20 INF units box side out
#group		core dynamic all region core_reg
#group		surface dynamic all region surface_reg

## compute pressure core
#compute        peratom_core core stress/atom NULL
#compute        p_core core reduce sum c_peratom_core[1] c_peratom_core[2] c_peratom_core[3]
#variable       press_core equal -(c_p_core[1]+c_p_core[2]+c_p_core[3])/(3*1249982.5)


## compute pressure surface
#compute        peratom_surf surface stress/atom NULL
#compute        p_surf surface reduce sum c_peratom_surf[1] c_peratom_surf[2] #c_peratom_surf[3]
#variable       press_surf equal -(c_p_surf[1]+c_p_surf[2]+c_p_surf[3])/(3*42395)

## compute total pressure of drop
compute        peratom water stress/atom NULL
compute        p water reduce sum c_peratom[1] c_peratom[2] c_peratom[3]
variable       press equal -(c_p[1]+c_p[2]+c_p[3])/(3*58301)


# compute order parameter
compute        3 all orientorder/atom nnn NULL cutoff 3.5

# compute center of mass of bridge
compute 	4 water com

# Run simulation
thermo_style        custom step c_2 press vol etotal ke pe v_press c_1[4] c_4[*]
thermo              200
dump		     1 water custom 400 ${DIR}/prod.${NAME}.dump id type x y z vx vy vz c_3[*] c_peratom[*]
dump		     1 water custom 400 run_1/prod.${NAME}.dump id type x y z vx vy vz c_3[*] c_peratom[*]
dump		     1 water custom 400 run_1/prod.ibeam_cooling_1.dump id type x y z vx vy vz c_3[*] c_peratom[*]
run                 ${STEPS}
run                 5200000
Neighbor list info ...
  update every 1 steps, delay 0 steps, check yes
  max neighbors/atom: 2000, page size: 100000
  master list distance cutoff = 6.6747184
  ghost atom cutoff = 6.6747184
  binsize = 3.3373592, bins = 48 11 14
  2 neighbor lists, perpetual/occasional/extra = 1 1 0
  (1) pair sw, perpetual
      attributes: full, newton on
      pair build: full/bin/atomonly
      stencil: full/bin/3d
      bin: standard
  (2) compute orientorder/atom, occasional, copy from (1)
      attributes: full, newton on
      pair build: copy
      stencil: none
      bin: none
Per MPI rank memory allocation (min/avg/max) = 6.099 | 6.622 | 7.309 Mbytes
Step c_2 Press Volume TotEng KinEng PotEng v_press c_1[4] c_4[1] c_4[2] c_4[3] 
       0    242.23759    -275.0605    263624.46   -25712.908    1960.4044   -27673.312   -776.45086    36.487392    78.605603    18.371158    27.460434 
     200    237.62694   -238.92789    263624.46   -25714.796    1923.0909   -27637.887   -602.18654    37.560169    78.605521    18.371873    27.463535 
     400    237.09016   -293.57782    263624.46   -25726.437    1918.7468   -27645.183   -806.40066    40.140972     78.60423    18.372342    27.462616 
     600    244.84374   -306.83257    263624.46   -25609.657    1981.4957   -27591.152    -876.9578    42.338553    78.604173    18.370711    27.462362 
     800     243.7244   -268.84958    263624.46   -25593.062     1972.437   -27565.499   -684.86921    44.007723     78.60336    18.370576    27.470356 
    1000    240.80905   -222.23622    263624.46   -25667.554    1948.8434   -27616.397   -457.77998    46.556483    78.604624    18.371765    27.464952 
    1200     247.9966   -185.72897    263624.46   -25658.398    2007.0115   -27665.409   -352.68965    47.472224    78.603463    18.373245    27.463022 
    1400    243.87712   -273.97154    263624.46   -25681.683     1973.673   -27655.356   -702.06225    48.854607    78.604286    18.372419    27.473508 
    1600    237.88742   -150.20079    263624.46    -25668.39    1925.1989   -27593.589   -167.01708    49.645259    78.605376    18.371764    27.460848 
    1800     245.5642   -334.96792    263624.46   -25669.165    1987.3264   -27656.491   -1016.2926    50.618359    78.604219    18.370966    27.449467 
    2000    249.98532   -61.688744    263624.46   -25606.577     2023.106   -27629.683    210.26972    51.790379    78.604917    18.369761    27.454604 
    2200    240.75186   -305.31058    263624.46   -25672.193    1948.3805   -27620.573   -849.84553    52.965748    78.604522    18.369533     27.46232 
    2400    246.74226   -394.74442    263624.46   -25649.823    1996.8602   -27646.683   -1270.0192    54.598427    78.602467    18.369518    27.465474 
    2600     237.2258   -284.37812    263624.46   -25733.454    1919.8445   -27653.298   -773.45604    56.515112    78.603494    18.369676    27.446876 
    2800    242.08594    -238.9134    263624.46   -25640.253    1959.1772   -27599.431   -539.79504    57.971281    78.603134    18.368513    27.459449 
    3000    241.14973   -301.30947    263624.46   -25648.966    1951.6005   -27600.566   -842.24342    59.633871    78.602065    18.369301    27.474958 
    3200    235.55861   -220.16619    263624.46   -25725.484    1906.3521   -27631.836   -474.76795    61.662274    78.601321     18.36874    27.465621 
    3400    243.58688   -317.80562    263624.46   -25754.846    1971.3241    -27726.17   -937.09182    63.294419    78.601423    18.367657    27.443089 
    3600    244.23246   -325.40477    263624.46   -25749.642    1976.5487   -27726.191   -923.64185    64.611783      78.6015    18.365891    27.439082 
    3800     241.2391   -246.34737    263624.46    -25688.93    1952.3238   -27641.253   -618.73402    65.722366    78.603404    18.366205    27.442687 
    4000    239.25099   -241.19673    263624.46   -25732.663    1936.2342   -27668.897   -592.98213    67.426754    78.601545    18.366598    27.443241 
    4200    247.04156   -236.92406    263624.46   -25648.727    1999.2825   -27648.009   -522.96744    69.014304    78.600458     18.36585    27.456917 
    4400    239.26746   -216.52287    263624.46   -25664.158    1936.3675   -27600.525   -466.18382    70.747766    78.601039    18.366517    27.461567 
    4600    236.74347   -333.42675    263624.46    -25761.55    1915.9411   -27677.492   -996.48494    72.069618    78.600312    18.366755    27.449881 
    4800    244.40356   -131.64834    263624.46   -25614.311    1977.9334   -27592.245    -105.6919    73.115257    78.600174    18.366351    27.441255 
    5000    234.79162   -341.49424    263624.46   -25650.835    1900.1449   -27550.979   -1059.6953    74.394021     78.59905    18.365207    27.437223 
    5200    242.04999   -140.35382    263624.46   -25687.045    1958.8862   -27645.931   -125.93229    76.516674    78.599215    18.363706    27.432164 
    5400    239.16635   -219.98384    263624.46    -25726.79    1935.5492   -27662.339   -449.46194     78.12124    78.598756    18.363399    27.435912 
    5600    240.95661   -288.58464    263624.46   -25761.499    1950.0375   -27711.536   -784.53555    81.352567     78.59877    18.364102    27.444331 
    5800    241.59585   -353.03373    263624.46   -25685.332    1955.2108   -27640.543   -1068.4104    83.052288    78.598721    18.365252    27.430598 
    6000    240.96713   -207.11959    263624.46   -25735.508    1950.1227   -27685.631   -406.62955    84.790916    78.598276    18.363433     27.44014 
    6200    236.15202    -383.6007    263624.46    -25748.67    1911.1545   -27659.824   -1176.8039    87.330004    78.597397      18.3638    27.443419 
    6400    239.33871   -288.58213    263624.46   -25739.014    1936.9441   -27675.958    -776.3875    88.715755    78.596352    18.363434     27.43388 
    6600    238.90754   -228.25235    263624.46   -25747.268    1933.4546   -27680.722   -518.56576     89.83091    78.597736    18.361119    27.433208 
    6800    239.30616   -199.71143    263624.46   -25767.235    1936.6806   -27703.915   -401.10097    91.189684    78.598323    18.361472    27.423173 
    7000    244.37605   -263.91417    263624.46   -25741.465    1977.7108   -27719.176   -672.38901    92.504335    78.597276    18.361418    27.419506 
    7200    236.60527   -294.69667    263624.46   -25866.366    1914.8227   -27781.189   -801.18158    94.311706    78.598496    18.363447    27.412544 
    7400    236.78004   -440.21624    263624.46   -25770.584     1916.237   -27686.821     -1427.32    95.876238    78.600766    18.364327    27.406041 
    7600    246.23316   -207.18997    263624.46   -25689.207    1992.7402   -27681.947    -427.9006    97.343342    78.600782    18.363256    27.390671 
    7800    235.77305    -442.7258    263624.46   -25845.933    1908.0875   -27754.021   -1467.4768    98.109066    78.599665    18.363359    27.399341 
    8000    241.96346   -245.32311    263624.46   -25745.299    1958.1859   -27703.485    -577.9391    99.554004    78.598957    18.361469    27.416629 
    8200    243.70373   -217.05802    263624.46   -25727.799    1972.2698   -27700.068   -385.43894    100.57384    78.598488    18.360258    27.415396 
    8400     249.8413   -225.41629    263624.46   -25724.519    2021.9405    -27746.46   -464.73452    101.67519     78.59903    18.361475    27.428859 
    8600    241.02398   -400.92133    263624.46   -25759.169    1950.5828   -27709.751   -1270.6695    102.73227    78.599972    18.361136    27.422274 
    8800    233.91862   -549.16547    263624.46   -25759.975    1893.0798   -27653.055   -1927.6911    105.91505    78.600172    18.361069    27.444662 
    9000    239.83559   -366.45462    263624.46   -25751.454    1940.9653   -27692.419   -1147.4953    106.91033    78.599663    18.363087     27.44994 
    9200    244.36217   -323.00914    263624.46   -25715.036    1977.5984   -27692.634   -902.58533    108.76962     78.59992    18.362599    27.436442 
    9400    242.09065   -254.90793    263624.46   -25756.225    1959.2153    -27715.44    -624.0375    111.04113    78.601118    18.358391    27.421151 
    9600     237.1046   -214.28643    263624.46   -25733.838    1918.8637   -27652.702   -409.26414    113.22977    78.601772    18.359151    27.393203 
    9800    240.80515   -69.451999    263624.46   -25649.314    1948.8118   -27598.126    221.76892    114.76144    78.601686    18.358944    27.399013 
   10000    238.00147   -129.08758    263624.46   -25694.338    1926.1219    -27620.46   -32.190303    117.59601    78.601569    18.358826    27.403885 
   10200    247.27004    -204.1158    263624.46   -25639.391    2001.1315   -27640.522   -392.27197    118.77365    78.603263    18.358094      27.3959 
   10400    241.05682   -215.56307    263624.46   -25657.065    1950.8486   -27607.914   -445.30617    118.56945    78.602923    18.358648    27.389881 
   10600    239.61824   -237.94295    263624.46   -25718.204    1939.2063   -27657.411   -561.97504     120.4847    78.604594    18.356786    27.378394 
   10800    236.33671   -311.00243    263624.46   -25807.471    1912.6492    -27720.12   -827.48345    121.42545    78.605829    18.354519    27.359739 
   11000    238.58975   -109.14369    263624.46   -25791.894    1930.8828   -27722.777    13.437549    122.22138     78.60461    18.352244    27.379737 
   11200    237.34333   -90.929022    263624.46   -25796.918    1920.7957   -27717.713    77.632076    123.57371    78.602532    18.354754    27.396388 
   11400    240.91808   -382.08272    263624.46   -25754.134    1949.7257    -27703.86   -1189.1622     125.9399    78.601853    18.356045    27.409715 
   11600    242.71778   -341.17331    263624.46    -25653.09    1964.2905    -27617.38   -1031.8483    126.33898    78.600521    18.356643    27.390458 
   11800     240.0659   -335.14118    263624.46   -25682.773    1942.8292   -27625.602   -996.91007    127.99158    78.600304    18.357097     27.36048 
   12000    243.08268   -350.46135    263624.46   -25693.807    1967.2437    -27661.05   -1065.2667    128.72333    78.600109    18.357511    27.359993 
   12200    242.79037   -288.81585    263624.46   -25690.207     1964.878   -27655.085   -770.14781    130.04241    78.600917    18.358537    27.365892 
   12400    244.88382   -345.33162    263624.46   -25741.314    1981.8201   -27723.134   -1020.7918    130.87153    78.599844    18.360308    27.357298 
   12600    242.62724   -229.12721    263624.46   -25678.669    1963.5578   -27642.227   -482.04861    132.55015    78.601621     18.36149    27.360826 
   12800    241.17439   -318.26853    263624.46   -25695.132    1951.8001   -27646.932   -891.04266    133.71332    78.601839    18.359844    27.358422 
   13000    243.23046   -207.88638    263624.46   -25743.763    1968.4396   -27712.203   -379.54481    134.20736    78.601331    18.355779    27.372071 
   13200    235.30413   -357.19639    263624.46   -25777.446    1904.2926   -27681.739   -1088.0929    134.77858    78.603114    18.355232    27.362173 
   13400    233.37519   -274.65278    263624.46   -25806.379    1888.6819   -27695.061   -728.24353    136.95721     78.60228    18.353954    27.368255 
   13600    236.06801   -183.15277    263624.46   -25773.531    1910.4746   -27684.005   -310.17961    138.95457    78.602971    18.349697    27.390299 
   13800    241.12227   -216.78121    263624.46   -25718.044    1951.3782   -27669.422   -416.29729    140.72605    78.604039    18.348928    27.380639 
   14000     244.1214   -423.65472    263624.46     -25636.2    1975.6499    -27611.85   -1393.5332    142.28772    78.604144    18.349332    27.379313 
   14200    238.85169   -332.92237    263624.46   -25712.665    1933.0027   -27645.668   -981.05284    143.08311    78.604451    18.349663    27.394776 
   14400    240.36366   -210.50817    263624.46   -25736.541    1945.2389    -27681.78    -462.0658    143.37722    78.605006     18.34984    27.404334 
   14600     238.9551   -236.27656    263624.46   -25758.452    1933.8396   -27692.291   -595.23378    144.27058    78.602435    18.348305    27.402363 
   14800    242.39012   -227.44803    263624.46     -25711.6    1961.6388   -27673.239   -545.05385    146.41579    78.603877    18.349685    27.392364 
   15000    244.25649   -204.66657    263624.46   -25749.997    1976.7432    -27726.74   -406.59921    146.90183    78.604114    18.350307    27.396491 
   15200    243.99187   -205.19353    263624.46   -25675.419    1974.6016   -27650.021   -435.41736    148.14318    78.603978     18.35052    27.368767 
   15400    236.83224   -324.61967    263624.46   -25747.524    1916.6595   -27664.183   -961.62825    150.71363    78.603749    18.351959    27.357433 
   15600     242.7259   -347.44675    263624.46   -25632.717    1964.3563   -27597.073   -1057.3675    152.59493    78.602441    18.353793    27.342157 
   15800     245.2824   -338.35613    263624.46   -25684.936    1985.0457   -27669.982   -1002.0112    154.58783    78.602109    18.355191    27.323255 
   16000    241.20535   -206.90864    263624.46   -25728.915    1952.0506   -27680.965   -424.36534    156.50683    78.601241    18.354433    27.332178 
   16200    239.72444   -313.07902    263624.46   -25705.729    1940.0657   -27645.795   -900.88963    159.11713    78.600291    18.353306    27.333028 
   16400     239.2332   -249.52313    263624.46   -25730.871    1936.0902   -27666.961   -602.07241    160.57921    78.600452    18.352047    27.331594 
   16600    239.31374   -235.88141    263624.46   -25621.334     1936.742   -27558.076   -532.91285    160.69165    78.601039    18.350096    27.337188 
   16800    241.09533   -234.81637    263624.46   -25651.126    1951.1602   -27602.286   -477.39516     160.9524    78.600103    18.351795    27.353217 
   17000    235.47227   -335.83176    263624.46   -25754.599    1905.6534   -27660.252   -1005.4867     163.1302    78.598982    18.353084    27.350919 
   17200       237.62   -336.42354    263624.46   -25752.129    1923.0347   -27675.163   -1018.4414    164.86956    78.599508    18.351181    27.362746 
   17400    233.50201   -271.39448    263624.46   -25829.987    1889.7083   -27719.695   -727.91838    165.97857    78.598018    18.349781    27.349262 
   17600    238.26001   -214.00977    263624.46   -25785.872    1928.2143   -27714.086   -455.21088    166.68182    78.599863    18.349534    27.336785 
   17800    234.09395    -397.8701    263624.46   -25803.853    1894.4988   -27698.352   -1290.6852    168.17615      78.5995    18.348379    27.311323 
   18000    245.44221   -317.91538    263624.46   -25739.374    1986.3391   -27725.714   -930.87931    169.33158    78.600522    18.349533    27.319246 
   18200    235.73163   -303.43994    263624.46    -25732.12    1907.7523   -27639.872   -824.55844    171.90273    78.600568    18.350714    27.329733 
   18400    239.12642   -128.51568    263624.46   -25700.105    1935.2261   -27635.331  -0.30885898    173.52989    78.600913    18.348511    27.347066 
   18600    242.20632   -211.52904    263624.46   -25672.107    1960.1513   -27632.259   -450.55785    173.40783    78.600417    18.346023    27.361006 
   18800    240.29688   -434.16669    263624.46   -25715.006    1944.6985   -27659.705   -1460.3171    174.56161    78.600841    18.345295    27.362015 
   19000    244.41303    -354.2015    263624.46   -25634.701      1978.01   -27612.711   -1072.0605    175.75633    78.600229    18.344033    27.351594 
   19200    240.50899   -362.29005    263624.46   -25689.944     1946.415   -27636.359   -1120.9378    177.35169    78.600533    18.342417    27.342832 
   19400    244.11566   -240.19163    263624.46   -25636.183    1975.6035   -27611.786   -560.17099    179.09108    78.599845    18.341374    27.329223 
   19600    242.21903   -368.80339    263624.46   -25647.464    1960.2542   -27607.719   -1165.4751    180.77503    78.599919    18.339505    27.330876 
   19800    243.96731   -177.43652    263624.46   -25683.385    1974.4029   -27657.788   -322.10132    182.64485    78.599219    18.340161    27.335546 
   20000    242.32901   -337.09048    263624.46   -25700.587    1961.1443   -27661.732   -984.51662    184.27886    78.599482    18.339511    27.360159 
   20200    232.71108   -260.52241    263624.46     -25769.6    1883.3073   -27652.908   -687.10314    184.23159    78.599021    18.340167     27.34201 
   20400     243.7218   -249.71407    263624.46   -25628.835     1972.416   -27601.251   -651.38134    185.78894    78.601338    18.340767    27.359977 
   20600    237.96393   -226.18224    263624.46   -25694.073    1925.8181   -27619.891   -494.22106    186.20829    78.602766    18.338926     27.35432 
   20800    243.02744   -182.79431    263624.46   -25616.872    1966.7966   -27583.668   -316.53362    188.44544    78.604668     18.33788    27.357441 
   21000    240.56819   -205.23254    263624.46   -25653.425    1946.8941   -27600.319   -402.49981    188.52056    78.605366    18.338274    27.367682 
   21200     248.3604   -225.28722    263624.46    -25646.97    2009.9557   -27656.926   -432.94983    189.94966    78.606313    18.338569     27.37385 
   21400    236.70288   -437.03489    263624.46   -25673.266    1915.6126   -27588.879   -1465.7439    191.65922    78.605082    18.341452    27.373639 
   21600    243.85965   -196.45814    263624.46   -25571.829    1973.5316    -27545.36   -374.15694    194.08814    78.604747    18.344467    27.369629 
   21800    241.39831   -295.33374    263624.46   -25669.272    1953.6122   -27622.884   -796.68787    195.20682      78.6048    18.342601     27.37333 
   22000     238.1574   -289.23899    263624.46   -25725.998    1927.3839   -27653.382   -816.99244     197.1513    78.603345    18.339255    27.366388 
   22200    236.78256   -236.06716    263624.46    -25756.04    1916.2574   -27672.297   -560.91722    199.78913    78.604376      18.3363    27.355006 
   22400    241.64284   -280.84874    263624.46   -25613.027    1955.5912   -27568.619   -753.90765    200.90515    78.605966    18.333528    27.347339 
   22600    235.90304    -278.6121    263624.46   -25609.276    1909.1395   -27518.416   -726.97773    202.31366    78.603783    18.331405    27.330802 
   22800    239.39369   -282.16078    263624.46   -25614.154     1937.389   -27551.543      -730.23    203.64412    78.604622    18.331669    27.338208 
   23000    243.21767   -222.04853    263624.46   -25681.268    1968.3361   -27649.604   -455.11148    205.30883    78.604585    18.333329    27.338641 
   23200    239.58365   -177.62589    263624.46   -25637.657    1938.9264   -27576.584   -269.12551    208.85677    78.604026    18.330979    27.334364 
   23400    242.33566   -135.66617    263624.46   -25662.133    1961.1981   -27623.331   -130.83863    209.67847    78.602605    18.330228    27.337077 
   23600    249.51006   -394.72546    263624.46   -25602.467    2019.2598   -27621.726   -1229.8754    210.73839    78.601768    18.330364    27.328237 
   23800    238.17329   -422.45735    263624.46   -25612.428    1927.5125   -27539.941   -1400.9629    211.18109    78.601754    18.329968    27.316244 
   24000    241.42866   -159.29482    263624.46   -25666.919    1953.8578   -27620.777   -195.60131    213.18843    78.601698    18.331013    27.320201 
   24200    236.23473   -538.56291    263624.46   -25688.326    1911.8239    -27600.15   -1937.9247    214.97396    78.600881    18.331569    27.315865 
   24400    241.43552   -274.17183    263624.46   -25765.962    1953.9133   -27719.875    -704.6793    217.59131    78.602045    18.332091    27.322605 
   24600    240.60431   -283.73152    263624.46   -25814.868    1947.1864   -27762.054   -762.20315    220.21326     78.60275    18.331729    27.313354 
   24800    240.49338   -223.71506    263624.46   -25801.631    1946.2887    -27747.92   -466.87911    222.29859    78.603483    18.332426    27.310719 
   25000    239.47742   -248.24643    263624.46   -25810.548    1938.0666   -27748.615   -594.99855    225.49786    78.604194     18.33247    27.340316 
   25200    235.84873   -251.92614    263624.46   -25884.537       1908.7   -27793.237   -573.45839    227.05864    78.604107    18.333369    27.337544 
   25400    241.38142   -292.14429    263624.46   -25765.083    1953.4755   -27718.558   -794.39223     228.0209    78.602734    18.332497    27.341983 
   25600    245.77123   -193.03156    263624.46   -25652.722    1989.0018   -27641.724   -350.38907    230.37617    78.604545    18.334462    27.352182 
   25800    243.93521   -160.48393    263624.46   -25637.199    1974.1431   -27611.342   -217.24743    232.06594    78.605573    18.335106     27.36856 
   26000    241.45275   -72.594321    263624.46   -25697.843    1954.0528   -27651.896    162.44664    232.40184    78.603266    18.334339    27.377582 
   26200    242.45313   -298.85265    263624.46     -25710.4    1962.1488   -27672.549   -815.43604    233.29742    78.602813    18.336217    27.381309 
   26400     229.8265   -351.93929    263624.46   -25781.561    1859.9628   -27641.524   -1095.5356    233.59837    78.603844    18.335511    27.368892 
   26600    242.39648   -275.10132    263624.46   -25667.272    1961.6903   -27628.962   -676.63818    233.30394    78.603257    18.336289    27.375176 
   26800    240.98216   -334.08003    263624.46   -25689.314    1950.2444   -27639.558   -948.18284     235.6041    78.602377    18.336469    27.378402 
   27000    245.43357   -230.57106    263624.46   -25656.172    1986.2691   -27642.442   -545.49513      238.268    78.602528    18.334941    27.387811 
   27200    243.09138   -382.65383    263624.46   -25652.669    1967.3141   -27619.983    -1214.014     240.2389    78.603615    18.333122     27.39504 
   27400    238.64545   -179.00062    263624.46   -25609.352    1931.3336   -27540.686     -308.363    241.99998    78.605348    18.331268    27.412131 
   27600    235.07241   -327.60792    263624.46   -25746.145    1902.4173   -27648.562   -970.12583     243.4277    78.604487    18.331551    27.418682 
   27800    244.00293   -347.78525    263624.46    -25639.74    1974.6912   -27614.431   -1033.5339     243.4142    78.604828    18.329238    27.411034 
   28000    234.95491   -394.31979    263624.46   -25781.358    1901.4664   -27682.825   -1272.3422    243.16109    78.603803    18.328043    27.423078 
   28200    233.30271   -230.14957    263624.46   -25714.221    1888.0953   -27602.316   -526.08069    243.87281    78.604241    18.328057    27.399421 
   28400    244.05464   -199.98095    263624.46   -25676.854    1975.1096   -27651.963   -351.10801    245.22535    78.603401    18.327178    27.404132 
   28600    238.44129   -271.78578    263624.46   -25733.216    1929.6813   -27662.897   -686.69532    248.41698    78.605915    18.326388    27.406178 
   28800      231.532   -285.67194    263624.46   -25735.196    1873.7652   -27608.961   -798.13812    251.50074    78.604634     18.32647    27.429022 
   29000    242.88229   -293.46857    263624.46   -25661.584    1965.6219   -27627.205   -790.57865    250.76985    78.605915    18.327592    27.413214 
   29200    238.57123   -355.89406    263624.46   -25628.205     1930.733   -27558.938   -1039.9573    253.13177    78.605697    18.327979    27.404222 
   29400    245.23894   -271.81432    263624.46     -25725.7     1984.694   -27710.394   -760.95285     254.9272    78.605174    18.330412    27.401981 
   29600    241.88269   -239.54626    263624.46    -25745.13    1957.5322   -27702.662   -547.90786    256.92619    78.604341    18.332779    27.410895 
   29800    236.36347   -301.84294    263624.46   -25872.092    1912.8657   -27784.958   -871.36883    257.93264    78.602513    18.332515    27.412861 
   30000    229.77613   -323.38623    263624.46   -25879.056    1859.5551   -27738.611   -926.62064      259.925     78.60045    18.334979    27.399366 
   30200    234.91023   -358.63303    263624.46   -25790.439    1901.1049   -27691.544    -1128.255    261.38051    78.598244    18.334949    27.404917 
   30400    240.81468   -236.57163    263624.46   -25723.321    1948.8889    -27672.21   -535.54096    261.59013    78.594902    18.333806    27.409377 
   30600    238.94796   -64.547168    263624.46     -25802.4    1933.7818   -27736.182    251.54138    262.10052    78.592858    18.334968    27.413755 
   30800    238.88511   -282.14832    263624.46   -25802.696    1933.2732   -27735.969   -745.26228    261.75673    78.593565    18.337197    27.396084 
   31000    239.65446   -244.42315    263624.46   -25781.173    1939.4994   -27720.672   -605.75293    263.93862    78.594117    18.337034    27.398674 
   31200    238.62666    -247.8847    263624.46   -25766.435    1931.1816   -27697.616   -591.76863     265.6054    78.594431    18.336172    27.409607 
   31400    237.82192   -268.96453    263624.46   -25766.592    1924.6689   -27691.261   -677.28465    267.21636    78.594309    18.336101    27.435485 
   31600    242.54565   -157.20598    263624.46   -25743.127    1962.8975   -27706.024   -163.17014    268.56258    78.592962    18.337306    27.445912 
   31800    242.74617   -153.76514    263624.46   -25690.805    1964.5203   -27655.325   -198.23226    268.57419    78.593129    18.340074    27.456729 
   32000    237.56399   -308.28563    263624.46   -25746.736    1922.5815   -27669.318   -900.99969    270.57212    78.591235    18.339861     27.46473 
   32200    237.69567   -317.15234    263624.46   -25848.556    1923.6471   -27772.203   -940.49861    272.89829    78.589436    18.339903    27.460242 
   32400    234.45982   -324.16726    263624.46   -25832.291    1897.4597   -27729.751   -944.55918    276.81759    78.587653    18.342493    27.458173 
   32600    243.12788   -360.35401    263624.46    -25688.36    1967.6094   -27655.969   -1116.4005    279.05148    78.587327    18.345131    27.440835 
   32800    248.27563   -260.41851    263624.46   -25708.107    2009.2697   -27717.377    -630.4488    281.83748     78.58592    18.345434    27.453244 
   33000    243.38718   -291.97528    263624.46   -25716.757    1969.7079   -27686.465    -804.1182    282.97731    78.584299    18.347779    27.432712 
   33200    238.44958   -225.23575    263624.46   -25751.129    1929.7484   -27680.878   -525.50305    283.05669    78.583567    18.347278    27.437426 
   33400    237.58977   -399.31797    263624.46   -25769.072    1922.7901   -27691.862   -1290.1997    285.38542    78.584958    18.345899    27.440159 
   33600    232.88207   -207.57752    263624.46   -25778.714    1884.6912   -27663.405   -424.14598    288.71769    78.586419    18.346724    27.432417 
   33800     245.2623   -347.69557    263624.46   -25647.761    1984.8831   -27632.644   -1054.6308     292.1903    78.589081    18.345153    27.420841 
   34000    239.02641    -317.7773    263624.46   -25753.661    1934.4166   -27688.078   -857.81936    291.51514    78.589358    18.343724    27.410878 
   34200    238.39229   -308.98982    263624.46   -25720.424    1929.2848   -27649.709   -857.67909    290.72273     78.59028    18.343649    27.411854 
   34400    238.22978    -286.2027    263624.46   -25741.088    1927.9696   -27669.058   -764.86541    288.98771    78.589822    18.342768    27.439704 
   34600    238.27968    -345.6379    263624.46   -25578.482    1928.3734   -27506.855   -1018.3003    290.28399    78.590815    18.342236    27.421948 
   34800    239.62166   -242.15013    263624.46   -25675.786    1939.2339    -27615.02   -552.09331    289.28781    78.591284    18.340982    27.414559 
   35000    238.20864   -389.84368    263624.46   -25671.746    1927.7986   -27599.545   -1237.3495    291.05337    78.590786    18.340348    27.403194 
   35200    245.04224   -307.91847    263624.46   -25599.409    1983.1022   -27582.511   -846.02442    292.89195    78.590798    18.339237    27.393617 
   35400    237.09394   -348.59427    263624.46   -25630.051    1918.7774   -27548.828   -1110.0953    295.41905    78.588525    18.339016    27.396286 
   35600    243.09152   -176.57312    263624.46   -25652.535    1967.3152    -27619.85   -280.87032    299.13635    78.589017    18.338588    27.395164 
   35800    244.51746   -430.40518    263624.46    -25508.89    1978.8552   -27487.745   -1420.6154    303.34204    78.589394    18.339854    27.391801 
   36000    238.90349   -195.51842    263624.46   -25636.665    1933.4219   -27570.087   -340.42505    307.47155    78.589045    18.338792    27.393082 
   36200    236.51394   -400.57833    263624.46   -25629.841    1914.0835   -27543.925   -1349.8949     309.1285    78.589058    18.337472    27.383386 
   36400    238.25039   -330.24867    263624.46   -25643.374    1928.1364    -27571.51   -994.51256    311.77431    78.589582    18.338161    27.384186 
   36600    244.24105   -228.21151    263624.46    -25638.53    1976.6182   -27615.148   -528.67341    315.24741    78.589434     18.33755    27.392866 
   36800    233.77348    -291.3357    263624.46   -25767.772    1891.9053   -27659.677   -787.61459    315.97136    78.589349    18.338156    27.396211 
   37000    240.59491   -196.93678    263624.46   -25736.792    1947.1104   -27683.902   -363.82675    318.80199     78.58966    18.338243    27.392459 
   37200    236.42026     -305.539    263624.46   -25819.147    1913.3254   -27732.473   -831.30153    319.79333    78.591591    18.337117    27.397415 
   37400    235.67704   -207.50081    263624.46   -25798.451    1907.3106   -27705.761   -430.13912    320.17332    78.593158    18.338622    27.400864 
   37600    236.29293   -389.59243    263624.46   -25749.023    1912.2949   -27661.318   -1259.2802    320.85583    78.592964    18.337264    27.397167 
   37800    235.06987    -428.0427    263624.46   -25828.835    1902.3968   -27731.232   -1399.0221    322.48161    78.595182    18.337319    27.403839 
   38000    237.07874   -362.91209    263624.46   -25729.641    1918.6544   -27648.295   -1122.7596    323.62304     78.59737    18.339312    27.395767 
   38200    238.43158   -270.55942    263624.46   -25728.181    1929.6028   -27657.784   -699.90898    322.53526     78.59872    18.339013    27.424086 
   38400    246.00478   -330.85822    263624.46   -25716.047    1990.8919   -27706.939   -1009.8666     324.3703    78.597551    18.337968    27.421348 
   38600    244.08869   -236.65272    263624.46    -25753.52    1975.3852   -27728.905   -510.24806    323.49707    78.595805     18.33892    27.436514 
   38800       235.87   -230.95563    263624.46   -25801.398    1908.8722    -27710.27   -530.14293    322.96553    78.595254    18.341803    27.427865 
   39000    241.56195   -336.60226    263624.46   -25698.697    1954.9365   -27653.634    -984.6065    322.14339    78.593981    18.342894    27.438696 
   39200    236.32353   -188.11164    263624.46   -25816.995    1912.5425   -27729.537   -355.56595     323.2131    78.596463     18.34517    27.445381 
   39400    242.91548   -109.99543    263624.46   -25707.005    1965.8905   -27672.896   -4.1828487    323.92581    78.597808    18.345509    27.456984 
   39600    244.12767   -112.38897    263624.46   -25704.855    1975.7006   -27680.556    1.5821714    324.97901    78.595466     18.34316    27.446291 
   39800    240.16084   -83.164075    263624.46   -25770.954    1943.5975   -27714.551    110.52546    326.97887    78.595387    18.343983    27.482152 
   40000    239.18867   -270.21435    263624.46   -25780.751    1935.7299   -27716.481   -737.72928    327.18563    78.596076     18.34295    27.484302 
   40200    240.69107   -213.59758    263624.46   -25718.348    1947.8886   -27666.236   -423.77577     325.6896     78.59735    18.343172     27.49503 
   40400    237.94604    -395.1508    263624.46   -25776.454    1925.6733   -27702.127   -1249.7378     326.0839     78.59698    18.342362    27.495982 
   40600    243.27335   -374.32429    263624.46   -25732.463    1968.7867    -27701.25   -1182.2468    325.58381    78.597557    18.340693    27.493929 
   40800    242.08077   -90.175654    263624.46   -25750.384    1959.1353   -27709.519     122.5158    325.88464    78.595849     18.34043    27.498982 
   41000    236.81956   -263.47448    263624.46   -25778.637    1916.5569   -27695.194   -662.15113    325.77207    78.595541    18.340753    27.519347 
   41200    243.15401    -371.1901    263624.46   -25684.206    1967.8209   -27652.027   -1188.0171    326.95321    78.594151    18.344059    27.507924 
   41400    236.25485   -238.45084    263624.46   -25741.852    1911.9867   -27653.839   -590.02565    328.22187    78.595581    18.343141    27.530668 
   41600    244.06387   -405.04829    263624.46    -25698.54    1975.1843   -27673.725   -1282.9938     331.9714    78.594096     18.34506    27.524967 
   41800    235.88139   -354.60721    263624.46   -25680.036    1908.9644       -27589   -1052.4291    333.93282    78.594625    18.344668    27.527531 
   42000    238.22956   -465.00581    263624.46   -25734.556    1927.9678   -27662.524   -1572.3478    336.04616    78.596351    18.343388    27.513271 
   42200    237.85247   -266.09865    263624.46   -25759.231    1924.9161   -27684.147   -698.10226    336.23267    78.594781    18.343481    27.506545 
   42400    239.59166   -349.29631    263624.46   -25727.762    1938.9911   -27666.753   -1045.6987    335.27882    78.593492    18.344295    27.524082 
   42600    241.71643    -207.7964    263624.46   -25737.778    1956.1868   -27693.965   -386.78085    334.31255    78.592165      18.3425    27.541037 
   42800    238.47409   -226.15785    263624.46   -25743.671    1929.9468   -27673.618   -468.63507    333.86729    78.591021    18.341645     27.52459 
   43000    237.78179   -134.70573    263624.46   -25760.161    1924.3441   -27684.505   -91.859213    335.84093    78.592571    18.342529    27.533871 
   43200    240.91525   -267.14231    263624.46   -25751.216    1949.7029   -27700.919   -679.87662    338.44696    78.592008    18.343466    27.533679 
   43400    238.86745   -234.08805    263624.46   -25769.006    1933.1302   -27702.136   -538.67154    338.21947    78.591507    18.344437    27.527013 
   43600    244.61936   -282.02061    263624.46   -25765.157    1979.6799   -27744.837   -714.26175    337.65649    78.593023    18.346304    27.518307 
   43800    235.37427   -414.23502    263624.46   -25790.018    1904.8603   -27694.879   -1343.8134    337.91313    78.592974    18.349579    27.510634 
   44000    235.32471   -239.14407    263624.46   -25823.432    1904.4592   -27727.891   -570.67245    338.35131    78.592826    18.351321    27.513811 
   44200    245.87216    -284.1055    263624.46   -25726.398    1989.8186   -27716.216   -764.58484    340.84327    78.593589    18.352758    27.509726 
   44400    236.05429   -385.82112    263624.46   -25764.072    1910.3636   -27674.436   -1208.1056    343.63194    78.592946    18.352462    27.517326 
   44600    235.04052   -257.13675    263624.46   -25759.347    1902.1593   -27661.506   -609.13492    344.21084    78.591477     18.35394    27.515133 
   44800    239.40714   -268.75173    263624.46   -25697.622    1937.4979    -27635.12   -685.02375    345.68485    78.591656    18.352631    27.522632 
   45000    241.53758   -510.15746    263624.46    -25699.84    1954.7393    -27654.58   -1793.9431    347.92312    78.590502    18.353449     27.51959 
   45200    239.03843   -113.29677    263624.46   -25684.389    1934.5139   -27618.902    39.023698    347.45146    78.590787    18.355534    27.526243 
   45400    234.62556   -321.75369    263624.46   -25723.627     1898.801   -27622.428   -941.86616    350.50177    78.590872    18.355532     27.54887 
   45600    239.18715   -353.80803    263624.46   -25674.574    1935.7175   -27610.292   -1074.2821    353.42781    78.589219    18.356412    27.557603 
   45800     244.7169   -239.68068    263624.46   -25698.655    1980.4692   -27679.124   -575.22426    356.47924    78.589039    18.358015    27.542121 
   46000    239.58256   -298.47602    263624.46   -25676.211    1938.9175   -27615.129   -788.98192    357.26374    78.589094    18.356363    27.519318 
   46200    239.55682   -266.15768    263624.46   -25681.168    1938.7092   -27619.877    -672.1339    358.00189    78.588934    18.357198    27.536785 
   46400    238.36707   -202.04207    263624.46   -25735.228    1929.0807   -27664.308   -403.17132    359.84113    78.588741    18.357501    27.539829 
   46600    241.89038   -280.55957    263624.46   -25723.629    1957.5945   -27681.223   -760.57023     359.4226    78.590713    18.358834    27.541228 
   46800     242.3311   -177.33015    263624.46   -25694.875    1961.1612   -27656.037   -317.72081    360.34289    78.590479    18.359648    27.546809 
   47000    239.51422   -182.72844    263624.46   -25728.082    1938.3645   -27666.447   -287.89637    360.61125    78.591298     18.36013    27.552425 
   47200     240.2776   -200.25189    263624.46    -25779.96    1944.5424   -27724.502   -355.68868    361.18365    78.590814    18.360226    27.550398 
   47400    238.93691   -159.11014    263624.46   -25777.823    1933.6924   -27711.515    -172.5974    361.54667    78.590978     18.36212    27.533691 
   47600    235.80975   -338.41933    263624.46   -25748.738    1908.3845   -27657.122   -1014.6073    363.65253    78.591867    18.363978    27.517282 
   47800    239.59516   -189.88231    263624.46   -25749.548    1939.0195   -27688.567   -306.64084    365.11025    78.591926    18.364715    27.497398 
   48000    239.80856   -390.24708    263624.46   -25747.199    1940.7465   -27687.945   -1243.1282    367.34556    78.590768    18.365269    27.492896 
   48200    240.80756    -121.0909    263624.46   -25772.091    1948.8313   -27720.922   -14.165418    369.14976    78.591275    18.364614     27.48634 
   48400    239.01319   -308.95354    263624.46   -25775.671    1934.3097   -27709.981   -867.82835    371.39237    78.590983    18.365414     27.49465 
   48600    240.12643   -406.89977    263624.46    -25808.42     1943.319   -27751.739   -1310.9499    372.74454    78.591999    18.365808    27.493638 
   48800    239.98842   -218.33831    263624.46   -25770.531    1942.2021   -27712.733   -492.62593    374.26573    78.593997    18.367636    27.487342 
   49000    236.52012   -378.02749    263624.46    -25786.99    1914.1335   -27701.124   -1185.0424    375.93008    78.596075     18.36547      27.4895 
   49200    237.92975   -311.47565    263624.46   -25766.454    1925.5415   -27691.996   -891.82839     376.4724    78.598181    18.364051    27.483231 
   49400    238.86127   -155.07488    263624.46   -25840.437    1933.0802   -27773.518   -198.54189    377.58771    78.596656    18.363535    27.466197 
   49600    241.44534    -459.2526    263624.46   -25825.428    1953.9928   -27779.421   -1543.7547    378.50445    78.595371    18.361917    27.464834 
   49800    237.42489   -123.46973    263624.46   -25813.599    1921.4557   -27735.055   -27.147953    378.85985    78.596177    18.359992    27.465179 
   50000    239.80529   -334.64151    263624.46   -25795.248    1940.7201   -27735.969   -986.06641    379.88032    78.596608    18.361036    27.480937 
   50200    238.72268   -257.72838    263624.46   -25750.919    1931.9586   -27682.878   -614.47942    379.42542    78.596234    18.360552    27.475223 
   50400    241.93701   -309.59775    263624.46   -25808.969    1957.9718   -27766.941   -882.17542    382.70243    78.598574    18.361843    27.467663 
   50600    246.70138   -191.66191    263624.46   -25678.386    1996.5294   -27674.915   -339.49414    384.18466    78.600061    18.362446    27.461856 
   50800    239.43801   -326.67822    263624.46   -25852.862    1937.7477    -27790.61   -977.32917    385.48003    78.600635    18.364795    27.453938 
   51000    238.88826    -267.4257    263624.46   -25833.507    1933.2987   -27766.806    -680.3772    386.65141    78.600251    18.363056    27.475715 
   51200    238.19429   -407.48684    263624.46   -25884.463    1927.6824   -27812.146   -1303.8248    386.35308    78.599377    18.362937    27.472211 
   51400    236.42558   -270.76215    263624.46   -25832.089    1913.3684   -27745.457   -693.36762    386.05805    78.598923    18.362451    27.463106 
   51600    238.24886   -176.92048    263624.46   -25757.835     1928.124   -27685.959   -274.25399    388.78351    78.596849    18.361178    27.439394 
   51800    242.29723   -140.04206    263624.46   -25717.737    1960.8871   -27678.624   -103.62279    388.20401    78.595951    18.361904    27.457891 
   52000    237.98834   -267.67901    263624.46   -25730.734    1926.0157   -27656.749    -687.7418     388.7937    78.594925     18.36016    27.478519 
   52200    234.56094   -103.84872    263624.46   -25816.187     1898.278   -27714.465    28.646577    390.16316    78.594413    18.358967    27.475089 
   52400    231.80202   -417.98315    263624.46   -25850.447    1875.9504   -27726.397    -1373.689    393.09237    78.593551    18.358048     27.45585 
   52600    243.58687   -148.37594    263624.46   -25683.095     1971.324   -27654.419   -151.72401    393.71193    78.591943     18.35669    27.453283 
   52800    247.63885   -203.04708    263624.46   -25652.007    2004.1163   -27656.123   -370.47834    393.50168    78.591944    18.356668    27.437001 
   53000    243.82748   -305.20277    263624.46   -25654.493    1973.2713   -27627.764   -826.30585    394.29804    78.592938    18.359458    27.448594 
   53200    235.51972   -302.09242    263624.46   -25792.877    1906.0374   -27698.915   -829.88366    392.89328     78.59499    18.361473      27.4536 
   53400    237.85787   -145.86149    263624.46   -25699.304    1924.9598   -27624.264   -180.85446     393.5826    78.595083    18.361926    27.449481 
   53600     238.9564   -315.41137    263624.46    -25773.02    1933.8501    -27706.87   -893.02591    393.54793    78.595966    18.361839    27.456638 
   53800    239.36507   -424.10852    263624.46     -25746.4    1937.1574   -27683.558   -1363.6115    394.52846    78.595116    18.362183    27.470983 
   54000    235.24793   -362.63666    263624.46   -25757.502    1903.8378    -27661.34   -1100.0432    395.81442    78.594191    18.363056    27.486344 
   54200    247.89361   -315.85629    263624.46    -25656.69     2006.178   -27662.868   -857.95286    395.40312    78.594699    18.364271    27.493374 
   54400    238.35811   -203.65245    263624.46   -25684.755    1929.0082   -27613.763   -384.95709    394.89233    78.594708    18.365487    27.512534 
   54600     242.3645   -274.14096    263624.46   -25675.481    1961.4315   -27636.912   -697.35101    396.90048    78.595427    18.364366    27.514477 
   54800    247.45393   -192.42054    263624.46   -25679.169    2002.6197   -27681.788   -304.26094    399.34766    78.595565    18.364851     27.51909 
   55000    242.50694   -349.58912    263624.46   -25610.954    1962.5843   -27573.538   -1077.4646    401.38299    78.594043    18.364685    27.531552 
   55200    238.08444   -300.64755    263624.46   -25749.788    1926.7934   -27676.581   -824.17649    403.57833    78.593104    18.366656    27.521397 
   55400    241.39394    -245.2206    263624.46   -25727.679    1953.5768   -27681.256   -572.27725    405.45709    78.593345    18.366504    27.507184 
   55600    240.54341   -317.73532    263624.46   -25695.296    1946.6936   -27641.989   -918.14234    407.80151    78.591673    18.366107    27.505288 
   55800    247.44455   -363.12459    263624.46   -25625.792    2002.5438   -27628.336   -1130.6992    410.37785    78.591614    18.363874    27.509043 
   56000    241.74512   -189.69046    263624.46     -25635.8    1956.4189   -27592.218   -347.52066    410.65482    78.590744    18.361048    27.503924 
   56200    241.41115   -235.01086    263624.46   -25656.985    1953.7162   -27610.701   -529.56758    412.26365    78.590388    18.361279    27.492534 
   56400      240.073   -229.31341    263624.46   -25770.791    1942.8866   -27713.678   -527.98824    413.32386    78.591484    18.361814    27.485284 
   56600    238.51198   -312.90774    263624.46   -25847.332    1930.2534   -27777.586   -877.78794    413.26002    78.591335    18.363069    27.462261 
   56800    246.72027     -127.019    263624.46   -25745.538    1996.6823   -27742.221   -83.357163    413.78741    78.590216    18.363241    27.471316 
   57000     239.6474   -210.36922    263624.46   -25845.802    1939.4423   -27785.245   -396.38594    415.04503    78.588332    18.362647    27.456852 
   57200    245.24816   -215.02393    263624.46    -25777.67    1984.7686   -27762.439   -428.16823    414.84356    78.587589    18.363582    27.468681 
   57400    237.76013   -277.10916    263624.46   -25821.041    1924.1688    -27745.21      -747.29     415.6985    78.586939    18.362452    27.480928 
   57600    236.18658   -262.99782    263624.46   -25856.005    1911.4342   -27767.439   -650.55823    418.24176    78.585934    18.363003    27.489627 
   57800    240.40092   -126.50947    263624.46   -25771.901    1945.5404   -27717.442   -56.409543    419.25992    78.587013    18.361925    27.479146 
   58000    237.64861   -267.53173    263624.46   -25782.335    1923.2663   -27705.601   -658.52044    421.63473    78.586537    18.361875    27.473736 
   58200    245.96838   -187.09497    263624.46    -25740.76    1990.5973   -27731.357   -320.27061    421.85687    78.586879    18.361833    27.478902 
   58400    243.33681   -333.52339    263624.46   -25759.586    1969.3003   -27728.886    -1046.694    423.55267     78.58778    18.362872    27.470478 
   58600     239.4283   -247.45644    263624.46    -25778.71    1937.6691   -27716.379   -603.29869    424.28749    78.588643    18.363292    27.466563 
   58800     233.3212   -351.99087    263624.46   -25784.415     1888.245    -27672.66   -1011.8816    425.61077    78.587499    18.365708    27.471797 
   59000    242.63169   -293.42905    263624.46    -25652.71    1963.5938   -27616.304   -769.77533    426.07237    78.588232    18.366798    27.476742 
   59200      240.238   -280.89692    263624.46   -25675.248    1944.2219    -27619.47   -777.94473    427.92519    78.589048    18.366388    27.477464 
   59400    236.82811   -296.14372    263624.46   -25688.261     1916.626   -27604.887   -832.45487    429.78021    78.588599    18.367063    27.498292 
   59600    241.93871   -269.18414    263624.46   -25708.279    1957.9856   -27666.264   -658.46648    428.90231    78.587397    18.370763    27.523286 
   59800    236.17585   -257.95248    263624.46    -25802.62    1911.3474   -27713.968   -648.86436    430.07319    78.586888     18.37177    27.534151 
   60000    237.39535   -148.29794    263624.46   -25744.005    1921.2166   -27665.221   -165.13134    429.15552    78.587478    18.367927    27.533328 
   60200    240.31204   -282.94993    263624.46   -25742.984    1944.8212   -27687.806   -773.35688    431.25232    78.588324    18.367396    27.524951 
   60400    244.28933    -212.3458    263624.46   -25671.648     1977.009   -27648.657   -423.12824    434.41603    78.589941    18.367402    27.532929 
   60600    240.95516   -116.47383    263624.46   -25737.898    1950.0258   -27687.924   -50.969656    434.94206    78.588532    18.365598    27.530429 
   60800    239.42473   -209.53037    263624.46   -25636.595    1937.6402   -27574.235   -409.12389    434.99329    78.589184    18.365608      27.5437 
   61000    240.40135    -319.1276    263624.46   -25735.229    1945.5439   -27680.773   -906.85413    436.62748    78.587564    18.364663    27.542193 
   61200    239.83769   -125.86435    263624.46   -25713.557    1940.9822   -27654.539    -60.62766    440.14207    78.587159    18.364397    27.547293 
   61400    241.68637   -193.51259    263624.46   -25742.173    1955.9434   -27698.117   -354.29626    441.24288    78.588035    18.364539    27.540124 
   61600    238.95458   -363.19841    263624.46   -25784.687    1933.8354   -27718.522   -1102.8007    444.02354    78.587354    18.364862    27.511314 
   61800    233.95545   -300.11714    263624.46   -25799.844    1893.3779   -27693.222   -814.08216    446.60131    78.587828    18.365068    27.491908 
   62000    242.27807   -212.71931    263624.46   -25764.884     1960.732   -27725.616    -422.9322    445.89891    78.588814    18.368685    27.489795 
   62200    236.59696   -273.05594    263624.46   -25731.448    1914.7554   -27646.203   -681.88063    449.53367    78.589118    18.370314    27.470733 
   62400    238.96472    -220.4304    263624.46   -25785.073    1933.9174   -27718.991   -448.73401     448.9476     78.58746    18.371668     27.46535 
   62600    237.79328   -298.97911    263624.46   -25805.983    1924.4371    -27730.42    -807.2734    451.32159    78.587347    18.372994    27.470801 
   62800    237.57545   -286.10471    263624.46   -25816.918    1922.6742   -27739.593    -741.4029    450.49119    78.587599    18.377558    27.472559 
   63000    238.59948   -277.47554    263624.46    -25817.35    1930.9615   -27748.311   -704.81613    448.56521     78.58925     18.37921    27.485128 
   63200    242.00141   -273.63727    263624.46   -25751.369    1958.4931   -27709.862   -686.74295    449.57918    78.589065     18.37848    27.492719 
   63400    238.01325   -312.67289    263624.46   -25847.837    1926.2173   -27774.055   -888.66159    450.25741    78.588739    18.378936    27.497146 
   63600    233.08842   -184.84185    263624.46   -25819.097    1886.3611   -27705.458   -320.27381    451.00952    78.591446    18.377572    27.484749 
   63800    232.94743   -242.12245    263624.46   -25851.235    1885.2201   -27736.455   -557.52854    453.69971     78.59266    18.379222    27.478723 
   64000    245.16049   -347.21366    263624.46   -25672.224    1984.0592   -27656.283   -1050.9124    457.71512    78.594714    18.378697    27.462316 
   64200    235.89649   -353.28208    263624.46   -25672.341    1909.0866   -27581.427   -1089.9158     460.3441    78.594832    18.375317    27.450268 
   64400    241.11942   -299.46419    263624.46   -25749.601    1951.3552   -27700.957   -803.26653    462.95839    78.594412     18.37431    27.442046 
   64600    236.11959   -226.38416    263624.46   -25777.804    1910.8921   -27688.696   -485.26949    462.97641    78.593177    18.373635    27.445613 
   64800     240.0645   -274.66053    263624.46   -25742.241    1942.8178   -27685.059   -743.05255    463.66628      78.5934    18.372852    27.445428 
   65000    241.47263   -323.91994    263624.46   -25658.578    1954.2136   -27612.791   -951.83026    466.11932    78.590401    18.374433    27.446373 
   65200     247.3708   -192.56376    263624.46   -25728.016     2001.947   -27729.963   -360.51471    466.19715    78.589373    18.374244    27.464569 
   65400    247.71544   -373.06732    263624.46   -25681.483    2004.7361   -27686.219   -1137.4649    466.70899    78.588981    18.373949    27.455656 
   65600    243.62493   -202.56901    263624.46   -25662.229     1971.632   -27633.861   -407.82332    467.98151     78.58756    18.374214    27.469314 
   65800    238.65467   -247.05128    263624.46   -25722.506    1931.4082   -27653.914   -535.67432    471.45272    78.587011    18.375307    27.469029 
   66000    235.94169   -204.39097    263624.46   -25733.488    1909.4524    -27642.94   -402.40744     472.7186    78.585846    18.376002    27.460205 
   66200    236.54358   -264.65354    263624.46   -25785.913    1914.3234   -27700.236   -646.84386    473.35941    78.585058    18.374229     27.46416 
   66400    233.26412   -219.00309    263624.46   -25750.557     1887.783    -27638.34   -437.24065    474.55154    78.583094    18.374091    27.503287 
   66600    238.68466   -397.91787    263624.46   -25751.707    1931.6509   -27683.358   -1253.4424    474.65258    78.582291    18.375301    27.497983 
   66800    234.34388   -333.66772    263624.46   -25794.258    1896.5214   -27690.779   -1005.5458     473.0745    78.583154    18.373878    27.505641 
   67000    234.78651   -442.43778    263624.46   -25851.818    1900.1036   -27751.922   -1511.9387    474.06684    78.583687    18.374571    27.488183 
   67200    245.59026   -195.38815    263624.46   -25782.954    1987.5372   -27770.491   -384.63372     475.5201    78.582741     18.37457    27.489222 
   67400    239.59317   -433.94299    263624.46   -25764.042    1939.0034   -27703.045   -1428.9935     476.9859    78.582451    18.374127    27.487659 
   67600    242.61211   -145.31896    263624.46   -25667.983    1963.4353   -27631.418   -147.77603    475.86233     78.58084    18.373923    27.508263 
   67800    239.85934    -392.7088    263624.46   -25771.125    1941.1575   -27712.282   -1276.4971    477.22882    78.582255    18.372916    27.492793 
   68000    233.61605   -366.07587    263624.46    -25790.81    1890.6312   -27681.441   -1125.1133    476.63203     78.58256    18.371307     27.49656 
   68200    241.69223   -317.82002    263624.46   -25799.557    1955.9909   -27755.548   -939.43473    477.28426    78.581701    18.371364     27.48388 
   68400    242.69732   -318.41833    263624.46    -25688.99    1964.1249   -27653.115   -913.89696      477.994    78.581153    18.370665    27.479833 
   68600    240.75488   -100.32321    263624.46   -25716.107     1948.405   -27664.512     44.71577    479.92383    78.583843    18.369166    27.469472 
   68800    238.40348   -271.29944    263624.46   -25695.831    1929.3754   -27625.207   -742.29142    484.74298    78.586714    18.368725    27.473377 
   69000    239.72297    -363.9788    263624.46    -25695.42    1940.0538   -27635.474   -1114.2029    486.23287    78.587995    18.369003    27.474292 
   69200     243.5111   -282.71601    263624.46   -25732.721    1970.7108   -27703.432   -790.32455    487.96528    78.588042    18.368266    27.465796 
   69400    234.54022   -396.58955    263624.46   -25820.633    1898.1103   -27718.744   -1289.4598    489.26437    78.589337    18.367682     27.45315 
   69600    243.60779   -158.54934    263624.46    -25588.63    1971.4933   -27560.123   -195.75407    488.29319    78.588389    18.368845    27.448127 
   69800    242.48368   -211.37251    263624.46   -25748.674     1962.396    -27711.07    -454.8793    489.57709    78.589098     18.36773    27.460229 
   70000    241.63344   -527.78584    263624.46   -25727.964    1955.5151   -27683.479    -1863.296    491.92115    78.588954    18.369438    27.433568 
   70200    242.09475   -237.09595    263624.46   -25668.172    1959.2485    -27627.42   -541.38056    493.62516    78.587495    18.371137     27.42125 
   70400    248.45048    -398.3488    263624.46   -25629.986    2010.6847   -27640.671    -1294.245    495.59917    78.586807    18.372606    27.400382 
   70600    243.20459   -327.40759    263624.46   -25723.062    1968.2302   -27691.293    -971.7961    495.82364    78.584529    18.372714    27.388064 
   70800    239.02971    -316.2183    263624.46    -25721.06    1934.4434   -27655.504   -914.94283    493.68536    78.585862    18.372616    27.386815 
   71000    233.96486   -161.65081    263624.46   -25719.831     1893.454   -27613.285   -212.13929    496.77351    78.584911    18.374274    27.385004 
   71200    242.97775   -334.25822    263624.46   -25715.071    1966.3944   -27681.466   -1020.5305    497.29743    78.584235    18.375241    27.403729 
   71400    239.08035   -367.81541    263624.46   -25781.557    1934.8532    -27716.41   -1149.9349    498.13923    78.584112    18.377518    27.405597 
   71600    240.90156   -168.33106    263624.46    -25731.72    1949.5921   -27681.312   -240.45404     497.8599    78.585206    18.376585    27.402279 
   71800    231.07453   -146.37248    263624.46    -25812.86    1870.0629   -27682.923   -162.95709    499.19656      78.5861    18.375332    27.385157 
   72000    240.55695   -171.86807    263624.46   -25772.123    1946.8032   -27718.926   -299.19067    498.38631    78.586685    18.373357    27.380851 
   72200      242.535   -208.58965    263624.46   -25624.152    1962.8113   -27586.964   -445.75964    499.04588    78.588276    18.370339    27.409299 
   72400    237.46687   -325.85803    263624.46   -25752.919    1921.7954   -27674.715    -952.7089    500.68576     78.58768     18.36791    27.423941 
   72600    244.44133   -175.70629    263624.46   -25675.637    1978.2391   -27653.876   -302.92248    501.41525    78.590107    18.367724    27.420838 
   72800    239.67379   -139.66322    263624.46   -25761.172    1939.6558   -27700.828   -109.28764    500.80783    78.592468    18.368522    27.421214 
   73000    241.97395   -380.06149    263624.46    -25757.14    1958.2708   -27715.411   -1205.3205    503.08851    78.592635    18.369785    27.408489 
   73200    246.46385   -184.04384    263624.46   -25700.042    1994.6071   -27694.649   -352.20143    502.88141     78.59302    18.370021    27.408672 
   73400    242.33763   -241.54544    263624.46   -25694.014    1961.2141   -27655.228   -570.04722    506.36147    78.593082    18.369383    27.402848 
   73600    249.79186   -220.02214    263624.46   -25684.899    2021.5403   -27706.439   -518.30399    507.26275    78.592384    18.368348    27.395099 
   73800    236.58007   -288.06241    263624.46   -25875.278    1914.6187   -27789.897   -810.28856    509.12654    78.592545     18.36959    27.380293 
   74000    238.77178   -205.60338    263624.46   -25844.249     1932.356   -27776.605   -384.46232    508.82974    78.592849    18.369979    27.348728 
   74200    238.17828   -231.54306    263624.46   -25776.507    1927.5528    -27704.06   -506.73521     510.5998    78.592864     18.37095     27.35635 
   74400    240.21009   -219.85488    263624.46   -25706.013     1943.996   -27650.009   -455.09757    513.72278    78.593257    18.373129    27.350641 
   74600    241.26791   -311.50263    263624.46   -25760.032    1952.5569   -27712.589   -910.15189    516.95402    78.594455    18.371553    27.355162 
   74800     234.6509   -279.27662    263624.46   -25756.478    1899.0061   -27655.484   -707.95021    520.20571    78.595899    18.371882    27.348619 
   75000    233.77963   -136.53966    263624.46   -25818.139     1891.955   -27710.094   -105.85483    519.23352    78.597199    18.369945    27.348833 
   75200    237.59504   -280.56933    263624.46   -25755.298    1922.8327   -27678.131   -750.23125    520.30655    78.597894     18.36916    27.353864 
   75400    234.73765   -227.96776    263624.46   -25792.488    1899.7082   -27692.196   -518.31523    520.24262     78.59822    18.369341     27.36699 
   75600    239.37174   -201.29866    263624.46   -25740.782    1937.2114   -27677.993   -380.06933    520.54035    78.599066    18.369718    27.355705 
   75800    242.77409    -239.1737    263624.46   -25676.223    1964.7463   -27640.969   -594.05696    523.17917    78.601227     18.37036    27.341105 
   76000    243.52191   -351.65795    263624.46   -25681.391    1970.7983   -27652.189   -1070.3241    522.78484    78.602936    18.374402    27.325911 
   76200    237.60836   -252.49451    263624.46   -25792.168    1922.9405   -27715.109    -645.2544    523.15108    78.604139    18.374074    27.333969 
   76400    240.82639   -276.04207    263624.46   -25768.085    1948.9837   -27717.068   -739.06787    522.81729    78.605006    18.373922    27.337973 
   76600    242.03778   -302.95515    263624.46   -25724.718    1958.7874   -27683.505   -872.81141    525.09978    78.606139    18.374939    27.355581 
   76800    235.00066   -237.80082    263624.46   -25753.373    1901.8367    -27655.21   -581.27991    525.86334    78.607205    18.375253    27.358587 
   77000    243.04283   -363.42284    263624.46   -25659.158    1966.9212   -27626.079   -1065.0365    529.55669    78.608738    18.376136    27.368106 
   77200    242.68439   -314.86835    263624.46    -25688.98    1964.0203       -27653   -924.27483    532.34143    78.607083    18.379418    27.370915 
   77400    241.11174   -240.44481    263624.46   -25706.033    1951.2931   -27657.326   -555.25191    533.59838    78.605755    18.378949    27.375661 
   77600    231.07003   -264.43355    263624.46   -25760.953    1870.0265    -27630.98   -683.97992    536.07837    78.606307    18.379065    27.367646 
   77800    233.38301   -312.77423    263624.46   -25717.258    1888.7452   -27606.003   -876.33822     536.4075    78.605008    18.380846    27.362416 
   78000    239.73162   -299.95293    263624.46   -25727.035    1940.1239   -27667.159   -809.47021    535.95244    78.605686    18.382964    27.340598 
   78200    239.49461   -363.01824    263624.46   -25741.665    1938.2058   -27679.871   -1139.4635    536.54736     78.60638    18.380869    27.338912 
   78400    236.67722   -252.43154    263624.46    -25706.49    1915.4049   -27621.895   -638.46003    534.91825    78.606491    18.379461    27.334357 
   78600    239.45702   -188.54009    263624.46   -25672.487    1937.9016   -27610.389   -356.91155    536.37761    78.604798    18.379485    27.349128 
   78800    243.27416   -159.42848    263624.46   -25742.352    1968.7933   -27711.146   -220.51982     537.7467    78.606165    18.378448    27.329274 
   79000     238.6836   -173.00313    263624.46   -25756.909    1931.6424   -27688.552   -286.81491    537.89784    78.607417    18.378335    27.314584 
   79200    236.98445    -244.0453    263624.46   -25705.109    1917.8913       -27623   -625.93883    539.76538     78.60709    18.379359    27.299823 
   79400     247.7139   -299.89057    263624.46   -25646.941    2004.7236   -27651.665   -879.01933     541.8646    78.606482    18.379295     27.30645 
   79600    238.27947   -178.00174    263624.46   -25736.947    1928.3717   -27665.319   -317.81253    543.13763    78.605876    18.378435    27.300524 
   79800    242.27895   -230.96493    263624.46   -25733.122    1960.7392   -27693.862   -542.73986    545.07376    78.605686    18.376335    27.295112 
   80000    244.21185   -198.33959    263624.46    -25746.15    1976.3819   -27722.532    -398.1428    546.37868    78.606992    18.376632    27.265397 
   80200    233.99663   -216.62756    263624.46   -25772.021    1893.7112   -27665.732   -441.25851    548.92635    78.608849    18.376319    27.265327 
   80400    239.15662    -236.0266    263624.46    -25762.36    1935.4705    -27697.83   -539.54931    549.65852    78.609258    18.377455    27.275756 
   80600    240.20773   -69.525425    263624.46   -25680.616     1943.977   -27624.593    196.13429    550.29406    78.610102    18.377188    27.278783 
   80800     242.5952   -271.69247    263624.46   -25656.896    1963.2986   -27620.195   -740.54977    549.23692    78.609591     18.37715    27.275925 
   81000    244.04325   -365.01202    263624.46    -25652.99    1975.0174   -27628.007   -1128.7605    552.57674    78.609275    18.375345    27.272653 
   81200    240.55751   -348.57338    263624.46   -25678.293    1946.8077     -27625.1   -1037.9889    556.40841    78.611507    18.376524     27.25838 
   81400    240.64306   -305.52243    263624.46   -25681.527       1947.5   -27629.027   -840.18514     558.4578    78.612658    18.377838    27.273161 
   81600    238.73216    -266.3605    263624.46   -25761.337    1932.0353   -27693.372   -677.37164    560.42352    78.613115    18.378074    27.277617 
   81800    232.64953   -300.87322    263624.46   -25843.256    1882.8092   -27726.065   -838.84126    563.01426    78.612355    18.379374    27.281395 
   82000    236.56467   -316.93068    263624.46   -25729.748    1914.4941   -27644.242   -913.38216    562.55851     78.61278    18.377389     27.29201 
   82200    242.93989    -171.5655    263624.46    -25610.54    1966.0881   -27576.628   -303.75929    564.82718    78.612702    18.375463     27.29665 
   82400    240.46029   -265.68006    263624.46   -25598.959    1946.0209    -27544.98   -679.65754     567.7213    78.613045    18.375754    27.280763 
   82600    242.79106   -389.48757    263624.46   -25535.531    1964.8836   -27500.415   -1226.9024    568.67159    78.611792    18.377072    27.268654 
   82800     236.8712   -239.08794    263624.46   -25662.072    1916.9748   -27579.046   -559.96957    569.29584    78.611778    18.377588    27.281018 
   83000    239.56842   -361.56694    263624.46   -25625.982    1938.8031   -27564.785   -1080.5724    570.00118    78.611483    18.378331     27.28435 
   83200     241.7004   -258.76862    263624.46   -25641.846     1956.057   -27597.903   -639.25739     570.4692    78.611591    18.378303    27.296081 
   83400    238.76582   -181.41352    263624.46   -25640.756    1932.3077   -27573.063   -282.62818    570.47867    78.611941    18.379289    27.297895 
   83600    236.75607   -249.42602    263624.46   -25741.538    1916.0431   -27657.581   -582.36573    571.31087    78.612451    18.380802    27.296843 
   83800    237.14062   -99.226689    263624.46   -25693.983    1919.1551   -27613.138    82.288004    570.62672    78.614301    18.381135    27.299268 
   84000    238.23374   -251.74815    263624.46   -25649.394    1928.0016   -27577.396   -639.39778    569.19354    78.614016    18.381972    27.302554 
   84200    241.85158   -95.805514    263624.46   -25641.146    1957.2804   -27598.427    82.037517    570.93496    78.614248    18.383913    27.290513 
   84400    238.97622   -214.78388    263624.46   -25704.654    1934.0105   -27638.665   -470.20697    570.70304    78.613798    18.385117    27.289445 
   84600    240.54206   -403.42595    263624.46   -25641.746    1946.6827   -27588.429   -1287.7464    571.55231    78.614471    18.385898    27.297696 
   84800    242.23122   -193.32261    263624.46   -25692.871    1960.3528   -27653.223    -361.7206    574.28842    78.613308    18.387326    27.284975 
   85000    233.60043   -209.48675    263624.46    -25671.37    1890.5047   -27561.875   -428.24864    574.67495    78.614649    18.387957     27.27579 
   85200    240.06297   -334.22885    263624.46   -25726.342    1942.8054   -27669.147   -1008.2816    576.98336    78.613757    18.386712    27.272368 
   85400    237.02084   -206.88752    263624.46   -25779.732    1918.1858   -27697.918   -451.56895     576.1468    78.614209    18.386035    27.284404 
   85600    236.50733   -405.85907    263624.46   -25791.453      1914.03   -27705.483   -1326.0001    577.92317    78.615134    18.386745    27.314457 
   85800    235.41337   -228.58413    263624.46   -25756.714    1905.1767    -27661.89   -517.99553    579.17456    78.615116    18.386599    27.309202 
   86000    236.94237   -380.13062    263624.46   -25777.893    1917.5507   -27695.444   -1180.8638    578.27827    78.614947    18.387046    27.299295 
   86200    239.78713   -186.42415    263624.46   -25709.311    1940.5731   -27649.884   -327.50829    577.90987    78.615195    18.385864    27.326477 
   86400    236.86345   -343.98244    263624.46   -25761.931     1916.912   -27678.843   -1034.2307    578.24783    78.614542    18.386061    27.324269 
   86600    241.43734   -70.458499    263624.46   -25694.224     1953.928   -27648.153    176.45517    578.75448    78.614967    18.384297    27.315851 
   86800    239.70639   -149.92917    263624.46   -25811.847    1939.9197   -27751.766   -154.66799    578.79907    78.615749    18.383017    27.304757 
   87000    242.46024   -260.61182    263624.46   -25714.031    1962.2063   -27676.237   -608.28072    581.35224    78.615578    18.381645    27.302897 
   87200    239.29351   -152.09469    263624.46   -25694.108    1936.5783   -27630.686   -151.75149    582.98381    78.615404    18.381437    27.301794 
   87400    235.54099    -356.2339    263624.46   -25775.786    1906.2095   -27681.996   -1054.3068    583.43167    78.613713     18.38204    27.306095 
   87600    235.45745   -178.83525    263624.46   -25708.514    1905.5335   -27614.047   -316.57415    584.73432    78.615718    18.379634    27.315893 
   87800    239.71829   -301.37307    263624.46   -25727.855     1940.016   -27667.871   -831.01088    585.22952    78.615623    18.380196    27.320579 
   88000    234.54397   -530.49708    263624.46   -25771.268    1898.1407   -27669.409   -1864.7684    587.75982    78.615802    18.379325    27.331304 
   88200    239.55348   -169.27837    263624.46   -25840.948    1938.6822    -27779.63   -266.18731     586.8356    78.617113    18.381204     27.32781 
   88400    239.78072   -239.07174    263624.46   -25744.858    1940.5212    -27685.38   -560.48166    589.00021    78.616952    18.382406    27.337238 
   88600    236.77905   -331.36634    263624.46    -25768.21     1916.229   -27684.439   -1021.3212    589.41554     78.61605    18.383764    27.337309 
   88800    238.31748   -428.25644    263624.46   -25775.571    1928.6794   -27704.251    -1382.557    593.08599     78.61561    18.384565    27.354044 
   89000    237.42912   -267.93671    263624.46   -25693.623      1921.49   -27615.113   -690.94722    591.49919     78.61704    18.382463    27.352838 
   89200     244.7269   -257.87955    263624.46   -25714.065    1980.5501   -27694.615   -620.15924    592.30819    78.618034     18.38247    27.347538 
   89400    235.84577   -307.93547    263624.46   -25752.293    1908.6761   -27660.969   -880.43299    593.00076    78.616422    18.380841    27.323329 
   89600    235.39999   -361.58132    263624.46   -25862.189    1905.0684   -27767.257   -1121.0325    593.26458    78.614316    18.379324    27.319184 
   89800    242.01731   -250.39234    263624.46   -25727.706    1958.6217   -27686.328   -639.09486    592.17147    78.612699    18.381179    27.318661 
   90000    237.37094   -247.10547    263624.46   -25743.567    1921.0191   -27664.586   -593.96199    592.40139    78.612279    18.383144    27.317192 
   90200    231.46673   -281.51474    263624.46   -25790.059     1873.237   -27663.296   -751.86065    594.03535     78.61216    18.384878    27.313504 
   90400    240.32068   -198.67263    263624.46   -25743.366    1944.8911   -27688.257   -438.75228    592.81866    78.614527    18.387558     27.32001 
   90600    239.40678   -431.47372    263624.46   -25708.477     1937.495   -27645.972     -1405.26    595.97897    78.614616    18.388154    27.315952 
   90800    240.08639   -239.88372    263624.46   -25734.794     1942.995   -27677.789   -612.76408    594.54301    78.613953    18.385855    27.336757 
   91000    235.32335    -273.0746    263624.46   -25740.006    1904.4482   -27644.455   -685.65646    597.52693    78.613972    18.385339    27.341207 
   91200    237.41388   -332.03499    263624.46   -25779.496    1921.3666   -27700.863   -959.42919     598.9013    78.615297     18.38799    27.333422 
   91400    240.62569   -296.16294    263624.46   -25715.563    1947.3595   -27662.922   -832.72599     600.0659    78.615131    18.389675    27.320307 
   91600    240.80981    -404.9153    263624.46   -25632.169    1948.8496   -27581.019   -1279.7282    603.33275    78.614981    18.393794    27.329036 
   91800    244.03437   -112.31277    263624.46   -25631.651    1974.9456   -27606.597  -0.96283555    603.81326    78.615303    18.397248    27.322573 
   92000    242.72932   -271.33319    263624.46   -25686.077     1964.384   -27650.461   -668.12235    605.85435    78.616135    18.397131    27.316339 
   92200    239.50759   -190.71244    263624.46   -25750.438    1938.3108   -27688.749   -323.23042    608.83922    78.617073    18.396882    27.313324 
   92400    241.86012   -261.60394    263624.46   -25695.583    1957.3496   -27652.933   -628.67057    609.44299    78.619556    18.397712    27.309035 
   92600    240.20574   -353.16135    263624.46   -25640.692    1943.9609   -27584.653   -1054.6283    611.12563     78.62116    18.397945    27.298227 
   92800    240.30396   -171.95564    263624.46    -25704.97    1944.7557   -27649.725    -250.7786    610.87468    78.622516    18.398469    27.297545 
   93000    237.72075   -184.99781    263624.46   -25719.658    1923.8501   -27643.508   -302.43231     612.8097    78.623347    18.397095    27.290884 
   93200    236.55118   -277.09698    263624.46   -25704.686    1914.3849    -27619.07   -736.85691     615.7734    78.624203    18.396691    27.280821 
   93400    234.83328   -308.37589    263624.46   -25816.412    1900.4821   -27716.894   -874.78381    618.50824    78.623632    18.396814    27.282935 
   93600    241.90024     -206.059    263624.46   -25763.811    1957.6742   -27721.485   -398.61707    620.17128    78.623684    18.395833    27.296636 
   93800    239.71619   -224.95002    263624.46   -25740.067     1939.999   -27680.066   -503.50191    624.72114    78.624426    18.396697    27.293916 
   94000    240.19031   -291.49586    263624.46   -25767.038     1943.836   -27710.874   -813.72692     626.2836    78.624016    18.396048    27.288908 
   94200    246.10859   -329.85485    263624.46   -25661.804    1991.7321   -27653.536   -946.55627    625.44362    78.624432    18.395637    27.298479 
   94400    238.42822   -287.11515    263624.46   -25688.136    1929.5756   -27617.711   -768.36234    625.01131    78.624133    18.396758    27.306743 
   94600    239.53221   -373.47189    263624.46   -25726.033    1938.5101   -27664.543   -1184.7306    625.43495    78.624976    18.398163    27.318279 
   94800    238.37742   -312.23245    263624.46   -25738.282    1929.1645   -27667.446   -917.35322    626.55175    78.626159    18.398821    27.303522 
   95000    237.11748   -357.82497    263624.46   -25727.488    1918.9679   -27646.456   -1108.5346    627.90868    78.627861     18.39919    27.312572 
   95200    240.60264   -296.71026    263624.46   -25715.101    1947.1729   -27662.274   -837.08153    629.33705    78.628584    18.398487    27.329168 
   95400    237.75136   -255.55606    263624.46   -25718.202    1924.0978     -27642.3   -602.24751    629.14209    78.629336    18.396677    27.315701 
   95600    243.53497   -248.46526    263624.46   -25662.629     1970.904   -27633.533   -581.88382    631.85556    78.630483    18.396847    27.330363 
   95800      245.737   -165.82165    263624.46   -25656.277    1988.7248   -27645.002   -191.39871    630.48931    78.631028     18.39851    27.310423 
   96000     242.7073   -211.11692    263624.46   -25627.308    1964.2057   -27591.513   -460.09397    632.88419    78.631992    18.398479    27.305203 
   96200    242.79126   -176.07649    263624.46   -25597.644    1964.8852   -27562.529    -306.3223    632.02523    78.631628    18.399881     27.31361 
   96400    240.17666   -421.59872    263624.46    -25686.82    1943.7255   -27630.546     -1388.16    635.40615    78.630833      18.3999    27.315438 
   96600     233.8678   -311.33036    263624.46   -25748.049    1892.6685   -27640.718   -906.10703     635.0837    78.630781    18.397983     27.33988 
   96800    239.97064   -210.73724    263624.46   -25705.736    1942.0582   -27647.794   -452.11745    634.12207    78.631517    18.396632    27.326947 
   97000    238.94272   -415.70485    263624.46    -25742.78    1933.7393   -27676.519   -1365.5647    636.72136    78.631819     18.39643    27.337596 
   97200    241.64566   -274.53708    263624.46   -25731.974     1955.614   -27687.588   -748.70611    636.73601    78.633275    18.395658    27.325479 
   97400    240.06366   -131.16221    263624.46   -25727.013     1942.811   -27669.824   -78.060385    639.51677    78.633377    18.398404     27.35281 
   97600    240.26962   -145.31488    263624.46   -25671.789    1944.4779   -27616.267   -122.08601    641.01465    78.631946    18.397559    27.361777 
   97800    240.47716   -435.09365    263624.46    -25677.15    1946.1575   -27623.308   -1421.1088    643.46806    78.631828    18.398053    27.367817 
   98000    238.56431   -439.57068    263624.46   -25708.984    1930.6769   -27639.661   -1439.7002    643.74452      78.6327      18.3972    27.356644 
   98200    235.03307   -136.91329    263624.46   -25744.329    1902.0989   -27646.428   -116.27128    646.15908    78.633186    18.397993    27.355957 
   98400    237.24381   -435.30854    263624.46   -25719.645    1919.9903   -27639.636   -1422.9648    648.50705    78.634026    18.398034    27.353548 
   98600    232.02436   -132.19978    263624.46   -25709.008    1877.7498   -27586.757   -41.416717    648.59305    78.633683    18.398381    27.349754 
   98800      240.385   -298.16884    263624.46   -25626.716    1945.4116   -27572.128   -773.52233    649.62367    78.635761    18.398375    27.338964 
   99000    237.36296   -352.08124    263624.46   -25720.351    1920.9545   -27641.305   -1088.8372    652.05209    78.636087    18.396482    27.329035 
   99200    240.62744   -145.88345    263624.46   -25693.582    1947.3736   -27640.955   -122.47076    654.76233    78.636974    18.395035    27.315884 
   99400    235.48061   -329.29269    263624.46   -25734.166    1905.7209   -27639.887   -976.68999    659.55631    78.636277    18.392256    27.315597 
   99600    242.76245   -400.23759    263624.46   -25692.351    1964.6521   -27657.003    -1279.244    663.69367    78.636589    18.392467    27.308669 
   99800    240.49249   -149.39096    263624.46   -25736.311    1946.2815   -27682.593   -148.46459    660.83322    78.635668    18.393684    27.285243 
  100000    247.01487   -309.98041    263624.46   -25715.541    1999.0665   -27714.607   -889.47861     660.1587    78.637424    18.393996    27.275564 
  100200     232.6529   -141.15313    263624.46   -25799.912    1882.8365   -27682.749    -49.85306     661.4954     78.63881    18.394378    27.282137 
  100400    248.00375    -269.5261    263624.46   -25694.996    2007.0694   -27702.066   -647.19905    665.50925    78.637884    18.394398    27.266554 
  100600    238.84021   -458.99324    263624.46   -25725.065    1932.9098   -27657.975   -1480.2499    666.76302    78.638859     18.39343    27.277079 
  100800    238.33186    -294.7662    263624.46   -25802.587    1928.7958   -27731.382   -774.71558    667.91141    78.639699    18.392554    27.287636 
[...]
 5176000    220.72898   -991.34047    263624.46   -28485.436    1786.3374   -30271.774   -3709.9604    6756.4853    78.458706    16.474037    26.476454 
 5176200    228.36794    -998.9916    263624.46   -28446.402    1848.1588   -30294.561   -3770.1089    6756.8567    78.458841    16.473962    26.479346 
 5176400     225.3138   -990.75006    263624.46   -28462.201    1823.4419   -30285.642   -3746.1802    6757.7656    78.458332    16.475223    26.475753 
 5176600    228.32841   -977.93349    263624.46   -28391.064    1847.8388   -30238.903   -3688.8903    6755.2197    78.459196    16.475336    26.478785 
 5176800    225.89746   -1001.0789    263624.46   -28421.928    1828.1654   -30250.093   -3780.2584    6758.0529    78.459193    16.475997    26.480944 
 5177000    228.65802   -862.27956    263624.46   -28427.875    1850.5063   -30278.381    -3158.111     6755.567     78.45822     16.47616    26.479476 
 5177200    228.65504   -1046.7492    263624.46   -28393.013    1850.4822   -30243.495   -4018.3623     6758.372    78.458171     16.47622    26.480887 
 5177400    231.80539   -985.23236    263624.46   -28363.437    1875.9777   -30239.415    -3710.409     6756.873    78.458033     16.47642    26.480527 
 5177600    229.53653   -847.84742    263624.46   -28363.231    1857.6161   -30220.847   -3105.7813    6754.6997    78.457938    16.476526    26.483525 
 5177800    223.74553   -1032.0982    263624.46   -28433.646      1810.75   -30244.396   -3937.1947     6757.683    78.457914    16.476702    26.487122 
 5178000    226.50221   -964.04082    263624.46    -28464.69    1833.0596    -30297.75   -3640.5647     6756.416    78.458371     16.47691    26.483972 
 5178200    227.18568   -929.17285    263624.46   -28433.755    1838.5908   -30272.346   -3457.1073    6754.9938    78.459048    16.477612    26.484392 
 5178400    228.97311   -1078.5162    263624.46   -28412.223    1853.0563   -30265.279   -4121.7372     6757.284    78.458729    16.478364    26.490135 
 5178600     230.0713   -1015.5058    263624.46   -28427.829    1861.9438   -30289.773   -3872.9976     6754.735    78.458497    16.477755    26.484129 
 5178800    230.43173   -1006.8702    263624.46   -28394.676    1864.8608   -30259.537   -3819.4316    6758.5938    78.457958    16.478832    26.488047 
 5179000    228.84121   -946.18168    263624.46   -28465.894    1851.9888   -30317.883   -3554.4784    6755.8001    78.457983    16.479293    26.486557 
 5179200    227.01748   -971.21228    263624.46   -28488.553    1837.2296   -30325.783   -3639.1194    6756.7269    78.458857    16.480024    26.483502 
 5179400    235.35833   -939.56598    263624.46   -28364.772    1904.7313   -30269.503   -3476.1033    6756.1278    78.457425    16.479755    26.486578 
 5179600    228.80183   -944.79897    263624.46   -28458.502    1851.6702   -30310.172    -3508.781    6756.6527    78.457789    16.480555    26.479373 
 5179800    221.81755   -960.60033    263624.46   -28482.678    1795.1471   -30277.825   -3596.4408    6757.0829    78.455522    16.481423    26.484617 
 5180000    217.67152    -955.2931    263624.46   -28552.362    1761.5937   -30313.955   -3591.5924    6756.9137    78.454665     16.48198    26.481121 
 5180200    225.25385   -982.56681    263624.46   -28512.263    1822.9568    -30335.22   -3712.2395    6759.3367    78.455094    16.483992    26.479789 
 5180400     225.8636   -877.20491    263624.46   -28408.811    1827.8914   -30236.703   -3218.7512    6755.2418    78.454192    16.484808    26.483244 
 5180600       231.31   -921.07176    263624.46   -28450.216    1871.9685   -30322.185   -3406.3075    6758.9385    78.453834     16.48412    26.486989 
 5180800    222.81701   -989.30354    263624.46   -28506.148    1803.2356   -30309.384    -3739.297    6758.2436    78.452691    16.486205    26.488498 
 5181000    225.78767   -920.77378    263624.46   -28410.955    1827.2769   -30238.232   -3453.1445    6754.5363    78.451992    16.486857    26.490323 
 5181200    223.37358   -1035.5278    263624.46   -28494.368    1807.7399   -30302.108   -3958.6954    6759.7357    78.452078    16.487258    26.486504 
 5181400    227.34174   -990.09594    263624.46   -28461.173    1839.8538   -30301.026   -3768.4846      6757.95    78.451805    16.487033    26.490232 
 5181600    220.40794   -1006.0785    263624.46   -28493.697    1783.7393   -30277.436   -3808.3313    6757.8129    78.451661    16.486865    26.487162 
 5181800    228.73459   -1004.7397    263624.46   -28430.572     1851.126   -30281.698   -3816.3824    6757.2868    78.451733    16.487396    26.485834 
 5182000    228.94151   -1023.9887    263624.46   -28442.336    1852.8005   -30295.136   -3885.3109    6757.2498    78.451542    16.488764    26.490221 
 5182200     227.8521   -974.70908    263624.46   -28405.327    1843.9841   -30249.311   -3669.8319    6759.0512    78.451445    16.488575    26.494313 
 5182400    224.85705   -948.52483    263624.46   -28482.495    1819.7454    -30302.24   -3559.3574    6755.2181    78.451333    16.489761    26.491582 
 5182600    226.56899   -1009.3462    263624.46   -28472.096       1833.6   -30305.696   -3787.5249     6760.011     78.45199    16.488785    26.497078 
 5182800    224.00532   -931.17444    263624.46   -28440.789    1812.8525   -30253.642   -3463.6662    6755.4049    78.451285    16.490784    26.490691 
 5183000    228.32083   -923.78139    263624.46   -28389.005    1847.7775   -30236.783   -3439.6956    6755.9672    78.452116    16.489596     26.50241 
 5183200    224.34812   -1022.8482    263624.46    -28434.62    1815.6267   -30250.247    -3879.722    6759.8334    78.450575    16.488981    26.499034 
 5183400    220.82401   -950.50194    263624.46   -28533.243    1787.1065   -30320.349   -3564.2392    6756.4059    78.450406    16.487206    26.495114 
 5183600    223.44542   -946.78366    263624.46   -28505.687    1808.3213   -30314.008   -3552.2223     6756.106    78.450913    16.487464    26.498704 
 5183800    229.34146    -1068.705    263624.46   -28486.106    1856.0373   -30342.143   -4098.8203    6760.7227    78.451664    16.486784    26.490321 
 5184000    226.37452   -961.07052    263624.46   -28445.704    1832.0262    -30277.73   -3600.6286    6755.4014    78.451645    16.486322    26.488214 
 5184200     226.7959   -940.98232    263624.46   -28446.303    1835.4364   -30281.739    -3516.549    6756.8949    78.451137     16.48713    26.489258 
 5184400    225.49518   -957.12079    263624.46   -28447.492    1824.9098   -30272.402   -3592.4739    6757.1857    78.451621    16.484427    26.484227 
 5184600    222.79173   -1003.8101    263624.46   -28450.281     1803.031   -30253.312   -3798.0617    6758.0745    78.451304     16.48576    26.485928 
 5184800    227.14701   -951.26021    263624.46   -28450.196    1838.2779   -30288.474   -3564.3538      6756.22    78.451776    16.484443     26.49288 
 5185000    225.13122   -1009.8699    263624.46    -28443.54    1821.9643   -30265.504   -3827.1453    6759.0721    78.450069    16.484231    26.483775 
 5185200    223.90959   -907.39854    263624.46    -28478.86    1812.0777   -30290.937   -3381.6583    6752.9319    78.451246    16.484225    26.487814 
 5185400    227.19739   -1013.4075    263624.46   -28448.322    1838.6856   -30287.008   -3847.3397    6761.5134    78.450312    16.484499    26.486832 
 5185600    230.88889   -914.58564    263624.46   -28468.678    1868.5605   -30337.239   -3393.1707    6755.6724    78.450791    16.483512    26.485071 
 5185800    232.49987   -991.79173    263624.46   -28430.378     1881.598   -30311.976   -3759.1514    6757.7138    78.451337    16.484184    26.481714 
 5186000    231.93953   -1028.7459    263624.46   -28400.878    1877.0633   -30277.941   -3923.9239    6755.2914     78.45125    16.482707    26.481402 
 5186200    225.45862   -1000.7253    263624.46   -28429.695    1824.6139   -30254.309   -3787.6803    6757.4489    78.450988    16.482526    26.477962 
 5186400    233.69652   -955.11341    263624.46   -28454.857    1891.2824    -30346.14   -3595.0247    6756.3843     78.45153    16.483549    26.482876 
 5186600    222.42433   -976.17155    263624.46   -28465.884    1800.0577   -30265.941    -3706.955    6755.8215    78.451305    16.482613    26.484245 
 5186800    232.91567   -894.52157    263624.46   -28371.217    1884.9631    -30256.18   -3316.3881    6757.0644    78.450737    16.482315    26.484637 
 5187000    229.82603    -964.2368    263624.46   -28376.331    1859.9589    -30236.29   -3642.9733    6757.2264    78.450637    16.481461    26.483602 
 5187200    220.52254   -996.33232    263624.46   -28531.419    1784.6667   -30316.086   -3789.9759    6755.9109    78.451134    16.482543    26.476818 
 5187400    221.09696   -903.60792    263624.46   -28535.326    1789.3155   -30324.641   -3333.9969     6756.089    78.451263    16.481773    26.481038 
 5187600    224.39244   -1030.3404    263624.46   -28443.552    1815.9854   -30259.537   -3939.8241    6757.9829    78.451227    16.483006    26.481949 
 5187800    229.30037   -1011.6108    263624.46   -28475.504    1855.7048   -30331.208   -3850.5104     6758.695    78.451489    16.481689    26.482513 
 5188000     229.2136   -999.71222    263624.46   -28388.009    1855.0026   -30243.012   -3746.4244    6756.4501    78.451266    16.481904    26.483492 
 5188200    229.80444   -1036.3205    263624.46   -28408.125    1859.7842   -30267.909   -3932.7825     6759.555    78.451299    16.481706    26.483706 
 5188400    228.42064   -863.90072    263624.46   -28463.456    1848.5852   -30312.041   -3180.9086    6756.8918    78.450352    16.479154    26.481707 
 5188600    221.65924   -983.10138    263624.46   -28502.931    1793.8659   -30296.797   -3746.1481    6757.2574    78.450459    16.479446    26.485836 
 5188800     220.3575   -1010.8287    263624.46   -28483.844    1783.3311   -30267.176   -3831.9066    6756.6921    78.449979     16.47984    26.487896 
 5189000    228.11607   -1029.6312    263624.46    -28449.17    1846.1204    -30295.29   -3887.5222    6757.4045    78.448583    16.479647    26.488373 
 5189200    225.61162   -980.69579    263624.46   -28546.716    1825.8521   -30372.568   -3674.2025    6757.6239    78.449381    16.478081    26.489992 
 5189400     221.4461   -894.05896    263624.46   -28468.256     1792.141   -30260.397   -3259.3775    6758.8031    78.448241     16.47881    26.492559 
 5189600     227.6497    -962.4811    263624.46   -28422.464    1842.3461    -30264.81   -3595.8228    6756.2147    78.447571    16.478481     26.49083 
 5189800    224.75612   -970.65885    263624.46   -28470.026    1818.9286   -30288.954   -3638.4293    6757.1381    78.448175      16.4783    26.489375 
 5190000    222.02643   -953.47621    263624.46   -28464.675    1796.8375   -30261.512   -3560.8211     6756.467     78.44889    16.478654    26.486392 
 5190200    222.51177    -1003.582    263624.46   -28493.586    1800.7653   -30294.352   -3813.1429    6756.3288    78.449044    16.478825    26.487978 
 5190400    237.43095   -970.39277    263624.46   -28328.848    1921.5047   -30250.352   -3658.6703    6756.8734     78.45005    16.479304    26.483626 
 5190600    226.83226   -1019.8683    263624.46    -28450.39    1835.7306   -30286.121   -3858.7342    6755.7398    78.449024    16.478156    26.482778 
 5190800     226.5915   -943.70779    263624.46   -28450.022    1833.7822   -30283.804   -3505.8622    6758.2341    78.448938    16.478283    26.486087 
 5191000    223.40291   -992.91503    263624.46   -28483.485    1807.9773   -30291.462   -3751.9902     6755.818     78.44782    16.478139    26.485316 
 5191200    230.74756   -1133.3822    263624.46   -28457.322    1867.4168   -30324.739   -4366.5854    6759.3354    78.448159    16.477391    26.484595 
 5191400    228.10138     -964.255    263624.46   -28466.351    1846.0015   -30312.353   -3644.7867    6755.6635    78.448793    16.475254    26.481177 
 5191600    228.73898    -988.9276    263624.46   -28477.341    1851.1616   -30328.503   -3746.6609    6758.4185    78.448369    16.475065    26.487261 
 5191800    228.41105   -1058.9149    263624.46   -28382.096    1848.5076   -30230.603    -4081.279    6758.2078    78.447652    16.473896    26.489385 
 5192000    230.06847   -1006.1552    263624.46   -28380.361     1861.921   -30242.282   -3798.0379    6756.9208    78.447098    16.472459    26.480299 
 5192200     231.5844   -904.27428    263624.46   -28434.697    1874.1892   -30308.886   -3348.7345    6754.7878    78.448082    16.473377    26.492983 
 5192400    231.53018   -954.19229    263624.46   -28415.736    1873.7504   -30289.487   -3541.8613    6760.6909    78.446215     16.47292    26.491199 
 5192600    222.24258    -853.7327    263624.46   -28484.278    1798.5868   -30282.865   -3097.2383     6752.963    78.445574    16.472673    26.487544 
 5192800    231.02405   -972.42016    263624.46   -28423.392    1869.6544   -30293.046   -3627.8511     6759.219    78.445747    16.472554    26.490872 
 5193000    223.19113   -929.27191    263624.46   -28468.288    1806.2634   -30274.552   -3456.7765    6752.8068    78.445326    16.473375    26.489328 
 5193200    232.09771    -1022.103    263624.46    -28416.07    1878.3434   -30294.414   -3859.0084    6757.0796    78.444334    16.474419     26.48706 
 5193400    230.55734    -987.0265    263624.46   -28481.153    1865.8774    -30347.03   -3700.6479    6755.3248    78.444587    16.474625    26.483962 
 5193600    224.57229    -929.6855    263624.46    -28389.88    1817.4409   -30207.321   -3448.5988    6756.6872    78.444345    16.475263    26.484663 
 5193800    227.62314   -992.07944    263624.46   -28487.477    1842.1311   -30329.608   -3757.1703    6758.0988    78.442853    16.475702    26.490694 
 5194000    221.18874   -1016.4984    263624.46   -28562.641    1790.0582   -30352.699   -3842.3729    6754.7632    78.443238    16.475472    26.486683 
 5194200     221.2299   -1065.0178    263624.46   -28493.275    1790.3913   -30283.667   -4046.7047    6753.7761    78.443923    16.474518    26.489509 
 5194400    227.30948   -1008.5359    263624.46   -28418.935    1839.5928   -30258.528   -3811.1567    6758.5254    78.443657    16.474298    26.491418 
 5194600    230.92662   -963.72614    263624.46   -28401.052    1868.8659   -30269.918   -3613.7415    6754.0023     78.44347    16.475187    26.486338 
 5194800    229.15665   -987.91356    263624.46   -28418.009    1854.5417   -30272.551    -3700.748    6758.8743    78.444727    16.475013    26.490761 
 5195000    225.88778   -890.38875    263624.46   -28438.412    1828.0871   -30266.499   -3259.1321    6754.2326    78.445311    16.474837    26.483089 
 5195200    227.54603   -976.42955    263624.46   -28421.768    1841.5071   -30263.275    -3655.802    6756.9985     78.44503    16.475259     26.48734 
 5195400    230.66486   -947.35244    263624.46   -28405.635    1866.7475   -30272.383   -3553.7951    6755.6787    78.443792    16.475874    26.485277 
 5195600    221.16578   -1020.5211    263624.46   -28496.264    1789.8724   -30286.136   -3882.3632    6756.0804    78.443824    16.475379     26.48435 
 5195800     235.1395   -858.46356    263624.46   -28351.786    1902.9603   -30254.747   -3147.5264    6755.1175    78.443465    16.476768    26.491487 
 5196000    227.46794   -1024.9384    263624.46   -28430.257    1840.8751   -30271.132   -3881.6383    6759.6486    78.441601    16.477073    26.490292 
 5196200    227.55533   -980.23574    263624.46    -28434.59    1841.5823   -30276.172   -3715.0057    6752.3939    78.441162    16.477486    26.485864 
 5196400    228.64668    -1065.057    263624.46   -28414.516    1850.4146   -30264.931   -4084.9245    6758.2085    78.440254    16.477636     26.48752 
 5196600    225.13623   -987.23379    263624.46   -28457.656    1822.0048    -30279.66   -3696.6484    6757.8207    78.439106    16.477576    26.486274 
 5196800    227.34615   -934.35411    263624.46   -28426.782    1839.8895   -30266.672   -3469.6983    6756.3438    78.437588    16.479954    26.484311 
 5197000    232.06982   -1022.8419    263624.46   -28389.175    1878.1177   -30267.293    -3854.763    6755.5963    78.438519     16.47927    26.491982 
 5197200    228.61453   -882.25309    263624.46   -28454.149    1850.1544   -30304.303   -3226.1481      6756.05    78.437617    16.479754     26.49016 
 5197400    229.36176     -912.894    263624.46   -28429.268    1856.2016    -30285.47   -3359.3578    6754.0838     78.43635    16.480176    26.489864 
 5197600    221.75522   -936.44844    263624.46   -28483.793    1794.6427   -30278.436   -3527.3848    6757.2333    78.436785    16.481863    26.491054 
 5197800    222.98246   -959.65649    263624.46   -28557.263    1804.5746   -30361.838   -3618.2353    6756.1119    78.438289    16.481502    26.487489 
 5198000    229.26853   -937.09425    263624.46   -28431.899    1855.4472   -30287.346   -3494.0327     6756.412    78.436863    16.482418    26.492911 
 5198200    228.11852    -948.6787    263624.46   -28421.392    1846.1402   -30267.533   -3578.2894    6756.4818    78.436735     16.48368    26.491082 
 5198400    224.42703   -957.14757    263624.46   -28507.063    1816.2653   -30323.328   -3602.3469    6756.6096     78.43728    16.484014    26.486786 
 5198600    224.09391   -997.60386    263624.46   -28535.266    1813.5695   -30348.835    -3784.006    6760.1834    78.435901    16.483811    26.491386 
 5198800     225.1468   -923.18597    263624.46   -28465.524    1822.0903   -30287.614   -3461.3884    6755.9298    78.435567    16.484639     26.49463 
 5199000    229.42492   -976.25804    263624.46    -28395.32    1856.7128   -30252.032    -3673.102    6757.8069    78.435071    16.484682    26.492278 
 5199200    220.53028   -1046.0304    263624.46   -28443.549    1784.7294   -30228.278   -3975.0603    6758.0663    78.434587    16.485302    26.487197 
 5199400    223.67668   -927.30681    263624.46   -28466.095    1810.1928   -30276.287   -3491.0974    6756.6855    78.433969    16.487591    26.486089 
 5199600    221.63571   -904.54454    263624.46   -28433.857    1793.6755   -30227.533   -3354.0077    6755.5666    78.433295    16.490081    26.492139 
 5199800    228.69571   -991.18985    263624.46   -28438.074    1850.8114   -30288.886   -3730.4141    6760.5152    78.432521    16.490054    26.489656 
 5200000     226.0083   -886.90846    263624.46    -28444.97    1829.0624   -30274.033   -3291.3806    6754.4343    78.430566    16.491552    26.484547 
Loop time of 26028.6 on 100 procs for 5200000 steps with 9436 atoms

Performance: 172.610 ns/day, 0.139 hours/ns, 199.780 timesteps/s
96.4% CPU use with 100 MPI tasks x no OpenMP threads

MPI task timing breakdown:
Section |  min time  |  avg time  |  max time  |%varavg| %total
---------------------------------------------------------------
Pair    | 0.27716    | 2988.8     | 12033      |7184.2 | 11.48
Neigh   | 0.43089    | 185.96     | 818.92     |1954.0 |  0.71
Comm    | 15.192     | 4643.5     | 12312      |6410.7 | 17.84
Output  | 237.6      | 237.71     | 239.65     |   1.3 |  0.91
Modify  | 4841.5     | 12522      | 23881      |5692.9 | 48.11
Other   |            | 5450       |            |       | 20.94

Nlocal:        94.3600 ave         345 max           0 min
Histogram: 43 14 23 0 0 0 0 0 0 20
Nghost:        631.110 ave        1201 max           0 min
Histogram: 20 4 4 4 8 0 29 9 8 14
Neighs:         0.00000 ave           0 max           0 min
Histogram: 100 0 0 0 0 0 0 0 0 0
FullNghs:      9232.76 ave       42445 max           0 min
Histogram: 71 9 0 0 0 0 0 0 3 17

Total # of neighbors = 923276
Ave neighs/atom = 97.846121
Neighbor list builds = 557539
Dangerous builds = 0
write_data 		${DIR}/data.${NAME}_run
write_data 		run_1/data.${NAME}_run
write_data 		run_1/data.ibeam_cooling_1_run
System init for write_data ...
Total wall time: 7:15:18
