
# Set production fixes - Nose/Hoover
#
fix                 4 water temp/csvr ${START_TEMP} ${END_TEMP} 500.0 928347
fix                 4 water temp/csvr 235 ${END_TEMP} 500.0 928347
fix                 4 water temp/csvr 235 225 500.0 928347


## divide "droplet" into core and surface
#region		core_reg cylinder z 135 135 44.6 20 INF units box
#region		surface_reg cylinder z 135 135 44.6 20 INF units box side out
#group		core dynamic all region core_reg
#group		surface dynamic all region surface_reg

## compute pressure core
#compute        peratom_core core stress/atom NULL
#compute        p_core core reduce sum c_peratom_core[1] c_peratom_core[2] c_peratom_core[3]
#variable       press_core equal -(c_p_core[1]+c_p_core[2]+c_p_core[3])/(3*1249982.5)


## compute pressure surface
#compute        peratom_surf surface stress/atom NULL
#compute        p_surf surface reduce sum c_peratom_surf[1] c_peratom_surf[2] #c_peratom_surf[3]
#variable       press_surf equal -(c_p_surf[1]+c_p_surf[2]+c_p_surf[3])/(3*42395)

## compute total pressure of drop
compute        peratom water stress/atom NULL
compute        p water reduce sum c_peratom[1] c_peratom[2] c_peratom[3]
variable       press equal -(c_p[1]+c_p[2]+c_p[3])/(3*58187)


# compute order parameter
compute        3 all orientorder/atom nnn NULL cutoff 3.5

# compute center of mass of bridge
compute 	4 water com

# Run simulation
thermo_style        custom step c_2 press vol etotal ke pe v_press c_1[4] c_4[*]
thermo              200
dump		     1 water custom 400 ${DIR}/prod.${NAME}.dump id type x y z vx vy vz c_3[*] c_peratom[*]
dump		     1 water custom 400 run_11/prod.${NAME}.dump id type x y z vx vy vz c_3[*] c_peratom[*]
dump		     1 water custom 400 run_11/prod.ibeam_cooling_11.dump id type x y z vx vy vz c_3[*] c_peratom[*]
run                 ${STEPS}
run                 4000000
Neighbor list info ...
  update every 1 steps, delay 0 steps, check yes
  max neighbors/atom: 2000, page size: 100000
  master list distance cutoff = 6.67472
  ghost atom cutoff = 6.67472
  binsize = 3.33736, bins = 24 22 12
  2 neighbor lists, perpetual/occasional/extra = 1 1 0
  (1) pair sw, perpetual
      attributes: full, newton on
      pair build: full/bin/atomonly
      stencil: full/bin/3d
      bin: standard
  (2) compute orientorder/atom, occasional, copy from (1)
      attributes: full, newton on
      pair build: copy
      stencil: none
      bin: none
Per MPI rank memory allocation (min/avg/max) = 0.866 | 6.23 | 7.207 Mbytes
Step c_2 Press Volume TotEng KinEng PotEng v_press c_1[4] c_4[1] c_4[2] c_4[3] 
       0    235.47405    -151.0839       229892   -22669.485    1674.0396   -24343.525   -34.019594    28.151852     39.44357     35.56459    26.713777 
     200    231.82922   -337.89291       229892   -22696.475    1648.1277   -24344.603   -787.48758    28.990011    39.444469    35.566585    26.703515 
     400    236.87614   -413.78237       229892   -22685.416    1684.0075   -24369.424   -1064.3461     30.19688    39.445049    35.568091    26.695884 
     600     235.4697   -323.25049       229892   -22571.428    1674.0087   -24245.437   -687.00816    31.252951    39.446716    35.569644    26.702017 
     800    238.65094   -450.46208       229892   -22542.984    1696.6249   -24239.609   -1210.4049     32.42048    39.446026    35.571265    26.694405 
    1000    237.53738   -402.15265       229892    -22596.51    1688.7084   -24285.218   -1016.7143    32.876391    39.445007    35.570991    26.690902 
    1200    228.87113   -402.26529       229892   -22573.299     1627.098   -24200.397   -1027.9904     33.02817    39.445124    35.571798     26.67908 
    1400    239.30973   -291.78164       229892   -22570.652    1701.3084    -24271.96   -591.91294    34.413409    39.445536    35.573114     26.67447 
    1600    238.49044   -250.96274       229892   -22555.824    1695.4839   -24251.308   -474.38255    35.598928    39.446386     35.57234     26.67326 
    1800    239.22294   -478.00366       229892   -22521.209    1700.6914     -24221.9   -1326.7267    37.228664    39.446347    35.571829    26.673103 
    2000    243.12974   -374.44965       229892    -22446.93    1728.4657   -24175.396   -907.31589     38.44682    39.443711    35.572003    26.680328 
    2200    237.74142   -500.33801       229892   -22519.853    1690.1589   -24210.012   -1420.0942    40.016774     39.44572    35.569765     26.69222 
    2400     237.6475   -151.46679       229892    -22492.57    1689.4912   -24182.061   -65.364078    41.362538    39.447476    35.567834    26.664746 
    2600     235.8571   -438.01381       229892   -22544.665    1676.7628   -24221.428   -1158.2559    43.754572    39.444905    35.566426    26.649132 
    2800    236.02264   -432.24494       229892   -22482.362    1677.9397   -24160.302   -1148.2085    44.693656    39.443525    35.563752    26.657042 
    3000    233.70242    -167.0178       229892    -22491.18    1661.4447   -24152.625   -146.59988    46.265389    39.443723    35.562311    26.652278 
    3200    230.76744   -378.07065       229892   -22575.614    1640.5793   -24216.193   -925.29953     47.15461    39.444331    35.559503    26.657932 
    3400    237.35817   -456.86475       229892   -22564.284    1687.4343   -24251.718   -1244.0984    48.454612    39.445415    35.558476    26.676123 
    3600    227.65278   -388.66364       229892   -22561.943    1618.4364   -24180.379    -985.8505     49.90963    39.442947    35.559909    26.687068 
    3800    241.82969   -392.85543       229892   -22537.605    1719.2233   -24256.828   -963.66265    50.940657    39.442352    35.560468    26.694128 
    4000    236.08367   -310.25745       229892   -22624.015    1678.3736   -24302.388   -683.84648    51.918898    39.445313     35.56004    26.701153 
    4200    242.68954   -202.66373       229892   -22564.651    1725.3363   -24289.987   -255.94006    53.638067    39.446071    35.562153    26.694291 
    4400    234.33754   -414.95203       229892   -22601.697    1665.9599   -24267.657   -1084.8727    54.662027    39.447513    35.563968    26.694375 
    4600    232.62634    -467.5779       229892   -22653.448    1653.7946   -24307.243   -1270.0118     55.85688    39.448745    35.564688    26.717519 
    4800    233.19626   -486.03213       229892   -22527.138    1657.8463   -24184.984   -1330.6898    57.148501    39.451653    35.564949    26.724311 
    5000    233.92699   -311.99289       229892    -22565.61    1663.0412   -24228.652   -667.20303    58.044923    39.451698    35.564147    26.732016 
    5200    229.59178   -385.74916       229892   -22547.218    1632.2212   -24179.439   -942.56256    60.492202    39.452756     35.56381    26.726249 
    5400    237.18537   -280.36622       229892   -22557.928    1686.2058   -24244.133   -541.16182     61.68297    39.451719    35.566345    26.738748 
    5600    240.33392   -506.95525       229892   -22526.359    1708.5896   -24234.948   -1395.7924    63.385274    39.453566    35.564074     26.74618 
    5800    241.95491   -111.65845       229892   -22524.071    1720.1136   -24244.185    118.85016    64.693517    39.452805    35.564346    26.740244 
    6000    233.99188   -442.07875       229892   -22608.996    1663.5025   -24272.498    -1172.857    65.310215    39.453878    35.568038    26.736187 
    6200    230.62887   -369.03705       229892   -22620.486    1639.5941   -24260.081   -835.17299    66.115365    39.454447    35.569278    26.727394 
    6400    234.51373   -346.69153       229892   -22597.075    1667.2125   -24264.287   -813.19122    67.811165    39.455423    35.569368    26.725678 
    6600    231.21196   -182.28814       229892   -22617.276    1643.7394   -24261.016   -129.85193    69.010709     39.45435    35.570195     26.72805 
    6800    233.01613   -211.47642       229892   -22597.506    1656.5657   -24254.072   -257.60784    69.673788    39.453827    35.570683    26.737235 
    7000    242.14569   -322.64398       229892   -22563.302    1721.4699   -24284.772   -718.40365    71.133083    39.453369    35.570061    26.745381 
    7200    230.49156   -407.40803       229892   -22660.842    1638.6179    -24299.46   -1053.5341    71.495873    39.451668    35.569261    26.746932 
    7400    238.30339    -353.9397       229892    -22624.43     1694.154   -24318.584   -807.80682    71.858777    39.449458    35.568192    26.746688 
    7600     241.4226   -294.32355       229892   -22536.423    1716.3293   -24252.752   -588.37241    72.253231    39.449665    35.565942    26.768238 
    7800    225.00007   -523.94772       229892   -22632.202    1599.5777    -24231.78   -1539.8483    74.105218    39.451405    35.566261    26.769764 
    8000    236.34419   -352.35974       229892   -22484.847    1680.2256   -24165.073   -834.28525    74.928976    39.453307    35.566363    26.763061 
    8200    233.96789   -292.62353       229892   -22530.865     1663.332   -24194.197   -541.12689    77.583764    39.454132    35.566648    26.765907 
    8400    238.47705   -336.22185       229892   -22511.777    1695.3887   -24207.165   -772.04157     79.86905    39.454861    35.566263    26.791054 
    8600    237.22956   -406.82452       229892    -22545.91      1686.52    -24232.43   -1060.5151    80.224035     39.45618    35.565757     26.80154 
    8800    233.13068   -253.67274       229892   -22582.858    1657.3801   -24240.238   -450.18766    81.008535    39.454735    35.564636     26.81227 
    9000    238.33071   -396.91416       229892   -22556.471    1694.3483   -24250.819   -1010.1966    81.955229    39.453605    35.565196    26.794867 
    9200     238.2671   -88.896484       229892   -22520.762    1693.8961   -24214.658    231.60818    84.664785    39.452897    35.565147     26.79386 
    9400    235.51779   -415.37918       229892   -22567.104    1674.3506   -24241.455   -1118.3462    86.191086    39.453073    35.567026     26.78072 
    9600    233.63871   -368.45623       229892   -22596.411    1660.9918   -24257.402   -888.89635    87.757758    39.453224     35.57064    26.774897 
    9800    239.23122   -287.90788       229892   -22509.767    1700.7502   -24210.517   -553.98767    89.018827    39.454094    35.571466    26.770283 
   10000    231.94706   -498.34139       229892   -22559.128    1648.9655   -24208.093   -1405.7293    89.835041    39.453892    35.571056    26.764831 
   10200    241.11174   -382.63122       229892   -22499.098    1714.1193   -24213.217   -955.31267    91.200544     39.45464    35.572538    26.755154 
   10400    238.66346   -271.96814       229892   -22521.841    1696.7139   -24218.555   -477.90222    92.296345    39.454514    35.572654    26.736189 
   10600    230.69126   -399.60634       229892    -22591.48    1640.0376   -24231.517   -1042.5033    94.307975    39.452356    35.572516     26.74001 
   10800    230.79037   -226.73261       229892   -22638.228    1640.7423    -24278.97   -341.03554    94.676759    39.450768    35.572614    26.720943 
   11000    234.39593   -373.56332       229892    -22678.98    1666.3751   -24345.356   -911.45114    96.115633    39.451347    35.574829    26.721478 
   11200    235.60995    -321.6816       229892   -22642.392    1675.0058   -24317.398   -715.96918    97.113403    39.450814    35.571619    26.734988 
   11400    233.57341   -185.22524       229892   -22609.597    1660.5276   -24270.125   -184.45486    97.656528    39.452255     35.57141    26.748004 
   11600    235.44965   -340.45649       229892   -22512.484    1673.8662    -24186.35   -809.78902    98.853749    39.449595    35.573674    26.761416 
   11800    236.60474   -309.82996       229892   -22528.763     1682.078   -24210.841   -714.09691    101.69119    39.448054    35.574914    26.771725 
   12000    239.40899   -184.43231       229892   -22511.516     1702.014    -24213.53    -141.0362     103.0074    39.448286    35.576816    26.781027 
   12200    232.62572   -286.42225       229892   -22544.745    1653.7902   -24198.535     -545.684    103.43175    39.450247    35.577406    26.775858 
   12400    234.59308   -279.00898       229892    -22539.52    1667.7767   -24207.297   -571.24551    104.07339    39.451577    35.576941     26.79984 
   12600    239.57447   -434.08625       229892   -22477.558    1703.1905   -24180.749   -1128.1794    105.04264    39.451118    35.578549    26.786793 
   12800    231.38212    -433.5326       229892   -22512.499    1644.9492   -24157.448    -1146.367    106.35106    39.449764    35.580819    26.779316 
   13000    230.87979   -413.42114       229892   -22566.702     1641.378    -24208.08   -1055.2514    108.59197    39.448558    35.583295    26.756365 
   13200    230.33934    -348.4597       229892   -22617.537    1637.5358   -24255.072   -781.08789    108.71217    39.450177    35.584362    26.770732 
   13400    232.52694   -406.60927       229892   -22673.465     1653.088   -24326.553   -1021.8899     110.2166    39.448734     35.58474    26.792848 
   13600    230.73272   -318.13428       229892   -22619.046    1640.3324   -24259.378   -708.25082     110.6042    39.446132    35.586064    26.809559 
   13800    234.17843   -603.92813       229892    -22565.39    1664.8288   -24230.218   -1853.7549    111.82004    39.446333    35.585934    26.798012 
   14000    235.05988   -378.75375       229892   -22490.633    1671.0952   -24161.729   -902.85558    113.49863    39.446251    35.586615     26.79433 
   14200    236.46767   -264.03223       229892   -22548.204    1681.1035   -24229.308    -480.0896    112.31494    39.447983     35.58586    26.802926 
   14400    231.29657   -210.46059       229892   -22577.149     1644.341    -24221.49   -302.65911     113.1383    39.447386    35.585038    26.815363 
   14600    230.32542   -437.49372       229892   -22585.354    1637.4368   -24222.791    -1185.894    115.35603    39.444234    35.582109    26.808993 
   14800    236.69128    -345.9875       229892   -22515.859    1682.6932   -24198.552   -829.49138    116.08738    39.444337    35.583577     26.80084 
   15000    235.85311   -241.32821       229892   -22555.023    1676.7344   -24231.757   -394.97848     116.9778    39.442821    35.582415    26.803946 
   15200    235.85556   -300.34866       229892   -22530.505    1676.7519   -24207.257   -647.71646    117.95514    39.441338    35.581299    26.811628 
   15400    230.87119   -373.57961       229892   -22560.694    1641.3168   -24202.011     -952.136    119.56493    39.442256    35.581144    26.801394 
   15600    235.47477   -350.59234       229892   -22483.909    1674.0448   -24157.954   -814.46681    120.45552    39.443815    35.580239    26.790693 
   15800    241.42145   -428.98828       229892   -22499.252    1716.3211   -24215.573   -1143.2896    122.53011    39.443004    35.578386    26.791014 
   16000    232.68844    -358.1386       229892   -22546.078    1654.2361   -24200.314   -854.44589    126.05269     39.44198    35.577018    26.776158 
   16200    239.12033   -274.27038       229892   -22519.878    1699.9619   -24219.839   -545.69934    126.90542    39.442323     35.57838    26.784095 
   16400    235.51894   -560.39764       229892   -22567.204    1674.3588   -24241.563   -1672.2726    128.25897     39.43935    35.579851    26.781994 
   16600    238.05638   -409.16981       229892   -22506.967     1692.398   -24199.365   -1071.9141    128.43487    39.439337    35.579973    26.781979 
   16800    235.73658   -273.49756       229892   -22564.687     1675.906   -24240.593   -562.37527    130.75108    39.438759    35.578803    26.792736 
   17000    233.92812    -409.5478       229892    -22593.97    1663.0492   -24257.019   -1061.6141    132.23347    39.439809    35.578305    26.781014 
   17200    235.90355     -321.263       229892   -22587.559     1677.093   -24264.652   -699.02927    131.81757    39.441182     35.57752    26.757848 
   17400    234.69517   -331.58816       229892   -22659.407    1668.5024    -24327.91   -739.98941    134.12822    39.441002    35.577263    26.744132 
   17600    233.00544   -398.82535       229892   -22601.607    1656.4897   -24258.097   -1036.5333      134.455     39.44165    35.576573    26.729078 
   17800    238.80448   -308.63601       229892   -22644.071    1697.7165   -24341.787   -672.41983    134.72396    39.441548    35.579382    26.724355 
   18000    234.81024   -404.59989       229892   -22637.061    1669.3204   -24306.381   -1007.1335    135.94228    39.440751    35.580121    26.716169 
   18200    233.47117    -372.6287       229892   -22604.654    1659.8007   -24264.454   -905.53735    136.38341    39.440391    35.581024    26.717794 
   18400    236.85039   -229.35377       229892   -22580.915    1683.8244   -24264.739     -363.616    136.68336    39.439688    35.581104    26.717622 
   18600     233.6257   -253.60819       229892   -22573.153    1660.8993   -24234.052   -437.90179    137.25318    39.439348      35.5807    26.716772 
   18800    238.51725    -411.3437       229892   -22602.064    1695.6745   -24297.739   -1032.2246    139.14512    39.439313    35.583169    26.730732 
   19000    235.68897   -405.73992       229892     -22511.6    1675.5676   -24187.168   -1034.6867    140.61625    39.439461    35.583048    26.739267 
   19200    236.27621   -303.93894       229892   -22555.356    1679.7424   -24235.098   -649.39274     140.6778    39.440358    35.582296    26.736942 
   19400    242.36235   -196.09808       229892   -22512.284    1723.0102   -24235.294   -207.16553    140.24035    39.440213    35.582184    26.746999 
   19600     237.8582   -413.99601       229892    -22515.15    1690.9891   -24206.139   -1061.7478    142.76633    39.440814    35.583797    26.786022 
   19800    232.37885   -286.09528       229892   -22481.386    1652.0352   -24133.421   -597.06454    142.92652    39.441277     35.58406    26.779271 
   20000    236.87093   -292.72119       229892    -22486.09    1683.9704    -24170.06   -608.27068     142.7483    39.443243    35.585175    26.755295 
   20200    233.32359   -324.04898       229892   -22590.427    1658.7515   -24249.179   -716.80818    144.28082    39.443103    35.583502    26.758371 
   20400    232.41416   -246.08917       229892   -22492.373    1652.2862   -24144.659    -408.9881    145.30776    39.443541    35.583021    26.755271 
   20600    239.63683   -455.03952       229892   -22559.545    1703.6338   -24263.179   -1212.8872    145.38358    39.444226    35.580346    26.759686 
   20800    234.37951   -182.24141       229892   -22502.873    1666.2583   -24169.131   -161.48133    147.27311    39.441363    35.578783    26.769109 
   21000    235.66188   -372.67593       229892   -22501.367     1675.375   -24176.741   -899.86477    148.66324    39.441525    35.582366     26.77066 
   21200    238.77195   -423.45971       229892   -22492.875    1697.4852    -24190.36   -1153.1606    149.90097    39.442141    35.581839    26.771434 
   21400    237.11693   -71.111108       229892   -22537.875    1685.7193   -24223.594    252.92693    151.06274    39.441834    35.581695    26.786316 
   21600    239.45423   -273.25205       229892    -22515.14    1702.3356   -24217.476   -536.39271    152.33366    39.440867    35.581159    26.779013 
   21800    235.27165    -436.5584       229892   -22639.139    1672.6007    -24311.74   -1158.7921    153.19656    39.439582    35.578818     26.76464 
   22000     228.8199   -529.61165       229892   -22666.616    1626.7337    -24293.35   -1526.9576    154.91865    39.440061    35.578146     26.78178 
   22200    228.34825   -326.06152       229892   -22677.752    1623.3807   -24301.133   -749.13765    155.67191    39.437292    35.579094    26.786255 
   22400    241.05569   -432.06473       229892   -22525.461    1713.7208   -24239.182   -1139.3823    157.41296    39.437869    35.578715    26.794485 
   22600    238.84304   -356.44502       229892   -22593.135    1697.9906   -24291.126   -858.95083    158.06321     39.43739    35.580481    26.788174 
   22800    237.80286   -284.52574       229892   -22551.006    1690.5957   -24241.602    -555.1493    157.13698     39.43687    35.583485    26.788482 
   23000    232.30712   -363.73743       229892   -22603.835    1651.5252    -24255.36   -869.76953    159.46076    39.438941    35.585384    26.795265 
   23200    243.98731   -349.78153       229892   -22542.132    1734.5624   -24276.695    -785.9939    161.13367    39.440472    35.583681    26.801543 
   23400    238.97205   -546.23023       229892   -22539.797    1698.9077   -24238.705   -1595.7301    163.13856    39.442614    35.582548    26.807752 
   23600    236.71234   -419.28414       229892    -22492.22    1682.8429   -24175.063   -1074.2411    162.93966    39.442991     35.58265    26.812925 
   23800    243.39548    -287.7425       229892   -22511.917    1730.3549   -24242.272   -565.13252    163.24248    39.444566    35.583868    26.806883 
   24000    237.16596    -311.8336       229892   -22516.647    1686.0678   -24202.715   -665.97396    164.76828    39.446102    35.584447    26.814629 
   24200     234.6889   -314.53063       229892   -22566.312    1668.4578   -24234.769   -685.88444    165.57322    39.447569    35.585692    26.836874 
   24400    231.25099   -438.41974       229892   -22639.708    1644.0169   -24283.725   -1163.9063    166.45819    39.445967     35.58559    26.859188 
   24600    228.26859   -375.45477       229892   -22680.385    1622.8144   -24303.199   -935.92117    166.44611    39.444026     35.58799    26.870532 
   24800    230.48689   -176.82461       229892   -22643.901    1638.5848   -24282.486   -163.21616    167.80246    39.445607    35.587438    26.875534 
   25000    233.09384   -324.49955       229892   -22641.491    1657.1182   -24298.609   -716.15616    170.25238    39.446808    35.584325     26.90627 
   25200    228.32413   -391.71359       229892   -22760.447    1623.2092   -24383.656   -1006.3895    170.73696    39.446647    35.584544    26.927759 
   25400     235.8915   -348.57321       229892   -22618.138    1677.0074   -24295.146   -776.01981    171.85701    39.444118    35.585165    26.928882 
   25600    237.75512   -359.01195       229892    -22523.09    1690.2563   -24213.346   -842.01866    172.99592    39.442901    35.584461    26.945228 
   25800    232.82112   -317.27868       229892   -22534.435    1655.1793   -24189.615   -703.78775    173.48138     39.44162    35.585131    26.938858 
   26000    237.96002   -387.21422       229892   -22582.608     1691.713   -24274.321   -922.97628    173.93273    39.443285    35.585941    26.941179 
   26200     230.5873   -350.32846       229892   -22557.188    1639.2986   -24196.487   -830.45039    175.31686    39.445453     35.58643    26.935173 
   26400    236.13273   -310.44048       229892   -22563.366    1678.7224   -24242.089    -670.1123    176.46472    39.446932    35.588251    26.941379 
   26600    237.55869   -307.22288       229892   -22501.341    1688.8598   -24190.201    -636.9784    179.83445    39.447552    35.587384    26.928173 
   26800     234.8901   -119.41596       229892   -22528.678    1669.8882   -24198.566    89.852102    180.94933    39.447005    35.591144    26.934858 
   27000     240.8159   -336.82802       229892   -22492.303    1712.0161   -24204.319   -762.52575    181.07806      39.4461    35.592272    26.943734 
   27200    238.52068   -532.77952       229892   -22519.308    1695.6988   -24215.007   -1510.2173    183.18019    39.445887    35.592683    26.941651 
   27400    232.67974   -423.81297       229892   -22450.215    1654.1742    -24104.39   -1111.4619    181.78278     39.44693     35.59286    26.930572 
   27600    234.66269   -352.99253       229892    -22586.66    1668.2715   -24254.932   -833.36018    182.13192    39.449702    35.595127    26.924314 
   27800    239.16853   -300.37314       229892   -22478.184    1700.3046   -24178.488   -607.43552    183.74079     39.45112    35.594293     26.92045 
   28000    233.47978   -249.48965       229892   -22605.159    1659.8619    -24265.02   -444.21584    184.45426     39.45119    35.592735    26.913826 
   28200    229.19956   -281.90158       229892   -22565.972    1629.4329   -24195.405   -562.07437    183.65191     39.45131    35.593216     26.89851 
   28400    232.29682   -528.21541       229892   -22567.079     1651.452   -24218.531   -1514.0204    185.81134    39.452764    35.595142    26.894994 
   28600    232.34735    -486.9626       229892   -22583.196    1651.8112   -24235.007   -1351.1743    186.66408    39.453334    35.594899    26.908972 
   28800    238.15823   -273.16893       229892   -22613.804    1693.1221   -24306.926    -530.2894    187.09142    39.454753    35.594563    26.926922 
   29000    234.62299   -438.63018       229892   -22597.802    1667.9892   -24265.791   -1125.7751    187.99078    39.455804    35.595981    26.926307 
   29200     242.9196   -299.13047       229892   -22562.288    1726.9718    -24289.26   -621.05669    189.07697    39.454347    35.596716    26.932206 
   29400    233.04216   -342.85646       229892   -22565.058    1656.7508   -24221.808   -831.59797    189.20246    39.453876    35.596447    26.932134 
   29600    234.08026   -224.72907       229892   -22565.792    1664.1308   -24229.923   -315.47522    188.85618    39.452201    35.594986    26.939328 
   29800    232.69417   -349.10911       229892   -22648.374    1654.2769   -24302.651   -795.29203    191.14499    39.453043    35.596032    26.929394 
   30000    225.47151   -436.23038       229892   -22654.656    1602.9293   -24257.585    -1168.825    191.47401    39.451495    35.594863    26.918622 
   30200    237.97145   -422.01806       229892   -22572.139    1691.7942   -24263.933   -1108.6134    193.05688    39.450574    35.594629    26.899388 
   30400      233.217     -284.733       229892   -22579.516    1657.9938    -24237.51    -567.7261    194.46374    39.447548     35.59636     26.89042 
   30600    233.71903   -380.96808       229892   -22615.185    1661.5628   -24276.747   -962.22035    195.28761    39.446962    35.596673    26.880695 
   30800    235.23739   -414.24299       229892   -22571.528    1672.3572   -24243.885   -1072.9024      195.812    39.448766    35.597185    26.852007 
   31000    233.03128    -307.4582       229892   -22564.379    1656.6734   -24221.052   -663.40745    195.28655     39.44922    35.597353    26.841377 
   31200    229.79588   -432.09113       229892   -22530.462    1633.6722   -24164.135   -1170.9807    196.07414     39.45115     35.59916    26.843362 
   31400    236.50247    -213.8468       229892   -22547.759    1681.3509    -24229.11   -292.31554    196.05842    39.449809    35.599414    26.822529 
   31600    228.72257   -322.37618       229892   -22587.338    1626.0418    -24213.38     -716.181    197.52755    39.447924    35.600933    26.825564 
   31800    239.17803   -364.49662       229892   -22482.256    1700.3721   -24182.628    -924.7697    197.77917    39.448887    35.601845    26.832614 
   32000    238.05571   -310.50454       229892   -22593.447    1692.3932    -24285.84    -657.6382    199.28679    39.450277    35.603572    26.826088 
   32200    233.51316   -426.93811       229892   -22607.767    1660.0992   -24267.867    -1136.327    199.49444    39.450212    35.604364    26.826261 
   32400    231.06676   -272.23239       229892   -22613.027    1642.7072   -24255.734   -566.28383    199.22476    39.448125    35.605975    26.842658 
   32600    232.92189    -238.8982       229892   -22516.241    1655.8957   -24172.137   -446.81798    199.40209     39.44779    35.606719    26.836482 
   32800     238.4771   -255.02471       229892   -22552.032     1695.389   -24247.421   -427.82876    199.59176    39.446044    35.606874    26.832977 
   33000     242.2081   -229.44849       229892   -22539.625    1721.9136   -24261.539   -352.07133    200.61553    39.448552    35.605798    26.834774 
   33200    233.52391   -154.44287       229892   -22550.029    1660.1756   -24210.204   -51.851418    202.48975    39.448302    35.607078    26.850893 
   33400    226.54846   -337.49204       229892   -22592.329    1610.5855   -24202.914   -768.74732     203.0557    39.448177       35.607    26.821254 
   33600    230.36916   -285.55899       229892   -22597.191    1637.7478   -24234.939   -578.89794    204.58916    39.452177    35.608113    26.786525 
   33800     245.0496    -246.8851       229892   -22504.974    1742.1145   -24247.088   -409.41957    203.82421    39.452677    35.608794    26.787318 
   34000    230.44045   -406.15163       229892    -22594.09    1638.2546   -24232.345   -1027.6887    205.68505     39.45292    35.608558    26.788392 
   34200    231.34506   -512.75498       229892   -22576.645    1644.6857    -24221.33   -1454.9918    207.31661     39.45225    35.607398    26.794418 
   34400    228.17051   -459.42904       229892   -22588.778    1622.1171   -24210.895   -1253.4358    208.47769    39.454969    35.605706    26.777011 
   34600    240.43488   -232.75244       229892    -22466.84    1709.3073   -24176.147   -361.51955    208.18335    39.453601    35.603333    26.762068 
   34800    232.70637   -262.70378       229892   -22546.033    1654.3636   -24200.397   -497.55951    209.78845    39.455183    35.605169    26.774409 
   35000    229.35453   -413.85993       229892   -22586.629    1630.5346   -24217.164   -1078.8991    212.58535    39.453412    35.603383    26.796824 
   35200    238.15476   -478.48014       229892   -22510.522    1693.0974   -24203.619   -1315.6521    214.04567    39.452768    35.600308    26.791335 
   35400    240.64454   -358.42891       229892   -22532.133    1710.7978    -24242.93   -890.82886    212.86741    39.449936    35.597608    26.780908 
   35600    238.39186   -165.16743       229892   -22566.787    1694.7831    -24261.57   -105.36566     212.3978    39.449137    35.596186    26.765792 
   35800    241.39704   -247.10588       229892     -22484.9    1716.1475   -24201.048   -379.79653    213.96396    39.447367    35.596505     26.77075 
   36000    231.58731   -233.46939       229892   -22608.428    1646.4079   -24254.836   -392.00968    214.93413     39.44547    35.595039    26.761327 
   36200    229.86351   -440.62448       229892   -22636.828     1634.153   -24270.981   -1203.7123    215.86318    39.447541    35.595237     26.75112 
   36400    227.43086   -295.45388       229892   -22583.855    1616.8588   -24200.714   -615.10485    218.07903    39.447993    35.596198    26.747949 
   36600    239.67887   -408.31059       229892   -22568.281    1703.9327   -24272.214   -1081.3281    219.52527    39.448649     35.59626    26.751938 
   36800    235.29693   -422.76822       229892   -22634.951    1672.7805   -24307.732   -1116.6086    222.34979    39.449476    35.599829    26.745624 
   37000    228.76777   -352.26632       229892   -22630.226    1626.3632   -24256.589   -854.86093     222.2005    39.453015    35.600796    26.728797 
   37200    236.16904   -175.50624       229892   -22626.503    1678.9805   -24305.484   -119.06708     222.0397    39.452176    35.599562    26.723008 
   37400     231.1006   -420.98776       229892   -22613.982    1642.9478   -24256.929   -1111.9683    223.33577    39.449275    35.598763     26.74801 
   37600    233.21069   -354.09759       229892   -22627.858    1657.9489   -24285.806   -834.64395    225.08213    39.447945    35.598712    26.732992 
   37800    228.34332   -206.68291       229892   -22638.507    1623.3456   -24261.852   -290.52827    225.44533    39.445526    35.597898    26.733042 
   38000    235.98017   -460.24127       229892   -22511.779    1677.6378   -24189.417   -1271.5577    227.60681    39.446691    35.598261    26.732261 
   38200    231.94664   -416.02572       229892   -22551.717    1648.9624   -24200.679   -1092.3581    229.22973    39.449282    35.601745    26.731265 
   38400    244.30234   -377.78767       229892    -22491.18     1736.802   -24227.982   -932.05897    229.67938    39.450365    35.602732    26.725063 
   38600    232.93876    -376.6946       229892   -22570.711    1656.0157   -24226.727   -919.00681    232.48865    39.448815    35.603751    26.723951 
   38800    239.18357   -297.09578       229892   -22577.244    1700.4115   -24277.656   -650.61925    232.32987    39.446759    35.604839    26.723694 
   39000    236.03271   -318.63889       229892   -22525.685    1678.0113   -24203.697   -702.09107    232.40369    39.445805    35.606642    26.733294 
   39200    231.62941   -208.11266       229892   -22613.115    1646.7072   -24259.822   -245.28856    232.75595    39.443109    35.605016    26.725812 
   39400    234.46437   -251.30954       229892   -22578.904    1666.8616   -24245.766   -450.49843    234.17491    39.441516    35.605548    26.736977 
   39600    240.52505   -317.01556       229892   -22534.607    1709.9483   -24244.555   -706.66257    234.21488    39.441309    35.605879    26.734113 
   39800    234.90052    -288.5961       229892   -22587.862    1669.9623   -24257.824   -603.74944    235.73047    39.441433    35.606508    26.775335 
   40000     236.6937   -385.18044       229892   -22557.923    1682.7104   -24240.634   -955.85961    235.25463     39.44171     35.60536    26.764624 
   40200    235.84376   -245.75248       229892   -22544.827     1676.668   -24221.495   -442.71176    236.04758    39.441041    35.602043    26.744989 
   40400    235.99197   -488.10501       229892   -22623.597    1677.7217   -24301.318   -1384.5266    237.35822    39.441608    35.598819    26.748889 
   40600    237.40391    -284.5417       229892   -22507.692    1687.7595   -24195.451   -627.19586    236.91972    39.442497    35.597211    26.751426 
   40800    236.24038   -414.67005       229892   -22595.337    1679.4877   -24274.824   -1083.8753    237.62505    39.442392    35.599879    26.747131 
   41000    230.73707   -299.44811       229892   -22607.438    1640.3634   -24247.801   -644.56137    238.34413    39.443264     35.60049    26.762633 
   41200    239.62329   -329.90376       229892   -22537.872    1703.5375   -24241.409   -786.82348    240.88063    39.442028     35.60102     26.76927 
   41400    232.12741   -457.47263       229892   -22588.492    1650.2476    -24238.74   -1257.5291    240.77482    39.440588    35.604091    26.765619 
   41600    237.16989    -252.1799       229892   -22581.475    1686.0958   -24267.571   -446.08413    240.97593    39.439329    35.605904    26.751132 
   41800    236.57591   -376.07193       229892   -22590.141     1681.873   -24272.014   -910.68277    242.68018    39.437227    35.602925    26.749054 
   42000    230.65433   -274.52476       229892   -22605.142    1639.7751   -24244.917    -523.8872    243.38825    39.438038    35.603581    26.771491 
   42200     227.9367   -240.50605       229892    -22666.85    1620.4549   -24287.305   -428.48285      243.837    39.438103    35.603743    26.759675 
   42400    233.75076   -419.51179       229892   -22603.906    1661.7884   -24265.694   -1092.8869    243.93612    39.437706    35.605689    26.743259 
   42600     229.1051   -373.02918       229892   -22644.758    1628.7613   -24273.519   -894.32797     243.7617     39.43884    35.603967    26.730739 
   42800    238.67028   -340.28631       229892   -22540.495    1696.7624   -24237.257   -793.47372    245.96055    39.437369    35.605016    26.748856 
   43000    241.30648   -472.37659       229892   -22529.797    1715.5037   -24245.301   -1320.1253    247.15909    39.437666     35.60722    26.764401 
   43200    233.64202   -333.98316       229892   -22540.738    1661.0153   -24201.754   -750.85465     249.2897    39.435901    35.606753    26.776551 
   43400    234.58515   -398.00152       229892   -22519.315    1667.7202   -24187.035   -988.90294    251.19525    39.435222    35.605367    26.798675 
   43600    233.44345   -359.70069       229892   -22570.769    1659.6036   -24230.372   -863.14074    252.45065    39.436726    35.604417    26.821822 
   43800    233.78186   -343.56453       229892   -22602.297    1662.0095   -24264.307    -794.8602    254.45341    39.437031    35.605591    26.815646 
   44000    231.26097   -205.67071       229892    -22634.14    1644.0879   -24278.228   -235.04476    255.62895    39.438309    35.606201    26.810076 
   44200    236.03449   -332.49903       229892   -22573.219    1678.0239   -24251.243   -762.69418    256.04226    39.438173    35.606518    26.813899 
   44400    231.11685   -215.93629       229892   -22620.857    1643.0633    -24263.92   -286.71276     256.1906    39.439405     35.60653    26.799984 
   44600    233.74999    -232.0841       229892   -22617.947    1661.7829    -24279.73   -389.24045    257.85209     39.44119    35.608848     26.80813 
   44800    234.58472   -293.46611       229892   -22626.267    1667.7172   -24293.985   -596.94618    258.29926    39.441474    35.610813     26.81953 
   45000    235.90353   -394.57436       229892   -22605.367     1677.093    -24282.46    -1017.587    258.10272    39.441181    35.611285    26.810803 
   45200    232.89828   -498.47623       229892   -22570.174    1655.7279   -24225.902   -1395.9156    259.75197    39.442305    35.610548    26.814239 
   45400    230.38236   -174.29325       229892   -22631.463    1637.8416   -24269.305   -101.89843    259.11374    39.443623    35.609483    26.804693 
   45600    237.55375   -198.56265       229892   -22541.103    1688.8247   -24229.927   -238.62886    260.13325    39.444456    35.609598    26.801781 
   45800     232.4645   -358.54504       229892   -22587.454     1652.644   -24240.098   -826.24637    260.10866    39.443163     35.60609    26.807127 
   46000    237.16548   -282.03548       229892   -22506.949    1686.0644   -24193.013   -545.09475    261.24264    39.441633    35.604392    26.781942 
   46200    243.36597   -248.06155       229892    -22485.71    1730.1451   -24215.855   -448.12747    262.19634     39.44084    35.603321    26.758035 
   46400    225.69363   -395.64282       229892   -22555.546    1604.5084   -24160.054   -1017.7603    264.25675    39.441622    35.603921    26.751734 
   46600     232.3293   -352.20886       229892    -22543.51    1651.6829   -24195.193   -871.40905    265.90628    39.439201    35.602548    26.755002 
   46800    235.50321   -372.58247       229892   -22531.348     1674.247   -24205.595    -928.1955    266.56958     39.43702    35.601322    26.726829 
   47000     238.5685   -322.22736       229892   -22513.723    1696.0388   -24209.762   -721.07029    267.89881    39.439024    35.604659    26.700783 
   47200    228.20772   -491.33581       229892   -22638.384    1622.3816   -24260.766    -1431.745    269.03544    39.437991    35.604425     26.70842 
   47400    234.54604   -256.97465       229892   -22537.284    1667.4422   -24204.726   -438.20675    268.23292    39.437927     35.60521    26.668884 
   47600     235.4155   -354.07305       229892    -22514.67    1673.6234   -24188.293   -838.13706    268.46391    39.440127     35.60591    26.677031 
   47800    232.60772   -172.55167       229892   -22522.236    1653.6623   -24175.898   -132.99062    270.34845    39.440047     35.60489    26.662711 
   48000    233.73168   -306.58796       229892   -22509.286    1661.6527   -24170.939   -631.13538    271.84253    39.439034    35.603504    26.657065 
   48200    234.35899   -127.11376       229892   -22551.712    1666.1124   -24217.825    50.151548    273.15296    39.438447    35.602043    26.678061 
   48400    238.22313    -514.7716       229892   -22563.059    1693.5835   -24256.643   -1521.2622    275.22458    39.439027    35.602206    26.687784 
   48600    231.87247   -443.74784       229892   -22639.583    1648.4351   -24288.018    -1180.476    274.97305    39.436791    35.605089    26.664361 
   48800    225.86862   -114.77279       229892    -22558.57    1605.7524   -24164.323     76.93066     277.4365    39.436489    35.606388    26.655336 
   49000    233.64151   -196.27044       229892   -22552.751    1661.0117   -24213.762   -249.17532    277.48855    39.436444    35.607871    26.644719 
   49200    235.17112   -412.41399       229892   -22488.744     1671.886    -24160.63   -1063.6927    280.60527    39.437287    35.609033    26.644138 
   49400    237.81733   -229.08234       229892   -22551.834    1690.6986   -24242.532   -371.02381    281.22796    39.436615    35.609472    26.648294 
   49600     236.1989   -468.84872       229892   -22542.566    1679.1927   -24221.759   -1281.6811     283.1275    39.436067     35.60802     26.64583 
   49800    240.94777    -383.8207       229892    -22572.21    1712.9536   -24285.163   -936.36644    282.91225    39.432979    35.608062    26.643989 
   50000    235.23024   -343.29077       229892   -22572.332    1672.3064   -24244.638   -790.77252    283.52393    39.431098    35.606847    26.654576 
   50200    236.60941   -408.65039       229892   -22526.012    1682.1112   -24208.123   -1076.8071    285.16962    39.430068    35.606873    26.659604 
   50400    237.09587   -331.92433       229892   -22531.671    1685.5695    -24217.24   -754.30995    287.99549    39.429576    35.607109    26.671156 
   50600     241.4697   -477.32543       229892   -22422.165    1716.6641   -24138.829   -1334.0573    289.63943      39.4317    35.607648     26.68783 
   50800    231.83298   -346.77185       229892   -22610.302    1648.1545   -24258.456    -773.7008    288.91426    39.430848    35.607426    26.703886 
   51000    235.85789   -392.52972       229892   -22566.041    1676.7685    -24242.81   -983.56653    290.47369    39.433525    35.606667    26.706489 
   51200    232.25157   -481.27006       229892    -22608.18    1651.1303    -24259.31   -1367.2829    291.59355    39.433427    35.606282    26.702594 
   51400    235.08411   -453.38619       229892   -22567.651    1671.2675   -24238.919   -1236.4934    291.79948    39.434963    35.606756    26.682004 
   51600    236.00654   -338.07899       229892   -22589.263    1677.8252   -24267.088   -777.53289    294.30402    39.432823    35.607749    26.691108 
   51800    234.62384   -307.03755       229892   -22583.144    1667.9953   -24251.139   -653.20145    296.57971    39.432242     35.60637    26.683099 
   52000    231.43412   -389.38618       229892    -22635.38    1645.3189   -24280.699   -982.52911    298.03512    39.430695    35.606463    26.678019 
   52200    233.14659   -283.31695       229892   -22638.309    1657.4932   -24295.803   -529.06898    299.11673    39.427777    35.603468    26.698668 
   52400    223.53445   -511.43197       229892   -22689.775    1589.1583   -24278.934     -1422.44    299.37599    39.427358    35.600734    26.697728 
   52600    231.59433   -535.73161       229892   -22543.813    1646.4578    -24190.27   -1554.1915     299.4668    39.426516    35.598248    26.683199 
   52800    238.92684   -494.14636       229892   -22513.341    1698.5863   -24211.927   -1418.3927    300.85623    39.425174      35.5962    26.691173 
   53000     242.6184   -308.07171       229892   -22480.804    1724.8305   -24205.634   -670.44575    300.03624    39.421862     35.59389    26.685305 
   53200    235.75085   -303.04577       229892   -22611.064    1676.0075   -24287.072   -629.70873    301.39132    39.421179    35.592917    26.668154 
   53400    236.46255   -338.04134       229892   -22586.073    1681.0671    -24267.14   -798.18156    303.40666     39.42146    35.593492    26.670555 
   53600     228.1637   -329.33597       229892   -22643.322    1622.0687   -24265.391   -708.19297    303.20946     39.42183    35.594018    26.666243 
   53800     233.9151   -231.42808       229892   -22583.335    1662.9567   -24246.292   -367.64942    304.99195    39.422863    35.593054    26.657601 
   54000      230.277   -370.40534       229892   -22561.099    1637.0926   -24198.192    -917.1391    306.93182    39.423648    35.592305    26.660031 
   54200     231.9808   -494.00492       229892   -22489.361    1649.2053   -24138.566   -1400.4065    308.26741    39.424627    35.592668    26.675402 
   54400    239.19967   -404.55344       229892   -22507.974    1700.5259     -24208.5   -1038.3452    307.73248    39.423658    35.591911    26.668743 
   54600    238.21189   -366.35309       229892   -22538.563    1693.5036   -24232.067   -873.29088    307.50771    39.424717    35.590328    26.683547 
   54800    237.81935   -295.91205       229892   -22530.194    1690.7129   -24220.907   -610.46461    309.11287    39.423978    35.589871    26.691219 
   55000    232.83906   -247.70053       229892   -22496.738    1655.3069   -24152.045   -482.53809    309.83124    39.425966    35.588896    26.710786 
   55200    230.01902   -212.08486       229892   -22618.632    1635.2586   -24253.891   -272.46862    309.63028    39.424532    35.589394    26.716751 
   55400    232.89121   -348.22166       229892   -22536.681    1655.6776   -24192.359   -828.27189    310.95036    39.424671    35.590488    26.732485 
   55600    237.07931   -326.09748       229892   -22533.906    1685.4518   -24219.358   -761.56898    312.05169    39.428116    35.591136    26.734505 
   55800    235.53089   -504.77359       229892    -22404.05    1674.4437   -24078.493   -1391.6679    313.80339    39.431151    35.591501    26.724705 
   56000    241.84086   -275.73565       229892   -22497.593    1719.3028   -24216.896   -546.48607    315.29612    39.430447    35.591883    26.735425 
   56200    239.63093   -474.43802       229892   -22508.859    1703.5919   -24212.451   -1316.4631    316.88915    39.430371    35.593099    26.731727 
   56400    240.77686   -354.84476       229892   -22611.009    1711.7386   -24322.748   -841.54925    317.90877    39.430589    35.592331    26.721345 
   56600    231.37721   -383.24714       229892   -22703.533    1644.9142   -24348.447   -955.74812    321.19279    39.429753    35.592341    26.706403 
   56800    230.52731   -197.55787       229892   -22628.192    1638.8721   -24267.064   -225.28618    320.74593    39.429546    35.591398    26.689705 
   57000    228.58255   -309.85549       229892   -22669.908    1625.0463   -24294.954     -652.695    323.27709    39.430525    35.589976    26.665096 
   57200    239.48416   -455.18359       229892   -22562.915    1702.5485   -24265.463   -1257.4831    326.03033    39.429831    35.588783    26.649284 
   57400     232.9001   -509.63434       229892   -22577.405    1655.7408   -24233.146   -1443.4446    327.22814    39.430306    35.589427    26.652523 
   57600    236.83899   -476.47396       229892   -22607.123    1683.7433   -24290.866   -1310.3746    327.17914    39.431013    35.589202    26.648216 
   57800    233.17376   -489.86473       229892   -22566.824    1657.6864   -24224.511   -1381.7642     328.8568    39.431543    35.588866    26.669407 
   58000    227.93744   -331.38393       229892   -22594.975    1620.4602   -24215.435   -745.83721     329.0269    39.430818    35.588336    26.660727 
   58200    240.88779   -237.11828       229892   -22550.487    1712.5272   -24263.014   -373.57382    330.08699    39.431142    35.587504    26.662633 
   58400    232.58686    -371.8301       229892   -22568.097     1653.514   -24221.611   -914.34419    331.01364    39.430226     35.58643    26.661357 
   58600    233.76037   -532.98898       229892   -22566.042    1661.8567   -24227.898   -1531.5762    332.31566    39.431943    35.587783    26.656864 
   58800     229.5856   -459.40027       229892   -22528.594    1632.1773   -24160.771   -1238.9567    334.48447    39.431681    35.589245    26.649693 
   59000    234.39537   -269.38214       229892   -22454.073     1666.371   -24120.444   -509.55899    337.24148    39.433835    35.591409    26.644919 
   59200    235.00178   -370.00761       229892   -22533.372    1670.6822   -24204.054   -912.36267     339.5163    39.431847    35.593876    26.654849 
   59400    233.10823   -285.68417       229892   -22565.356    1657.2205   -24222.577   -558.24848    340.55075    39.432287    35.594723     26.64347 
   59600    231.29532   -389.56565       229892   -22614.968    1644.3321     -24259.3   -964.48957    340.74132    39.431753    35.594777    26.630674 
   59800    232.45826   -372.61779       229892   -22559.758    1652.5997   -24212.357   -932.88937    343.00912    39.433515    35.596504    26.604749 
   60000    240.01664   -432.99447       229892   -22533.442     1706.334   -24239.776   -1125.4893    343.20128    39.435023     35.59714    26.583762 
   60200     232.5661   -274.37955       229892   -22573.416    1653.3664   -24226.782   -543.26699    343.34711    39.435469    35.596303    26.591957 
   60400     235.8539   -438.64328       229892   -22546.767    1676.7401   -24223.507   -1188.7605    344.63094    39.437982    35.598347    26.598588 
   60600    233.29023    -409.2701       229892   -22550.217    1658.5144   -24208.731   -1055.9016    344.65417    39.437472    35.597832    26.613178 
   60800    238.37985   -384.49307       229892   -22472.087    1694.6976   -24166.785   -933.91013    345.37019     39.43579    35.596916    26.605786 
   61000    233.37655   -324.52773       229892   -22573.705     1659.128   -24232.833   -723.72017     345.4523    39.435861    35.596948    26.615751 
   61200    234.75393   -316.36794       229892   -22542.825    1668.9202   -24211.745   -659.46462    347.23016    39.436234    35.594358    26.610624 
   61400    236.38001   -252.53512       229892   -22545.671    1680.4803   -24226.152   -467.03208    350.26233    39.436191    35.593465    26.623728 
   61600    233.03484   -375.17568       229892   -22545.707    1656.6987   -24202.406   -931.35123    351.97075    39.437573    35.594097    26.633232 
   61800    227.46103   -315.85523       229892   -22579.992    1617.0732   -24197.065   -647.81577    352.62369    39.439403    35.597287    26.627677 
   62000    240.29602   -268.28461       229892   -22506.948    1708.3201   -24215.269   -483.87008     350.4584    39.439821    35.596308    26.624842 
   62200    233.65186   -367.96048       229892   -22527.617    1661.0853   -24188.702   -878.75977    350.26816    39.437009    35.595627    26.637054 
   62400    231.38412   -288.20547       229892   -22540.388    1644.9633   -24185.352   -599.53559    351.36245    39.436128    35.595947    26.618344 
   62600    234.84454   -169.42374       229892   -22544.936    1669.5643     -24214.5    -119.3819    352.47015    39.433532    35.598579    26.620927 
   62800    234.59141   -430.57631       229892   -22633.433    1667.7648   -24301.197   -1171.6528    352.82545    39.435226    35.596966    26.605592 
   63000    239.33162   -426.94007       229892   -22524.912     1701.464   -24226.376   -1141.7695    354.80429    39.433528    35.595381    26.600055 
   63200    232.56428   -443.05767       229892   -22562.181    1653.3534   -24215.534   -1215.9983    356.00933    39.433009     35.59435    26.602274 
   63400     235.0677   -297.27151       229892    -22594.07    1671.1508   -24265.221   -643.43451    355.65525    39.436128    35.594588    26.577261 
   63600    233.23009   -280.28057       229892   -22623.373    1658.0868    -24281.46   -533.66784    356.45979    39.438491    35.595822    26.588414 
   63800    226.65168    -222.1566       229892   -22658.239    1611.3193   -24269.559   -302.25139    359.38181    39.437063    35.596885    26.600135 
   64000    240.20378   -514.99762       229892   -22566.883    1707.6644   -24274.547   -1475.0639    359.53801    39.437112    35.597941    26.607957 
   64200    237.20459   -170.89877       229892   -22572.491    1686.3424   -24258.833   -111.60202    359.54399    39.434462    35.596895    26.614109 
   64400    233.13981   -324.02221       229892   -22610.425     1657.445    -24267.87   -706.59933     360.1389    39.434388    35.596598    26.612091 
   64600    230.49131   -402.29013       229892   -22598.552    1638.6162   -24237.168   -1048.3877      362.151    39.434316    35.594728    26.608367 
   64800    232.23824   -353.76147       229892   -22639.008    1651.0355   -24290.043   -876.90508    362.31071    39.435403    35.594859     26.60254 
   65000     240.8529   -360.27361       229892   -22560.924    1712.2791   -24273.203    -840.0472    363.79127    39.434025    35.594713    26.606007 
   65200    231.16682   -464.72989       229892   -22593.292    1643.4185   -24236.711   -1283.8958    364.33677    39.432993    35.595246    26.597279 
   65400    229.49179   -366.70276       229892   -22595.931    1631.5104   -24227.441   -932.51197    367.22474    39.431606    35.595172    26.587709 
   65600    230.91638    -226.6136       229892    -22510.53    1641.6381   -24152.168   -345.73455    369.12192    39.432084    35.594451    26.585487 
   65800    233.58298   -265.28874       229892   -22556.102    1660.5956   -24216.698   -489.88198    368.88159    39.429661    35.592746    26.572785 
   66000    233.26006   -316.50703       229892   -22517.754    1658.2998   -24176.054   -677.17897       368.38    39.428372    35.591339    26.552324 
   66200    231.82218    -294.2072       229892   -22588.481    1648.0777   -24236.559   -661.73378    370.10195    39.428499    35.587804    26.541127 
   66400    234.55356   -354.55829       229892   -22568.534    1667.4956    -24236.03   -799.91265    372.65178    39.428073    35.587188    26.544137 
   66600    229.53749   -548.72044       229892   -22578.056    1631.8353   -24209.891   -1577.8868     373.4715    39.428703    35.588504    26.528125 
   66800    232.13545   -358.81112       229892    -22546.47    1650.3047   -24196.774   -883.07229    376.13209    39.429845    35.589651    26.538143 
   67000    228.43441   -295.70108       229892   -22635.435    1623.9932   -24259.428   -560.04608    376.65262    39.428464    35.590118    26.555436 
   67200    233.02524    -455.6675       229892   -22588.452    1656.6305   -24245.083    -1213.018    377.17887    39.427352    35.588706    26.543149 
   67400    238.96516   -155.59254       229892   -22535.316    1698.8587   -24234.175   -33.915463    375.84219    39.426064    35.588893     26.54456 
   67600    237.78567   -204.66049       229892   -22505.161    1690.4735   -24195.634   -253.05211    375.27778    39.426493    35.589969    26.539851 
   67800    239.10547   -216.90889       229892   -22542.598    1699.8562   -24242.454   -313.67511    373.35807    39.425428    35.589225    26.532893 
   68000     228.9308   -459.12765       229892   -22633.144    1627.5221   -24260.666   -1236.7433    375.35619    39.428325    35.589414    26.535156 
   68200    234.27181   -402.62659       229892   -22584.355    1665.4926   -24249.847   -1007.8027    376.59705    39.428741    35.590165    26.525589 
   68400    236.33222   -237.10258       229892    -22543.01    1680.1406   -24223.151   -350.57615    378.21404    39.428305    35.588775    26.517163 
   68600    230.27633    -320.9413       229892     -22606.4    1637.0878   -24243.488   -684.09426    379.45091    39.425495    35.585041    26.518174 
   68800    237.48154   -508.74601       229892   -22566.129    1688.3113   -24254.441   -1443.7808    381.22428    39.426633    35.584871    26.510837 
   69000    235.71474    -370.8062       229892   -22601.429    1675.7508    -24277.18   -887.40501    381.60245    39.424488    35.584091    26.498159 
   69200     232.3297    -258.0123       229892    -22701.94    1651.6857   -24353.626   -493.06729    380.97009    39.424148    35.583959    26.492626 
   69400    236.88791   -256.41611       229892   -22729.477    1684.0911   -24413.568   -452.37487    382.05667    39.423886    35.580599    26.474033 
   69600    236.43003   -387.20111       229892   -22593.326    1680.8359   -24274.162    -986.8465    384.88167    39.423459    35.578228    26.449617 
   69800    235.77541   -452.57064       229892   -22622.769    1676.1821   -24298.951   -1194.1513    384.98772    39.422535    35.576408    26.443695 
   70000    235.53564   -451.49519       229892   -22689.954    1674.4775   -24364.432   -1178.7808    385.41195    39.420846     35.57516    26.430587 
   70200    243.89814   -238.34645       229892   -22580.271    1733.9284   -24314.199   -376.92542    386.31544    39.419948     35.57551    26.426529 
   70400    237.17292   -454.14303       229892   -22589.881    1686.1173   -24275.999   -1210.9251    387.62383     39.41854    35.575439    26.422651 
   70600    231.92646   -543.42755       229892    -22618.97     1648.819   -24267.789   -1587.8025    388.48976    39.417239    35.575032    26.448634 
   70800    233.33139   -345.94243       229892   -22614.016     1658.807   -24272.823    -816.6437    388.78248    39.417984    35.576583    26.452378 
   71000    238.42697   -353.73568       229892   -22612.107    1695.0326   -24307.139   -844.59848    391.15708    39.417074    35.576949    26.458347 
   71200    234.33227   -545.11502       229892   -22609.832    1665.9225   -24275.755   -1586.4104    392.28219    39.414403    35.576323    26.449925 
   71400    225.63199   -394.38755       229892   -22639.816    1604.0702   -24243.887   -955.93776    393.19092    39.413787    35.576862    26.444501 
   71600    237.74931    -341.9947       229892   -22548.329     1690.215   -24238.544   -807.13144    392.69273    39.413275    35.576104    26.455852 
   71800     236.4081   -242.47548       229892   -22645.731      1680.68   -24326.411   -380.90817    392.91317    39.413338    35.574349    26.468675 
   72000    234.57116   -327.49349       229892   -22675.728    1667.6208   -24343.349    -700.6945    392.74248    39.415045    35.573905     26.47325 
   72200    241.17366    -290.7855       229892   -22527.909    1714.5595   -24242.468   -562.33933    393.64332    39.413786    35.568981    26.464337 
   72400    231.02031   -394.00961       229892   -22564.067     1642.377   -24206.444   -998.04406    394.43942    39.416076    35.569184      26.4471 
   72600    237.74835   -388.44601       229892   -22578.171    1690.2082   -24268.379   -998.09633    393.36717    39.416806     35.56899    26.447331 
   72800    236.79102   -451.34403       229892   -22606.427    1683.4023   -24289.829   -1187.0708     394.9195    39.417675    35.567425    26.437291 
   73000     232.6039   -482.20296       229892   -22615.958    1653.6351   -24269.593   -1355.4245    395.25436    39.416145    35.566366    26.440385 
   73200    238.54954   -241.55375       229892   -22550.958     1695.904   -24246.862   -387.89136    395.74909    39.414871    35.567391    26.441503 
   73400    241.13542   -323.39663       229892   -22522.778    1714.2877   -24237.066   -730.12598     396.6179    39.412956    35.568463    26.434692 
   73600    231.98956   -360.24999       229892   -22586.521    1649.2676   -24235.788   -856.78494    397.35019    39.412286    35.566273    26.437555 
   73800    229.56597    -414.7308       229892    -22691.35    1632.0377   -24323.387   -1117.3525    397.92968    39.414481    35.565188    26.448832 
   74000    228.69927   -500.65731       229892   -22661.501    1625.8762   -24287.378   -1418.2458    400.09549    39.416925     35.56425    26.452937 
   74200    239.47267   -257.53337       229892   -22542.176    1702.4668   -24244.643   -471.63964    398.65892    39.416387    35.565198    26.443437 
   74400    237.99149   -265.87852       229892     -22569.6    1691.9367   -24261.536   -514.87542     398.7703    39.415251    35.565392    26.423114 
   74600    233.36224   -288.94927       229892   -22601.615    1659.0263   -24260.642    -594.4521    400.06853    39.415584    35.564739    26.433323 
   74800     240.2283   -398.50946       229892   -22610.857    1707.8387   -24318.696    -1031.294    401.20617    39.416055    35.563867    26.412018 
   75000     230.8631   -322.83694       229892   -22610.227    1641.2593   -24251.486   -655.59258    402.33608      39.4162    35.566268    26.429184 
   75200    237.97012   -186.73802       229892   -22564.334    1691.7848   -24256.119   -158.08979    402.81844    39.414553    35.566886    26.436463 
   75400    229.32667    -470.1291       229892   -22650.976    1630.3365   -24281.312   -1294.6318    403.34775    39.414369    35.567955    26.429746 
   75600    234.47221    -448.3445       229892    -22634.42    1666.9173   -24301.337   -1173.7785    403.33344    39.414944    35.568896    26.431233 
   75800    233.42881   -438.25761       229892   -22593.462    1659.4995   -24252.961   -1122.5694    405.78929     39.41398    35.570542    26.415705 
   76000    238.17545   -432.43011       229892   -22568.132    1693.2445   -24261.376    -1140.228    406.22279    39.416314    35.572611    26.409737 
   76200    229.33365   -525.18932       229892   -22674.691    1630.3861   -24305.077    -1504.305    405.64662    39.418241    35.575632    26.407386 
   76400    227.07706   -434.11395       229892   -22652.541    1614.3435   -24266.885   -1138.4729    405.30487    39.420666    35.577852    26.407028 
   76600    233.04946   -411.37292       229892   -22608.594    1656.8027   -24265.396   -1056.4358    404.83087    39.421755    35.578036    26.429699 
   76800    238.07203   -419.52172       229892   -22590.824    1692.5093   -24283.333   -1108.4011    406.07366    39.420787    35.577931    26.461305 
   77000    234.40528   -347.66597       229892   -22560.448    1666.4415   -24226.889   -837.52822    405.88321    39.418708    35.578921    26.472474 
   77200    240.36066   -223.44603       229892   -22548.427    1708.7797   -24257.207   -326.51075    407.62512    39.420086    35.577471    26.481726 
   77400    236.97491   -217.77617       229892   -22533.329    1684.7096   -24218.038   -316.94942    407.12751    39.421746    35.576783    26.480094 
   77600    238.68913   -218.41469       229892   -22592.598    1696.8964   -24289.494   -291.97834    408.24988    39.422241    35.576123    26.508421 
   77800    237.54531    -279.1051       229892   -22614.632    1688.7647   -24303.397   -536.96742    409.23536     39.42358    35.575804    26.498649 
   78000     235.0674   -278.63512       229892    -22598.49    1671.1487   -24269.638   -527.28228    411.25207    39.424407    35.575028    26.484411 
   78200    228.60068   -369.75469       229892   -22617.204    1625.1753   -24242.379   -883.40844    410.96159     39.42712    35.575454    26.482835 
   78400    237.24738   -361.00707       229892   -22540.782    1686.6467   -24227.428    -889.2466    413.11496    39.426295    35.575961    26.481246 
   78600    232.22267   -310.23471       229892   -22560.914    1650.9248   -24211.839   -632.86865    415.29319    39.425187    35.576095     26.48458 
   78800    232.24162   -251.64709       229892   -22539.016    1651.0595   -24190.075   -408.06872    416.23494    39.424676    35.575937     26.48924 
   79000    233.21638   -414.87321       229892   -22557.981    1657.9893   -24215.971   -1075.8595    415.46639    39.424028     35.57534    26.504301 
   79200    240.94521   -355.24065       229892   -22542.199    1712.9354   -24255.134   -848.04477    416.74542    39.424903    35.574888    26.492572 
   79400    231.96687   -385.04765       229892    -22519.24    1649.1063   -24168.346   -950.85848    416.81663    39.424331    35.577246    26.496417 
   79600    233.61029   -335.03979       229892   -22589.849    1660.7897   -24250.638   -763.06844    419.10941    39.424364    35.576292    26.479879 
   79800    233.60073   -340.16749       229892   -22590.855    1660.7218   -24251.576   -776.63744     421.7263    39.425281    35.573811    26.481832 
   80000    235.23522   -503.41485       229892   -22602.138    1672.3417    -24274.48   -1419.5345    423.42896    39.422275    35.575908     26.49742 
   80200    232.55644   -485.91935       229892   -22648.083    1653.2977   -24301.381   -1342.5401    424.26438    39.420126    35.576955    26.486275 
   80400     232.1024   -39.278948       229892   -22668.077    1650.0698   -24318.147    345.60821    424.79063    39.420565    35.578935    26.497605 
   80600    236.80697   -315.23254       229892   -22657.494    1683.5157   -24341.009   -704.55435    426.27932    39.421519    35.579982    26.500491 
   80800    235.01865   -382.50714       229892   -22609.264    1670.8021   -24280.066   -904.60701    428.16734    39.421447    35.582081    26.502462 
   81000    230.07154   -260.26066       229892    -22650.84    1635.6319   -24286.472   -448.18672    430.29114    39.421479    35.583931    26.499907 
   81200    225.44658   -230.18338       229892   -22608.387     1602.752   -24211.139   -331.44701     432.5575    39.423734    35.586425    26.489251 
   81400    242.47291   -420.78316       229892   -22581.438    1723.7961   -24305.234   -1098.9926    433.88643    39.426067    35.585413    26.487946 
   81600    230.74047   -361.29836       229892   -22652.441    1640.3875   -24292.829   -857.23617    433.51432    39.425208    35.585822    26.487864 
   81800    228.49997   -541.94183       229892   -22701.781    1624.4593   -24326.241   -1536.3956    434.25371    39.422739    35.584904    26.503568 
   82000    231.18579   -446.40549       229892   -22593.816    1643.5534   -24237.369   -1192.8153    435.33412     39.42186    35.585728    26.484329 
   82200    241.15897   -447.94323       229892    -22534.81    1714.4551   -24249.265   -1190.0507     435.1413    39.422334    35.584752    26.485643 
   82400    237.09597   -368.06694       229892   -22580.298    1685.5703   -24265.868   -858.65109    434.47931     39.42261    35.586914    26.498098 
   82600    238.30258    -469.5207       229892   -22482.928    1694.1483   -24177.077   -1278.0097    435.38436    39.424308    35.589875     26.51872 
   82800    232.27135   -211.42839       229892   -22594.023    1651.2709   -24245.294   -245.86751    435.28625    39.425509    35.591881    26.526971 
   83000    244.03482   -419.75403       229892   -22506.618    1734.9001   -24241.518    -1080.336    437.17091    39.426138    35.591556    26.536457 
   83200    236.62646   -418.55063       229892    -22540.25    1682.2324   -24222.482   -1102.2015    438.42664    39.427085    35.593194    26.517397 
   83400     236.1249   -226.52826       229892   -22521.249    1678.6667   -24199.916   -348.70375    441.24855     39.42481    35.592443    26.526842 
   83600    228.02122   -259.53091       229892    -22621.64    1621.0558   -24242.696   -445.91792    440.87925    39.423468    35.590346    26.536165 
   83800    234.43099   -328.75887       229892   -22596.888    1666.6243   -24263.513   -714.98777    440.97342    39.425002    35.590329    26.540332 
   84000    238.78036   -417.48477       229892   -22587.999    1697.5449   -24285.544   -1053.7416    441.78687    39.425894     35.58798    26.541517 
   84200    234.27379    -354.2412       229892   -22587.669    1665.5067   -24253.176   -832.82408    442.95432    39.425731     35.58965    26.538456 
   84400    233.61669   -345.36468       229892   -22651.095    1660.8352    -24311.93   -783.78498    443.70178    39.425157    35.589523     26.55036 
   84600    240.14446    -480.9296       229892   -22602.695    1707.2427   -24309.938   -1311.7756    444.61141    39.423954    35.588895    26.553218 
   84800    231.61505   -350.19869       229892   -22643.122    1646.6051   -24289.728   -817.83698    446.30023    39.420918    35.588918    26.558124 
   85000    231.68735   -257.48973       229892   -22575.308    1647.1191   -24222.427   -461.91736    446.36658    39.419167    35.588975    26.580739 
   85200    237.16452   -345.79117       229892   -22588.521    1686.0576   -24274.579    -820.3913    446.39142    39.420223    35.585664    26.591574 
   85400    232.10699   -292.80993       229892   -22669.369    1650.1024   -24319.472   -610.26535    448.16885    39.420821    35.583044    26.602391 
   85600    232.49665   -355.23195       229892   -22655.085    1652.8726   -24307.958   -832.88729    450.29105    39.421758    35.582751    26.604713 
   85800    232.78865   -465.91644       229892   -22645.636    1654.9485   -24300.585   -1207.8597    451.11022    39.421449    35.585037    26.613258 
   86000    238.86786   -373.99121       229892   -22614.055    1698.1671   -24312.222   -891.05825    451.36272      39.4192    35.585423    26.597777 
   86200    237.75207   -327.64203       229892   -22598.655    1690.2346    -24288.89   -709.43676    451.51716    39.418759    35.585722    26.610015 
   86400    233.17648   -254.09004       229892   -22692.112    1657.7057   -24349.818   -401.01679    453.06728    39.418999    35.584168    26.611699 
   86600    237.08071   -451.84064       229892    -22624.76    1685.4618   -24310.221   -1214.5906    455.08066    39.419227    35.583227    26.608817 
   86800    229.65925   -396.06864       229892   -22687.026    1632.7009   -24319.727   -1026.4391    455.76739    39.416105    35.580928     26.60139 
   87000    231.67736    -435.1966       229892    -22641.54    1647.0481   -24288.588   -1167.3275    455.82184    39.416763    35.579842    26.597799 
   87200    236.27237   -287.94061       229892   -22600.567    1679.7151   -24280.282   -561.40611    456.54625    39.413975    35.579057    26.592465 
   87400    228.31996   -222.63503       229892   -22740.804    1623.1796   -24363.984   -286.05686    457.99327    39.410986    35.578441    26.616583 
   87600    234.53915   -292.26728       229892   -22632.904    1667.3932   -24300.298   -612.36514    459.14727    39.410236    35.577676    26.624791 
   87800    230.50531   -295.99311       229892   -22685.617    1638.7158   -24324.333   -606.68948    458.92636    39.409275    35.575729    26.655413 
   88000    233.96414   -331.36984       229892   -22659.458    1663.3054   -24322.763   -736.36204    459.63922    39.407401    35.572863    26.650197 
   88200    237.04604   -471.31357       229892   -22673.831    1685.2153   -24359.046   -1265.8729      461.249    39.408609    35.572852     26.65203 
   88400    234.95001   -461.21252       229892   -22643.454    1670.3141   -24313.769   -1269.3825    461.48578    39.407575    35.572667    26.648449 
   88600    234.04697   -497.53542       229892   -22667.342    1663.8942   -24331.237   -1408.0845     461.9111    39.407723    35.573619    26.650772 
   88800    231.35272   -469.20487       229892   -22687.196    1644.7401   -24331.936   -1259.4897     461.5822    39.408347    35.574374    26.650096 
   89000    231.94655   -402.23578       229892   -22639.111    1648.9619   -24288.073   -1028.8562    462.16008    39.409689    35.578232    26.655622 
   89200     235.1867   -340.03574       229892   -22664.513    1671.9968   -24336.509   -826.02365    460.61638    39.409568    35.578999    26.651188 
   89400    229.81577   -361.00408       229892   -22611.694    1633.8136   -24245.507   -858.96296    460.79028     39.41016    35.579358    26.652058 
   89600    229.99826    -271.0619       229892   -22712.244     1635.111   -24347.355   -514.70037    461.92021    39.412218    35.579991    26.666934 
   89800    235.84901   -479.29582       229892   -22615.271    1676.7053   -24291.976   -1286.4693    463.53265     39.41515    35.576694    26.674332 
   90000    233.29555   -126.90117       229892   -22613.494    1658.5522   -24272.046    42.396312    463.71187    39.416617    35.575382    26.693176 
   90200     231.8156   -275.70798       229892   -22628.603    1648.0309   -24276.634   -555.30996      465.961    39.416526    35.576824    26.720241 
   90400    237.87857   -381.84812       229892   -22594.018    1691.1339   -24285.151   -974.84539    465.17629      39.4161    35.576395    26.711976 
   90600    237.96615   -325.88638       229892   -22606.589    1691.7566   -24298.345   -740.83125    465.28122    39.416813    35.577262     26.71552 
   90800    233.20244    -358.9536       229892    -22620.23    1657.8903    -24278.12   -839.96836    466.38426    39.417762    35.578464    26.711196 
   91000    230.25925   -397.81104       229892   -22679.568    1636.9664   -24316.534   -1034.3052    465.39913    39.418786    35.581895    26.717728 
   91200    226.99743   -437.59325       229892   -22722.313    1613.7774   -24336.091   -1155.4416    465.10123    39.420402    35.582283    26.733147 
   91400    231.67943   -386.38548       229892   -22614.864    1647.0628   -24261.927   -991.25327    467.29612    39.421215    35.583707    26.735852 
   91600     235.7365   -187.42497       229892   -22524.226    1675.9054   -24200.131   -196.29033    466.13321    39.421622    35.586681    26.719686 
   91800    230.49061   -268.46101       229892   -22534.601    1638.6112   -24173.212     -503.279    467.38432    39.423963    35.588024    26.721651 
   92000    231.09846   -318.65283       229892   -22511.024    1642.9326   -24153.957   -678.02099    469.47601    39.422755    35.590014    26.691459 
   92200     233.6733   -319.84001       229892   -22548.947    1661.2377   -24210.184   -682.36587    469.25733    39.424376    35.590609    26.676993 
   92400    234.92335   -379.54478       229892   -22537.257    1670.1246   -24207.382   -923.44673    469.72695    39.424812     35.59024    26.686549 
   92600    244.77999   -121.49737       229892   -22482.279    1740.1977   -24222.477    71.053181    469.34313    39.425482    35.589336    26.686422 
   92800    231.78197   -253.08299       229892   -22569.579    1647.7918    -24217.37    -445.5878    472.27503    39.426654    35.588756    26.680619 
   93000    228.54389   -217.57637       229892   -22597.368    1624.7715   -24222.139   -293.86853    473.29095    39.428348    35.586023    26.686605 
   93200    229.38731   -492.10564       229892   -22555.676    1630.7676   -24186.444   -1426.4042    474.22737    39.428725     35.58427    26.704088 
   93400    222.72394   -349.66836       229892   -22631.284    1583.3962    -24214.68   -822.23764    474.88401    39.429115    35.583556    26.723766 
   93600    234.31214   -250.98676       229892   -22568.964    1665.7794   -24234.743   -437.06828    473.72408    39.431468     35.58248    26.727075 
   93800    226.83975   -304.22838       229892   -22618.986    1612.6564   -24231.643   -619.86406    474.08199    39.433947    35.582725    26.718446 
   94000    229.66192   -329.15859       229892   -22602.243    1632.7199   -24234.963   -772.98905    472.98757    39.434136    35.583537     26.71985 
   94200    243.58855   -506.51808       229892   -22508.485    1731.7275   -24240.212   -1450.4909    475.15407     39.43462    35.584552    26.730413 
   94400    233.87564   -314.59602       229892   -22566.735    1662.6762   -24229.411   -706.52136    475.24332    39.431271    35.587667      26.7341 
   94600    234.87623   -311.89881       229892   -22543.953    1669.7896   -24213.742   -689.85512     477.3842    39.431223    35.587048    26.760182 
   94800    235.12516   -364.38517       229892   -22510.631    1671.5593    -24182.19   -885.19699    477.88803    39.429456    35.585589    26.763068 
   95000    233.43868   -352.34274       229892   -22581.047    1659.5697   -24240.617   -840.03085    480.42455    39.427694    35.585195    26.763375 
   95200    234.48769   -374.50489       229892   -22570.681    1667.0274   -24237.708   -930.44497     480.7595    39.428536    35.585529    26.762336 
   95400    232.39343   -386.37235       229892   -22547.148    1652.1388   -24199.286   -977.74472    483.18246    39.427294    35.586036     26.79703 
   95600    234.52122   -171.39526       229892   -22511.669    1667.2658   -24178.935   -159.17216    482.83666    39.426002    35.586985     26.80865 
   95800    239.08727   -340.42827       229892   -22531.019    1699.7269   -24230.746   -759.27683    482.71264    39.429331    35.587838    26.810787 
   96000     236.3889   -481.99488       229892   -22535.899    1680.5435   -24216.442   -1334.7997    483.86275    39.430549    35.587178    26.787489 
   96200    234.15294   -208.24088       229892   -22456.865    1664.6476   -24121.513   -304.62293     482.8983    39.431356    35.585549    26.774121 
   96400    235.43973   -418.05257       229892   -22553.235    1673.7956    -24227.03   -1078.0329    484.59478     39.43222    35.582702    26.780929 
   96600    234.24563   -448.76844       229892   -22554.282    1665.3065   -24219.589   -1221.1397    485.00633    39.429702    35.582864    26.799412 
   96800     236.6692   -285.43813       229892   -22505.145    1682.5362   -24187.681   -576.70233    487.02831    39.429757    35.583027    26.826502 
   97000    234.29415   -261.60546       229892   -22553.448    1665.6514     -24219.1   -491.04235    487.89885    39.431116    35.583447    26.839281 
   97200    228.23188   -244.48142       229892   -22524.409    1622.5534   -24146.962   -409.92479    486.32493    39.432132    35.586678    26.844386 
   97400    235.49908   -232.16192       229892   -22502.148    1674.2176   -24176.366   -401.21098    487.56973    39.432291    35.587508    26.825327 
   97600    233.53936   -359.78872       229892   -22451.875    1660.2855   -24112.161   -886.51474    489.22537    39.432239    35.589635    26.829449 
   97800    236.29423   -291.29501       229892   -22443.643    1679.8705   -24123.513   -598.67749    489.73518    39.434723    35.588877    26.828959 
   98000     233.4718   -317.50836       229892   -22529.657    1659.8052   -24189.463    -728.7597    490.04136    39.434134    35.588888    26.828703 
   98200    235.75301   -327.93078       229892   -22553.641    1676.0229   -24229.664   -750.97556    489.39469    39.433685    35.588949    26.826155 
   98400    236.44943   -283.08897       229892   -22481.508    1680.9738   -24162.482   -604.41651    491.81982    39.431002    35.588539    26.833741 
   98600    229.17437   -255.30796       229892   -22522.882    1629.2537   -24152.135   -456.65253    493.09402    39.430778    35.586155    26.850697 
   98800     234.9181   -511.54797       229892   -22501.141    1670.0872   -24171.228    -1498.199     496.1615    39.429387    35.584763    26.839537 
   99000    237.24391   -373.86079       229892   -22568.421     1686.622   -24255.043   -922.16084    495.74547    39.431066    35.583034    26.851384 
   99200    234.55528     -337.037       229892   -22569.458    1667.5079   -24236.966   -783.48166    495.75011    39.432667    35.581363    26.846445 
   99400    232.79245   -311.28354       229892   -22557.078    1654.9756   -24212.053   -657.71947    495.14495     39.43297    35.581279    26.837125 
   99600    237.58033   -415.67383       229892   -22553.402    1689.0137   -24242.416   -1118.0929    496.92815    39.432495    35.579351    26.843295 
   99800    229.85499   -590.70729       229892   -22553.144    1634.0924   -24187.236   -1777.5288    498.41442    39.431993    35.579229    26.843705 
  100000    229.70439   -290.76372       229892    -22544.46    1633.0218   -24177.482   -599.42658    497.85317    39.430709    35.575793    26.865486 
  100200    231.47205   -69.512251       229892   -22598.067    1645.5885   -24243.656    275.85569    500.27514    39.428642    35.574328    26.874589 
  100400    237.89741    -302.7463       229892   -22497.852    1691.2678    -24189.12   -641.50294    500.14216    39.429201     35.57637    26.883132 
  100600    234.44776   -363.98083       229892   -22477.863    1666.7435   -24144.607   -908.15469    503.13232    39.427548    35.576239    26.896054 
  100800    232.90587   -322.60119       229892   -22560.239    1655.7819    -24216.02   -727.97519    502.91416    39.427282    35.574215    26.893811 
[...]
 3975800    223.61146   -422.76042       229892   -24707.952    1589.7057   -26297.658   -1114.2106     5038.428    40.006497    35.843478    26.462258 
 3976000    229.66287   -396.09757       229892   -24752.049    1632.7266   -26384.775   -1042.8838     5039.255    40.006051    35.844371    26.477427 
 3976200    225.52947   -365.84147       229892   -24745.639    1603.3413    -26348.98   -915.88173    5038.9816    40.006287    35.845101    26.482505 
 3976400    220.02352   -384.93021       229892   -24775.949    1564.1982   -26340.147   -1019.6721    5037.4381     40.00718    35.845304    26.478704 
 3976600    221.25031   -363.05852       229892   -24782.394    1572.9198   -26355.314   -949.44262    5036.5539    40.008053    35.845386    26.486894 
 3976800    228.57023   -396.13881       229892    -24702.75    1624.9588   -26327.709   -1044.5232    5040.0322      40.0096      35.8451    26.490455 
 3977000    219.15166   -424.71014       229892   -24827.706         1558   -26385.706   -1138.8044    5038.8863    40.010415    35.845425    26.498384 
 3977200    227.97088   -247.57898       229892   -24732.622    1620.6979    -26353.32   -444.97568    5038.2954    40.010822     35.84498    26.503954 
 3977400    224.68544   -380.02374       229892   -24752.161    1597.3409   -26349.502   -940.55125    5038.3301    40.010854    35.846274    26.495717 
 3977600    218.53882   -511.69755       229892   -24768.799    1553.6432   -26322.442   -1453.7243    5039.8657    40.012308     35.84609    26.479529 
 3977800    221.98077   -333.47643       229892   -24753.879    1578.1128   -26331.992   -821.74877    5037.6904    40.012171    35.846871    26.477554 
 3978000    218.33915   -220.57342       229892   -24798.358    1552.2236   -26350.582   -340.00411    5038.0136    40.012496    35.847456    26.473391 
 3978200    229.04055   -408.46269       229892   -24721.793    1628.3024   -26350.096    -1104.387    5037.4188    40.012518    35.848936    26.469123 
 3978400    221.06198   -312.93746       229892    -24782.24    1571.5809   -26353.821   -688.65883    5036.8651    40.012459    35.849003    26.471404 
 3978600    226.45383   -363.08761       229892   -24759.478    1609.9128    -26369.39   -929.80397    5037.7735    40.013359    35.849631    26.475779 
 3978800    223.35662    -380.9386       229892   -24731.131     1587.894   -26319.025   -945.06188    5037.9655    40.013839    35.850226    26.471276 
 3979000    221.98256   -382.90567       229892   -24744.313    1578.1255   -26322.439    -1017.655    5038.1634    40.013053    35.850842    26.481759 
 3979200    222.46362   -287.02983       229892   -24778.444    1581.5454    -26359.99   -610.83765    5038.4552    40.013195    35.850236    26.481666 
 3979400    225.43583   -364.22361       229892   -24758.116    1602.6756   -26360.791    -911.0361    5038.3304    40.012252    35.851035    26.498026 
 3979600    226.05737   -527.56483       229892   -24766.911    1607.0943   -26374.005   -1545.8607    5039.2581    40.012364    35.851273    26.481011 
 3979800    227.05988   -438.91267       229892   -24752.866    1614.2213   -26367.087   -1192.6519    5037.3778    40.013891    35.852627    26.494197 
 3980000    226.02983   -391.33511       229892   -24752.818    1606.8985   -26359.716    -1040.788     5037.539     40.01506    35.853091    26.508016 
 3980200    226.53745   -549.53532       229892   -24736.466    1610.5073   -26346.973   -1607.3247    5039.1382    40.015876    35.852813    26.505504 
 3980400    222.72299   -407.86988       229892   -24736.423    1583.3894   -26319.812   -1056.6112    5038.1622    40.016219    35.853396    26.496309 
 3980600    227.59927   -347.18425       229892   -24684.634     1618.056    -26302.69   -884.99289    5037.9621    40.017586    35.853184    26.508344 
 3980800    227.62916   -431.64092       229892   -24699.048    1618.2685   -26317.316   -1166.4493    5038.8317     40.01784     35.85385    26.492268 
 3981000     224.8858   -465.30899       229892   -24714.325    1598.7653   -26313.091   -1288.4082    5039.2129    40.018825    35.854162     26.50141 
 3981200    233.62784   -379.39916       229892   -24711.702    1660.9145   -26372.616   -943.56428    5038.4777    40.018926    35.853556    26.505879 
 3981400    223.04486   -338.16284       229892   -24710.746    1585.6777   -26296.424   -795.50817    5039.3112    40.020134    35.852384    26.510696 
 3981600    215.33957   -489.58102       229892   -24765.955     1530.899   -26296.854   -1369.0485      5037.48    40.020384    35.852472     26.49866 
 3981800    223.07284     -437.183       229892   -24732.598    1585.8766   -26318.474   -1257.2578    5040.0196    40.020157    35.853345    26.518979 
 3982000    223.09222   -441.17857       229892   -24770.411    1586.0144   -26356.425   -1154.0024    5038.2394    40.021019    35.853434    26.505994 
 3982200    220.12306   -425.08012       229892   -24790.015    1564.9059    -26354.92   -1118.2074    5038.7629    40.021418    35.854443    26.497233 
 3982400     227.6605   -446.61552       229892   -24725.272    1618.4913   -26343.763   -1233.0403    5039.7459    40.022187    35.855721    26.494801 
 3982600    222.44441   -458.84923       229892   -24747.964    1581.4089   -26329.373   -1289.0687     5039.229    40.023328     35.85646    26.504449 
 3982800    222.51604   -326.88435       229892   -24694.192    1581.9182    -26276.11   -745.01454    5039.3608    40.023588    35.857215    26.493116 
 3983000    228.52659   -418.36806       229892   -24687.707    1624.6486   -26312.356   -1122.7909    5039.8138    40.023117    35.858644     26.50144 
 3983200    225.71512   -455.80921       229892   -24705.466    1604.6611   -26310.127   -1278.6479    5041.1528    40.022522    35.858738    26.494138 
 3983400    226.48957   -436.22641       229892   -24653.511    1610.1669   -26263.677    -1176.759    5039.0476    40.022459    35.859557    26.504586 
 3983600    225.41534   -459.17871       229892   -24719.618      1602.53   -26322.148   -1298.6987     5038.775    40.022744    35.860782    26.511472 
 3983800    228.24171   -334.79878       229892   -24707.879    1622.6233   -26330.502   -753.63779    5039.0109    40.022856    35.860495     26.51175 
 3984000    222.38812   -446.35417       229892    -24742.44    1581.0087   -26323.448   -1221.8407    5038.8596    40.022794    35.859762    26.517574 
 3984200    222.35476   -469.81591       229892   -24712.511    1580.7716   -26293.282     -1298.83    5038.7996    40.023025    35.860364    26.504355 
 3984400    222.40643   -488.82325       229892   -24741.525    1581.1389   -26322.664   -1395.5028    5039.0366    40.023794    35.859863    26.504305 
 3984600    220.42593   -461.77915       229892   -24750.565    1567.0591   -26317.624   -1254.6744    5038.9967    40.024316    35.860341    26.512036 
 3984800    227.93212   -408.12243       229892   -24729.649    1620.4223   -26350.071   -1071.3388    5037.5717    40.025525    35.860743    26.510604 
 3985000    225.80663    -432.5144       229892   -24754.334    1605.3117   -26359.645   -1141.7667    5037.3881    40.026456    35.862052    26.511669 
 3985200    224.34919   -400.25201       229892   -24724.091    1594.9504   -26319.042   -1068.2815    5039.6185    40.026316    35.862118    26.509894 
 3985400    224.56227   -353.50063       229892   -24740.752    1596.4652   -26337.217   -834.86073     5038.009    40.026443    35.863239    26.499957 
 3985600    231.62831   -354.42614       229892   -24704.631    1646.6994   -26351.331   -884.40031    5038.4298     40.02678    35.863181    26.501391 
 3985800    226.13543   -366.59331       229892   -24729.241    1607.6492   -26336.891   -909.52762    5037.4842    40.026947    35.863861    26.502108 
 3986000    229.19166   -404.86784       229892   -24628.021    1629.3767   -26257.398   -1075.5181    5039.1281    40.027056    35.863852    26.487617 
 3986200    232.74938   -480.37823       229892   -24651.113    1654.6694   -26305.782   -1334.3953     5038.741    40.027023    35.863645    26.479483 
 3986400    220.75201   -475.93764       229892   -24777.143    1569.3772    -26346.52    -1340.719    5037.6095    40.027786    35.863208    26.477368 
 3986600    222.62361   -417.22053       229892   -24755.591    1582.6829   -26338.274   -1166.3627     5038.289      40.0293    35.863461    26.486261 
 3986800    224.56362   -466.25535       229892   -24735.662    1596.4748   -26332.137   -1308.7872     5038.884    40.028525    35.862324    26.488542 
 3987000    228.79286    -447.8924       229892   -24702.244    1626.5415   -26328.786   -1221.5912    5037.1677     40.02922    35.862147    26.484902 
 3987200    220.46066   -433.34947       229892   -24827.501     1567.306   -26394.807   -1215.6583     5038.619    40.029451    35.862366    26.491213 
 3987400    225.91795   -434.90361       229892   -24769.462    1606.1031   -26375.565   -1156.8131    5036.8124     40.02937     35.86208    26.489928 
 3987600    223.03213   -403.28536       229892   -24711.752    1585.5871   -26297.339   -1045.8886    5037.9873    40.028903    35.862391    26.475682 
 3987800    218.00231   -376.83168       229892   -24752.738     1549.829   -26302.567   -976.23442    5038.5729    40.029254    35.863984    26.477749 
 3988000    222.60228   -409.41208       229892   -24714.709    1582.5312    -26297.24   -1058.6517     5037.961    40.028748    35.865144    26.476733 
 3988200    226.52128   -318.18266       229892   -24720.987    1610.3923   -26331.379   -737.58512    5035.6864    40.028824    35.865851     26.47634 
 3988400    228.33899   -365.55511       229892   -24733.681    1623.3148   -26356.996   -925.86177    5036.7279    40.028797    35.866217    26.487389 
 3988600    220.81952   -420.56354       229892   -24772.368    1569.8572   -26342.225   -1130.9396    5036.9207    40.028537     35.86712    26.486047 
 3988800    225.18293   -406.56326       229892   -24756.942    1600.8777    -26357.82   -1099.4775    5037.6426    40.028154    35.868476    26.476054 
 3989000    228.93489   -305.96945       229892   -24687.273    1627.5513   -26314.824   -685.51515     5037.435    40.027171    35.869101    26.473588 
 3989200    218.48664    -338.4977       229892   -24747.446    1553.2722   -26300.718   -825.19879    5036.9176    40.026856    35.870422    26.480007 
 3989400    227.56219   -471.05506       229892   -24769.366    1617.7924   -26387.159   -1347.7209    5039.8879    40.027487    35.871601    26.489253 
 3989600    227.35647   -399.35699       229892   -24675.939    1616.3299   -26292.269    -1032.309     5036.223    40.027185    35.870899    26.490438 
 3989800    224.74199    -342.3221       229892   -24710.977    1597.7429    -26308.72   -816.58844    5036.5179    40.027032    35.871149    26.497454 
 3990000    229.00477    -387.2234       229892   -24746.598     1628.048   -26374.646   -1044.0546     5036.875    40.026222     35.87139    26.485817 
 3990200    217.52144   -382.11186       229892   -24774.416    1546.4104   -26320.827   -955.26509    5036.0453    40.025899    35.872382    26.483734 
 3990400      223.819    -315.6948       229892   -24736.909    1591.1812    -26328.09   -731.71176    5036.1455    40.026147    35.872178    26.493291 
 3990600    220.82169   -392.12863       229892   -24768.717    1569.8726    -26338.59   -1025.3831    5035.8943    40.025555    35.872716      26.4809 
 3990800    230.23388   -365.45253       229892   -24710.621    1636.7861   -26347.407   -895.20566    5035.5347    40.025013    35.873608    26.479467 
 3991000     227.8862    -251.3053       229892   -24725.267    1620.0958   -26345.363     -501.883    5035.8827    40.024983    35.873487    26.480143 
 3991200    228.53389   -383.99512       229892    -24693.62    1624.7004   -26318.321   -974.11327    5037.5774    40.024673     35.87374    26.475871 
 3991400    227.44192   -315.22274       229892   -24680.414    1616.9374   -26297.351    -683.4467    5037.0849    40.025425    35.875166    26.473677 
 3991600     222.4818   -265.05845       229892   -24738.799    1581.6747   -26320.474   -545.92138    5034.4274     40.02458    35.875924     26.47889 
 3991800    214.54547   -438.60885       229892   -24806.345    1525.2535   -26331.598   -1202.9685    5035.8367    40.024227     35.87658    26.492149 
 3992000    223.40383    -465.0421       229892   -24740.396    1588.2297   -26328.626   -1259.5273    5036.6428    40.024778    35.877431    26.489611 
 3992200    228.38218    -366.2653       229892   -24733.804    1623.6219   -26357.426   -870.46754    5036.8196    40.025214    35.877963    26.494036 
 3992400    225.91271   -364.75803       229892   -24739.877    1606.0659   -26345.943   -958.98535    5035.3579     40.02578    35.879271    26.506404 
 3992600    222.60188   -362.88592       229892   -24737.274    1582.5284   -26319.803   -885.54452    5034.5904    40.025488    35.879307    26.502526 
 3992800    227.25375   -464.53573       229892   -24746.083    1615.5996   -26361.683   -1287.6115    5038.3621    40.025426     35.87943    26.501204 
 3993000    223.96759   -440.46417       229892   -24842.372    1592.2376    -26434.61   -1218.6897    5037.3575    40.026916    35.880896    26.492403 
 3993200    222.88854    -447.7163       229892   -24724.641    1584.5663   -26309.207   -1237.7652    5036.1772    40.026972    35.881756    26.483411 
 3993400    225.16345   -437.44172       229892   -24697.581    1600.7392    -26298.32   -1174.6313    5036.6792    40.027236    35.882033    26.481976 
 3993600    226.55456   -473.18539       229892   -24703.871    1610.6289     -26314.5   -1337.6327    5037.3526    40.028055    35.883103    26.485354 
 3993800    228.43389   -349.09764       229892   -24710.621    1623.9895    -26334.61   -861.51241    5038.3747    40.028286    35.883651    26.486773 
 3994000    224.68455   -306.70856       229892   -24727.601    1597.3346   -26324.936   -687.53086    5036.9799      40.0286    35.883743     26.49161 
 3994200    224.39219   -465.82954       229892   -24774.683    1595.2561   -26369.939   -1301.3163    5036.6628    40.029359    35.885088      26.5014 
 3994400    223.79263   -472.68757       229892   -24726.944    1590.9937   -26317.938   -1300.7077    5037.2458    40.029118    35.886498     26.51329 
 3994600    223.49503   -510.38454       229892   -24784.675     1588.878   -26373.553   -1438.5867     5037.001    40.028922     35.88691    26.498411 
 3994800    223.74283   -462.02871       229892   -24722.841    1590.6397   -26313.481   -1264.1478    5038.5099    40.029388    35.888331    26.505378 
 3995000    230.82087   -333.60132       229892    -24697.77    1640.9591   -26338.729   -827.64517    5037.4309    40.029966    35.888788    26.509435 
 3995200    223.00852   -355.33249       229892   -24800.427    1585.4193   -26385.846   -915.85733    5037.0939    40.030832    35.889681    26.497495 
 3995400    229.64821   -424.60627       229892   -24718.295    1632.6224   -26350.917   -1121.5628     5036.373    40.030873    35.890903    26.512504 
 3995600    227.78731   -335.40356       229892   -24671.838    1619.3929   -26291.231    -801.5449    5036.6167    40.030912    35.891091    26.512055 
 3995800    235.80012   -370.08626       229892   -24684.349    1676.3578   -26360.707   -927.09213     5037.534    40.031922    35.890913    26.498947 
 3996000    229.91908   -403.66551       229892    -24617.27    1634.5481   -26251.818   -1053.8096    5035.4919    40.032429    35.891296    26.503317 
 3996200     227.7348   -358.99224       229892   -24676.727    1619.0195   -26295.746   -931.42717    5034.8205     40.03291     35.89106    26.492162 
 3996400    225.29827   -340.57426       229892   -24759.615    1601.6977   -26361.313   -827.39427    5036.1657    40.032088    35.891166    26.495043 
 3996600    226.89911    -329.9687       229892   -24716.006    1613.0784   -26329.084   -757.36766    5037.6032    40.031316    35.891572    26.500381 
 3996800    219.64297   -475.35331       229892   -24772.434    1561.4928   -26333.927   -1356.6343    5037.2011    40.031452    35.891588    26.497773 
 3997000    236.26082   -403.48079       229892   -24651.555     1679.633   -26331.188   -1044.1042    5036.5968    40.031406    35.892541    26.500145 
 3997200    224.39906   -397.61037       229892   -24721.048    1595.3049   -26316.353   -1061.9081    5036.2593    40.031333    35.892458    26.489558 
 3997400    222.58897   -355.57308       229892   -24785.425    1582.4366   -26367.862   -879.66629    5035.9904    40.031832    35.893167     26.49831 
 3997600     220.6533   -360.95588       229892   -24747.269    1568.6755   -26315.945   -896.11225    5036.9479    40.031556    35.894188    26.504018 
 3997800    223.03544   -392.02077       229892   -24857.445    1585.6107   -26443.056   -1009.0363    5037.3762    40.031988    35.893735    26.483674 
 3998000    224.28824   -453.11468       229892   -24762.843    1594.5171    -26357.36   -1269.0299    5036.9435    40.031702    35.894574    26.472088 
 3998200    224.44401   -303.44866       229892   -24773.235    1595.6245    -26368.86   -689.64679    5035.9039    40.031367    35.895021    26.485056 
 3998400    228.93392   -438.03004       229892   -24673.796    1627.5444    -26301.34   -1201.1239    5037.6497     40.03114    35.895181    26.490135 
 3998600    220.75448   -447.67798       229892   -24778.059    1569.3948   -26347.453   -1226.1425    5036.7275    40.031088    35.895548    26.489957 
 3998800    221.41743   -336.60588       229892    -24739.96    1574.1078   -26314.068   -843.89563    5036.2129    40.029674    35.895622    26.485179 
 3999000    235.49571   -355.64715       229892    -24697.85    1674.1936   -26372.044   -853.02366    5036.3563    40.030119    35.895465    26.496884 
 3999200    221.20754   -389.32854       229892   -24762.017    1572.6157   -26334.633    -996.9466    5038.3322    40.030631    35.896364    26.485436 
 3999400    223.57725   -378.77552       229892   -24783.782    1589.4625   -26373.244   -979.73549    5035.5705    40.030656     35.89662    26.483678 
 3999600    221.62783   -507.18773       229892   -24786.961    1575.6036   -26362.565   -1500.2312    5037.7453    40.030155    35.896733    26.488226 
 3999800    222.55481   -368.43564       229892   -24709.551    1582.1938   -26291.744   -961.97405    5036.9742    40.030165    35.897543     26.48197 
 4000000    228.96382   -386.98161       229892   -24670.789    1627.7569   -26298.545   -991.28113    5037.7048    40.029318     35.89869    26.490762 
Loop time of 6785.33 on 120 procs for 4000000 steps with 9010 atoms

Performance: 509.334 ns/day, 0.047 hours/ns, 589.507 timesteps/s
98.1% CPU use with 120 MPI tasks x no OpenMP threads

MPI task timing breakdown:
Section |  min time  |  avg time  |  max time  |%varavg| %total
---------------------------------------------------------------
Pair    | 0.21088    | 1617.1     | 5564.9     |4594.9 | 23.83
Neigh   | 0.32776    | 102.17     | 396.3      |1245.5 |  1.51
Comm    | 19.132     | 2744.4     | 5990.7     |3956.7 | 40.45
Output  | 79.948     | 80.012     | 81.606     |   1.7 |  1.18
Modify  | 179.25     | 2198.2     | 6640.1     |5420.8 | 32.40
Other   |            | 43.46      |            |       |  0.64

Nlocal:    75.0833 ave 232 max 0 min
Histogram: 51 9 30 0 0 0 0 0 4 26
Nghost:    602.242 ave 988 max 0 min
Histogram: 10 6 4 1 9 16 26 18 18 12
Neighs:    0 ave 0 max 0 min
Histogram: 120 0 0 0 0 0 0 0 0 0
FullNghs:  7413.15 ave 29003 max 0 min
Histogram: 70 20 0 0 0 0 0 2 14 14

Total # of neighbors = 889578
Ave neighs/atom = 98.7323
Neighbor list builds = 428594
Dangerous builds = 0
write_data 		${DIR}/data.${NAME}_run
write_data 		run_11/data.${NAME}_run
write_data 		run_11/data.ibeam_cooling_11_run
Total wall time: 1:53:24
