
### Dimensions ###


### IMPORT ATOMS ###
read_data ../Box_Setup/data.Ibeam_235K
  orthogonal box = (0 0 0) to (78.752 72.9753 40.0024)
  6 by 5 by 4 MPI processor grid
  reading atoms ...
  9010 atoms
  reading velocities ...
  9010 velocities
group water type 2
2386 atoms in group water
group graphite type 1
6624 atoms in group graphite


# Define potential
#
pair_style          sw
pair_coeff * * MLC_e.sw C mW

# Add velocity/set timestep
#

fix		1 graphite setforce 0.0 0.0 0.0
velocity 	graphite set 0.0 0.0 0.0
velocity            water create ${START_TEMP} ${SEED} rot yes dist gaussian
velocity            water create 235 ${SEED} rot yes dist gaussian
velocity            water create 235 13933 rot yes dist gaussian
timestep            5.0

# Define output
#
compute 1 water msd
compute 2 water temp


thermo	            100
thermo_style custom step c_2 press vol etotal ke pe c_1[4] density

# Neighbor lists
#
neigh_modify        delay 0 every 1 check yes


# Set fixes
#
fix                 2 water momentum 10 linear 1 1 1 rescale
fix                 3 all nve
fix                 4 water temp/csvr ${START_TEMP} ${START_TEMP} 500.0 928347
fix                 4 water temp/csvr 235 ${START_TEMP} 500.0 928347
fix                 4 water temp/csvr 235 235 500.0 928347

# Run 0.05 ns equilibration
#
dump                1 all custom 100 ${DIR}/eq.${NAME}.dump id type x y z vx vy vz
dump                1 all custom 100 run_11/eq.${NAME}.dump id type x y z vx vy vz
dump                1 all custom 100 run_11/eq.ibeam_cooling_11.dump id type x y z vx vy vz
run                 10000
Neighbor list info ...
  update every 1 steps, delay 0 steps, check yes
  max neighbors/atom: 2000, page size: 100000
  master list distance cutoff = 6.67472
  ghost atom cutoff = 6.67472
  binsize = 3.33736, bins = 24 22 12
  1 neighbor lists, perpetual/occasional/extra = 1 0 0
  (1) pair sw, perpetual
      attributes: full, newton on
      pair build: full/bin/atomonly
      stencil: full/bin/3d
      bin: standard
Per MPI rank memory allocation (min/avg/max) = 0.4724 | 3.952 | 4.75 Mbytes
Step c_2 Press Volume TotEng KinEng PotEng c_1[4] Density 
       0          235   -397.42353       229892   -22660.138    1670.6695   -24330.807            0   0.88510766 
     100    231.95606   -267.36928       229892    -22654.56    1649.0294    -24303.59   0.81225276   0.88510766 
     200    228.43623   -381.62893       229892   -22670.408    1624.0061   -24294.414    1.1862155   0.88510766 
     300    235.02933   -607.49304       229892   -22650.631     1670.878   -24321.509    1.5560483   0.88510766 
     400     231.7373   -216.79855       229892   -22650.785    1647.4742   -24298.259    1.8426867   0.88510766 
     500    235.66648   -356.75894       229892    -22635.23    1675.4076   -24310.638    2.1794035   0.88510766 
     600    233.86481   -416.58414       229892   -22559.598    1662.5992   -24222.197      2.53838   0.88510766 
     700    236.62969    -209.6934       229892    -22568.51    1682.2553   -24250.766     2.901567   0.88510766 
     800    241.24472    -306.4305       229892   -22558.206    1715.0647   -24273.271    3.1870016   0.88510766 
     900    231.30983   -338.12076       229892   -22578.346    1644.4353   -24222.781    3.4073864   0.88510766 
    1000    234.08615   -173.35367       229892   -22607.578    1664.1728   -24271.751    3.7129214   0.88510766 
    1100    234.34698   -411.03526       229892   -22591.882    1666.0271   -24257.909    4.1748944   0.88510766 
    1200    233.90184   -304.14506       229892   -22596.406    1662.8624   -24259.269    4.6110133   0.88510766 
    1300    240.54726   -385.84983       229892   -22555.507    1710.1063   -24265.613    4.8634638   0.88510766 
    1400    231.55479   -355.27188       229892   -22594.637    1646.1767   -24240.814    5.3285134   0.88510766 
    1500     236.1598   -256.86897       229892   -22626.499    1678.9148   -24305.414    5.6323828   0.88510766 
    1600    234.07972   -334.25123       229892   -22604.418     1664.127   -24268.545    5.8144267   0.88510766 
    1700    233.38525   -335.03074       229892   -22612.581    1659.1899   -24271.771    6.2073658   0.88510766 
    1800    236.93948   -248.94076       229892    -22581.09    1684.4577   -24265.548    6.5351489   0.88510766 
    1900     239.1624   -102.20407       229892   -22544.088     1700.261   -24244.349    7.0009969   0.88510766 
    2000     239.2582   -544.40212       229892    -22528.61    1700.9421   -24229.552     7.191028   0.88510766 
    2100     238.3609   -342.04449       229892     -22629.6     1694.563   -24324.163    7.4693139   0.88510766 
    2200    238.85818    -340.6511       229892   -22606.656    1698.0982   -24304.754    7.7217745   0.88510766 
    2300     235.0568   -403.89924       229892    -22585.09    1671.0733   -24256.163    8.0113265   0.88510766 
    2400     233.9014   -500.10359       229892   -22593.994    1662.8593   -24256.854    8.3274276   0.88510766 
    2500    238.12512   -316.48668       229892    -22630.21    1692.8867   -24323.097    8.7944997   0.88510766 
    2600    237.48585   -247.03152       229892   -22634.733     1688.342   -24323.075    9.0492999   0.88510766 
    2700    233.51056   -229.14371       229892   -22611.264    1660.0808   -24271.345    9.3915761   0.88510766 
    2800    239.30373   -492.34051       229892   -22553.828    1701.2657   -24255.094    9.6143084   0.88510766 
    2900    234.76874   -443.57378       229892   -22559.839    1669.0254   -24228.865    9.8984404   0.88510766 
    3000    236.50159    -357.6731       229892   -22550.131    1681.3447   -24231.475    10.126705   0.88510766 
    3100    233.92984   -384.53763       229892   -22530.164    1663.0615   -24193.226    10.176694   0.88510766 
    3200    236.22169   -266.11515       229892   -22584.105    1679.3548    -24263.46    10.429532   0.88510766 
    3300    231.58731   -316.26817       229892   -22679.669    1646.4079   -24326.077    10.552471   0.88510766 
    3400    230.71367   -327.18968       229892   -22634.863     1640.197    -24275.06    11.097302   0.88510766 
    3500    234.97358   -442.41804       229892   -22623.993    1670.4817   -24294.475     11.23876   0.88510766 
    3600     236.1071   -276.87162       229892   -22628.758    1678.5402   -24307.298    11.324618   0.88510766 
    3700     233.7717   -345.30429       229892   -22605.791    1661.9373   -24267.728    11.550446   0.88510766 
    3800    237.97399   -398.90506       229892   -22585.616    1691.8123   -24277.428    11.686639   0.88510766 
    3900    235.78488    -376.4416       229892       -22580    1676.2494   -24256.249    11.920927   0.88510766 
    4000    235.44848   -292.47379       229892   -22613.203    1673.8579   -24287.061    12.146947   0.88510766 
    4100    232.57692   -429.30629       229892   -22596.646    1653.4433    -24250.09    12.405502   0.88510766 
    4200    239.72556    -420.6615       229892   -22561.976    1704.2646   -24266.241     12.56642   0.88510766 
    4300    234.45892   -252.60108       229892    -22636.24    1666.8229   -24303.063    12.703651   0.88510766 
    4400    232.78293   -242.90028       229892   -22598.597    1654.9078   -24253.504    13.065389   0.88510766 
    4500    234.95098   -548.78835       229892   -22629.204     1670.321   -24299.525    13.378952   0.88510766 
    4600    231.65074   -256.82612       229892   -22675.665    1646.8589   -24322.524    13.652741   0.88510766 
    4700    235.40077   -246.82125       229892   -22618.167    1673.5187   -24291.686    13.706043   0.88510766 
    4800    236.67976   -374.11344       229892   -22585.332    1682.6113   -24267.943      14.2287   0.88510766 
    4900    239.81347   -505.58181       229892   -22557.785    1704.8896   -24262.674    14.574698   0.88510766 
    5000    231.77303   -229.25442       229892   -22608.017    1647.7283   -24255.745    14.944195   0.88510766 
    5100    240.13138   -290.23918       229892   -22575.389    1707.1497   -24282.539    15.225852   0.88510766 
    5200    235.13643   -217.17358       229892   -22620.323    1671.6394   -24291.962    15.558036   0.88510766 
    5300    232.96107   -368.71434       229892    -22678.19    1656.1743   -24334.364    15.810992   0.88510766 
    5400    234.99439   -442.99241       229892   -22666.868    1670.6296   -24337.498     16.23386   0.88510766 
    5500    235.15264     -379.545       229892   -22648.105    1671.7547    -24319.86    16.434186   0.88510766 
    5600    236.17839    -298.9234       229892   -22662.545    1679.0469   -24341.592    16.780235   0.88510766 
    5700    229.48063   -363.04344       229892   -22629.452     1631.431   -24260.883    17.032035   0.88510766 
    5800    233.70244   -368.69431       229892   -22607.617    1661.4448   -24269.062    17.031099   0.88510766 
    5900    228.53062   -247.06768       229892   -22624.039    1624.6772   -24248.716    17.366456   0.88510766 
    6000    232.56678   -269.81779       229892   -22635.471    1653.3712   -24288.843    17.701047   0.88510766 
    6100     235.0034    -306.3213       229892   -22655.261    1670.6937   -24325.955    17.908016   0.88510766 
    6200    230.65958   -307.53877       229892    -22665.93    1639.8124   -24305.742    18.365618   0.88510766 
    6300    234.79171   -277.46801       229892   -22595.434    1669.1887   -24264.622    18.762664   0.88510766 
    6400     233.8527   -318.30765       229892   -22636.626    1662.5131   -24299.139    19.060481   0.88510766 
    6500    233.74674   -463.67785       229892   -22646.481    1661.7598   -24308.241    19.284582   0.88510766 
    6600    230.95739   -436.59419       229892   -22641.055    1641.9297   -24282.984    19.583999   0.88510766 
    6700    237.24909   -305.71527       229892   -22672.707    1686.6588   -24359.366    19.910199   0.88510766 
    6800    233.19768   -465.34092       229892   -22662.419    1657.8564   -24320.276     20.11054   0.88510766 
    6900    237.08037   -297.44776       229892   -22616.434    1685.4594   -24301.894    20.320846   0.88510766 
    7000     238.3469   -415.12199       229892   -22616.866    1694.4634   -24311.329    20.355495   0.88510766 
    7100    234.46872   -352.04209       229892   -22628.824    1666.8925   -24295.717    20.746181   0.88510766 
    7200    228.87607    -330.0792       229892   -22677.458    1627.1331   -24304.591    21.081387   0.88510766 
    7300    230.13043   -336.34893       229892   -22707.887    1636.0506   -24343.938    21.413213   0.88510766 
    7400     235.7614   -315.89685       229892   -22675.141    1676.0825   -24351.224    21.739465   0.88510766 
    7500    236.11072    -325.4801       229892   -22649.025    1678.5659   -24327.591    22.005952   0.88510766 
    7600    240.60059   -378.61575       229892    -22606.06    1710.4854   -24316.545    22.175223   0.88510766 
    7700    231.76824   -414.51912       229892   -22623.877    1647.6942   -24271.571    22.562682   0.88510766 
    7800    229.44729   -365.45363       229892   -22665.475     1631.194   -24296.669    22.663993   0.88510766 
    7900    236.52037   -445.04582       229892   -22621.633    1681.4782   -24303.111     23.12259   0.88510766 
    8000    234.04611   -377.23104       229892   -22563.539    1663.8881   -24227.427     23.20149   0.88510766 
    8100    240.75864   -529.24735       229892    -22551.11     1711.609   -24262.719    23.260275   0.88510766 
    8200    238.59401   -489.43658       229892   -22568.409    1696.2202   -24264.629    23.454063   0.88510766 
    8300    242.05033   -449.68318       229892   -22524.505     1720.792   -24245.297    23.828872   0.88510766 
    8400    242.89863    -304.5372       229892   -22529.693    1726.8227   -24256.516    24.201134   0.88510766 
    8500    228.13323   -313.15105       229892   -22562.703     1621.852   -24184.555    24.504475   0.88510766 
    8600    237.72499   -459.73891       229892   -22564.198    1690.0421    -24254.24    25.007365   0.88510766 
    8700    235.81031   -388.54332       229892   -22598.194    1676.4302   -24274.624     25.19704   0.88510766 
    8800    239.85575   -323.10507       229892   -22606.064    1705.1901   -24311.254     25.58996   0.88510766 
    8900    235.57299   -464.59379       229892   -22642.005     1674.743   -24316.748    25.964315   0.88510766 
    9000     242.2443   -477.75472       229892   -22612.637    1722.1709   -24334.808    26.094284   0.88510766 
    9100    240.79916   -384.97376       229892   -22649.421    1711.8971   -24361.318    26.305682   0.88510766 
    9200    240.88287   -447.19557       229892   -22605.227    1712.4922   -24317.719     26.64474   0.88510766 
    9300    233.30651   -396.28607       229892   -22673.159    1658.6301   -24331.789    26.829305   0.88510766 
    9400    235.83181   -222.73802       229892   -22647.243     1676.583   -24323.826    26.877344   0.88510766 
    9500    231.76723   -382.71913       229892   -22702.704     1647.687   -24350.391    26.896442   0.88510766 
    9600    233.49097    -326.4466       229892   -22714.563    1659.9414   -24374.505     27.31288   0.88510766 
    9700    233.30029   -234.21612       229892   -22666.171    1658.5859   -24324.757    27.660239   0.88510766 
    9800    238.66962   -270.06222       229892   -22620.225    1696.7577   -24316.983     27.78626   0.88510766 
    9900    233.31793    -441.2511       229892   -22662.729    1658.7113    -24321.44    28.181181   0.88510766 
   10000    235.47405    -151.0839       229892   -22669.485    1674.0396   -24343.525    28.151852   0.88510766 
Loop time of 18.3603 on 120 procs for 10000 steps with 9010 atoms

Performance: 235.290 ns/day, 0.102 hours/ns, 544.653 timesteps/s
98.1% CPU use with 120 MPI tasks x no OpenMP threads

MPI task timing breakdown:
Section |  min time  |  avg time  |  max time  |%varavg| %total
---------------------------------------------------------------
Pair    | 0.00045824 | 4.3263     | 15.61      | 241.8 | 23.56
Neigh   | 0.0004158  | 0.13856    | 0.52208    |  45.8 |  0.75
Comm    | 0.028938   | 7.4999     | 16.946     | 208.6 | 40.85
Output  | 0.16692    | 0.16709    | 0.17387    |   0.2 |  0.91
Modify  | 0.52051    | 6.109      | 18.046     | 281.0 | 33.27
Other   |            | 0.1195     |            |       |  0.65

Nlocal:    75.0833 ave 232 max 0 min
Histogram: 55 5 26 4 0 0 0 0 4 26
Nghost:    604.517 ave 1009 max 0 min
Histogram: 10 7 3 0 10 20 30 10 20 10
Neighs:    0 ave 0 max 0 min
Histogram: 120 0 0 0 0 0 0 0 0 0
FullNghs:  7462.03 ave 28988 max 0 min
Histogram: 70 20 0 0 0 0 0 2 14 14

Total # of neighbors = 895444
Ave neighs/atom = 99.3834
Neighbor list builds = 568
Dangerous builds = 0
write_data 	    ${DIR}/data.${NAME}_eq
write_data 	    run_11/data.${NAME}_eq
write_data 	    run_11/data.ibeam_cooling_11_eq

undump              1
unfix               4



################################################
#######         Run Simulation         #########
################################################

reset_timestep      0
timestep	    10.0
log                 ${DIR}/log.run_${NAME}
log                 run_11/log.run_${NAME}
log                 run_11/log.run_ibeam_cooling_11
