
# Set production fixes - Nose/Hoover
#
fix                 4 water temp/csvr ${START_TEMP} ${END_TEMP} 500.0 928347
fix                 4 water temp/csvr 240 ${END_TEMP} 500.0 928347
fix                 4 water temp/csvr 240 227 500.0 928347


## divide "droplet" into core and surface
#region		core_reg cylinder z 135 135 44.6 20 INF units box
#region		surface_reg cylinder z 135 135 44.6 20 INF units box side out
#group		core dynamic all region core_reg
#group		surface dynamic all region surface_reg

## compute pressure core
#compute        peratom_core core stress/atom NULL
#compute        p_core core reduce sum c_peratom_core[1] c_peratom_core[2] c_peratom_core[3]
#variable       press_core equal -(c_p_core[1]+c_p_core[2]+c_p_core[3])/(3*1249982.5)


## compute pressure surface
#compute        peratom_surf surface stress/atom NULL
#compute        p_surf surface reduce sum c_peratom_surf[1] c_peratom_surf[2] #c_peratom_surf[3]
#variable       press_surf equal -(c_p_surf[1]+c_p_surf[2]+c_p_surf[3])/(3*42395)

## compute total pressure of drop
compute        peratom water stress/atom NULL
compute        p water reduce sum c_peratom[1] c_peratom[2] c_peratom[3]
variable       press equal -(c_p[1]+c_p[2]+c_p[3])/(3*50320)


# compute order parameter
compute        3 all orientorder/atom nnn NULL cutoff 3.5

# compute center of mass of bridge
compute 	4 water com

# Run simulation
thermo_style        custom step c_2 press vol etotal ke pe v_press c_1[4] c_4[*]
thermo              200
dump		     1 water custom 400 ${DIR}/prod.${NAME}.dump id type x y z vx vy vz c_3[*] c_peratom[*]
dump		     1 water custom 400 run_16/prod.${NAME}.dump id type x y z vx vy vz c_3[*] c_peratom[*]
dump		     1 water custom 400 run_16/prod.ibeam_cooling_16.dump id type x y z vx vy vz c_3[*] c_peratom[*]
run                 ${STEPS}
run                 5200000
Neighbor list info ...
  update every 1 steps, delay 0 steps, check yes
  max neighbors/atom: 2000, page size: 100000
  master list distance cutoff = 6.67472
  ghost atom cutoff = 6.67472
  binsize = 3.33736, bins = 48 13 11
  2 neighbor lists, perpetual/occasional/extra = 1 1 0
  (1) pair sw, perpetual
      attributes: full, newton on
      pair build: full/bin/atomonly
      stencil: full/bin/3d
      bin: standard
  (2) compute orientorder/atom, occasional, copy from (1)
      attributes: full, newton on
      pair build: copy
      stencil: none
      bin: none
Per MPI rank memory allocation (min/avg/max) = 6.265 | 6.913 | 7.37 Mbytes
Step c_2 Press Volume TotEng KinEng PotEng v_press c_1[4] c_4[1] c_4[2] c_4[3] 
       0    241.57886   -254.26375    216009.12   -18683.305    1404.9164   -20088.222    -523.3341    34.735456    78.748167    22.601056    25.582749 
     200    240.02152   -282.95845    216009.12   -18743.387    1395.8597   -20139.247   -597.35532     35.46496    78.747022    22.599512    25.598623 
     400    237.14822   -397.81805    216009.12   -18700.534    1379.1498   -20079.684   -1123.8479    37.125191    78.747889    22.596572    25.573091 
     600    247.93049   -135.69898    216009.12   -18564.439    1441.8547   -20006.294   -18.542484    38.317183    78.749289    22.595636     25.57216 
     800    246.28115   -414.12239    216009.12   -18543.412    1432.2629   -19975.675   -1225.7274    40.026083    78.750067    22.595823    25.566158 
    1000    234.06417   -389.82288    216009.12   -18664.711    1361.2143   -20025.925   -1033.6954    41.383803    78.751156    22.596657    25.592458 
    1200     240.3903    -443.8086    216009.12   -18601.887    1398.0043   -19999.891   -1347.2299    43.089035    78.753334    22.596293    25.594591 
    1400    237.04773   -261.10862    216009.12   -18584.071    1378.5654   -19962.636   -520.09323    44.132568    78.753288     22.59503    25.597646 
    1600    235.60874   -439.64883    216009.12   -18581.853    1370.1969    -19952.05   -1242.4232    45.594673    78.753881    22.594975    25.577673 
    1800    241.14999   -357.45698    216009.12   -18554.026    1402.4223   -19956.448   -932.18033    46.980351     78.75247    22.592905    25.573575 
    2000    242.26317   -289.53039    216009.12   -18483.734    1408.8961    -19892.63   -672.44057    48.379972    78.753138    22.591376    25.567948 
    2200    237.65559   -211.60528    216009.12   -18568.892    1382.1004   -19950.992   -331.38044    49.754229    78.754172    22.589085    25.576529 
    2400    240.96162   -322.41843    216009.12   -18530.551    1401.3268   -19931.878   -780.86072    50.347133    78.754465    22.588807    25.599041 
    2600    243.77691   -253.55878    216009.12   -18571.051    1417.6994   -19988.751   -477.83823    51.734078    78.752299    22.589623    25.576494 
    2800    243.84381   -256.64027    216009.12   -18491.652    1418.0884    -19909.74   -545.47964    53.772745    78.754302    22.590445    25.590721 
    3000    247.23913   -158.34805    216009.12    -18492.38    1437.8341   -19930.214   -95.550866    54.260253    78.754688    22.590276     25.58696 
    3200    239.98963   -284.37982    216009.12   -18559.646    1395.6742   -19955.321   -697.07966    56.480453    78.755657    22.590373    25.616191 
    3400    238.75641   -404.11442    216009.12   -18533.214    1388.5024   -19921.716   -1139.0285    58.464341    78.756597    22.588747    25.631633 
    3600    241.17899   -307.83417    216009.12   -18521.602     1402.591   -19924.193   -730.64028    60.000546    78.757869    22.587929    25.618854 
    3800    240.01892   -415.61426    216009.12   -18490.996    1395.8445    -19886.84   -1218.1972    61.702063    78.759858    22.588342    25.624638 
    4000    243.50358   -319.71687    216009.12   -18594.494    1416.1098   -20010.604   -810.79158    63.380821    78.760871    22.590124    25.620129 
    4200    248.76912   -290.98734    216009.12   -18544.377    1446.7319   -19991.109   -671.24702    65.460112    78.761565    22.590798    25.607148 
    4400    244.24823   -447.49542    216009.12   -18554.879    1420.4403    -19975.32   -1348.7102    67.121597    78.763341    22.589964    25.596703 
    4600    235.18941   -218.99925    216009.12   -18649.776    1367.7582   -20017.534   -351.56004    69.196732    78.763866    22.591407    25.607682 
    4800    243.28596   -178.19686    216009.12   -18525.429    1414.8442   -19940.273   -164.92937    70.185439    78.760658    22.589399    25.608821 
    5000     239.9395   -385.20386    216009.12    -18557.77    1395.3827   -19953.152   -1052.0384    72.428098    78.759957    22.588989    25.604217 
    5200    239.22392   -146.63289    216009.12   -18577.125    1391.2212   -19968.346   -57.019245     74.20431    78.760183    22.586969    25.611065 
    5400    235.23664   -314.77133    216009.12   -18607.102    1368.0329   -19975.135    -821.9088     77.06408    78.760951    22.586117    25.646155 
    5600    235.33671    -363.8312    216009.12   -18624.028    1368.6148   -19992.643   -1021.9385    77.810821    78.760482    22.587913    25.621213 
    5800    243.37604   -256.83746    216009.12     -18542.9     1415.368   -19958.268    -506.1996     78.84711    78.757119    22.587988    25.606978 
    6000    242.14738   -241.28552    216009.12   -18614.271    1408.2227   -20022.494   -440.26103    79.616297    78.755664    22.589417    25.604727 
    6200    234.66358   -296.83557    216009.12   -18581.261    1364.7002   -19945.962   -718.19031    80.930525    78.755569     22.59094    25.606457 
    6400    241.77827   -320.54069    216009.12   -18543.098    1406.0761   -19949.175   -792.77648    81.529628     78.75765     22.59329    25.614903 
    6600    233.14153   -298.28753    216009.12   -18596.762    1355.8487   -19952.611   -686.65331    82.665042    78.758139    22.592941    25.618162 
    6800    241.87663   -344.96862    216009.12   -18589.003    1406.6481   -19995.651   -901.20746    83.060333    78.758963    22.592326    25.622263 
    7000    239.35478   -243.69771    216009.12   -18573.723    1391.9822   -19965.705   -450.56621    84.277179    78.758984    22.593181    25.626548 
    7200    234.92819   -339.54658    216009.12   -18628.964    1366.2391   -19995.203   -839.95033    86.984656    78.758583    22.592808    25.625155 
    7400    243.95547    -231.6624    216009.12   -18617.748    1418.7378   -20036.486   -419.01628    87.029792    78.758651    22.591717    25.609266 
    7600    242.12822   -362.60884    216009.12     -18552.2    1408.1113   -19960.311   -985.65089    89.227248    78.757451    22.591409    25.603782 
    7800    237.32327   -318.49201    216009.12   -18646.373    1380.1678   -20026.541   -765.82017    89.396259    78.758697    22.590045    25.601003 
    8000    248.67733   -210.74959    216009.12   -18547.454     1446.198   -19993.652   -324.57682     91.40092    78.759055    22.588852    25.601569 
    8200    242.13828   -298.75922    216009.12   -18546.101    1408.1698   -19954.271   -696.72079    92.419311    78.759549    22.589842    25.612467 
    8400    243.80964   -455.06017    216009.12   -18529.237    1417.8897   -19947.127   -1362.2033    94.157515    78.760522    22.591837    25.589873 
    8600    240.79197   -236.88391    216009.12   -18624.374    1400.3402   -20024.714   -434.01431    96.078218    78.764394    22.590196    25.601079 
    8800    244.50778    -510.6528    216009.12   -18634.535    1421.9498   -20056.485   -1556.9608    97.221367    78.765311    22.592716    25.587433 
    9000    237.26245    -470.4884    216009.12   -18587.795    1379.8141   -19967.609   -1437.7916    98.027826    78.768907    22.594789    25.621315 
    9200    245.52149   -326.65281    216009.12   -18577.901     1427.845   -20005.746   -823.41065    99.972229    78.770599    22.595392    25.588282 
    9400    238.00471    -314.9031    216009.12   -18615.376    1384.1308   -19999.506   -751.43517    101.73545    78.769326    22.597561    25.582095 
    9600    235.80818   -547.43408    216009.12   -18635.302    1371.3567   -20006.658    -1783.063    102.23363    78.770247    22.597709    25.611253 
    9800    240.23492   -348.43612    216009.12   -18532.053    1397.1007   -19929.154   -846.90839    103.45961    78.769484    22.598754    25.599145 
   10000     235.5952   -244.42803    216009.12   -18580.502    1370.1181    -19950.62   -453.31297     105.1567    78.766785    22.597803    25.623522 
   10200    238.31822   -476.01242    216009.12   -18536.832     1385.954   -19922.786   -1464.6286    105.81016    78.764293    22.598274    25.616467 
   10400     238.8453   -293.07898    216009.12   -18507.574    1389.0193   -19896.593   -657.95334     106.0734    78.764964    22.600806    25.608845 
   10600     237.1174   -250.82699    216009.12   -18611.547    1378.9706   -19990.518   -484.14964    107.20126    78.764379    22.599196    25.625183 
   10800    239.14041   -303.64256    216009.12   -18650.858    1390.7355   -20041.593   -705.13419    108.64755    78.762058    22.598601    25.608068 
   11000    235.45744   -249.56691    216009.12   -18649.247     1369.317   -20018.564   -435.77428    109.99039    78.762527    22.599138    25.594842 
   11200    234.95123   -192.48615    216009.12   -18613.241    1366.3731   -19979.614   -211.51679     111.4555    78.761515    22.597779    25.588666 
   11400    242.39768   -325.42959    216009.12   -18569.666    1409.6784   -19979.344   -826.15805    113.60615    78.760493    22.599475    25.558294 
   11600    244.33943   -191.53664    216009.12   -18526.917    1420.9707   -19947.888   -226.44708    115.27104    78.759859    22.599495     25.57768 
   11800    239.92834   -388.77981    216009.12   -18537.355    1395.3177   -19932.673   -1081.6324    116.87218    78.761208     22.59805    25.538748 
   12000    240.54402   -481.59344    216009.12   -18527.625    1398.8983   -19926.523   -1481.4705    118.71839    78.759446    22.598385    25.554283 
   12200    233.95279   -293.99099    216009.12   -18546.615    1360.5666   -19907.182   -728.39181    119.65159    78.760841    22.598092    25.545487 
   12400     238.9837   -350.81445    216009.12   -18588.396    1389.8242    -19978.22   -935.74515    121.69453    78.760762    22.598149    25.546296 
   12600    247.67387    -319.9024    216009.12    -18512.68    1440.3624   -19953.043   -781.80116    123.42301    78.762248     22.59973      25.5637 
   12800    237.90781   -299.81257    216009.12   -18543.273    1383.5673    -19926.84   -717.04638    124.00606    78.761187    22.602017    25.565759 
   13000    244.08917   -242.06687    216009.12   -18572.879    1419.5153   -19992.395   -474.33854    124.45425    78.759374    22.598816    25.556365 
   13200    239.14677   -315.46955    216009.12   -18607.276    1390.7725   -19998.049   -764.14927    125.12374    78.760848    22.600136    25.566203 
   13400    236.85394   -309.13926    216009.12   -18650.628    1377.4384   -20028.066   -737.31416    126.62005    78.761432    22.600452    25.569729 
   13600    229.25344   -234.17528    216009.12   -18626.372    1333.2372   -19959.609   -394.28452    128.59918    78.759851    22.600587    25.569814 
   13800    241.94108   -186.90266    216009.12    -18570.37    1407.0229   -19977.393   -256.75536     128.1195    78.759199    22.601076    25.582663 
   14000    245.24762   -212.94417    216009.12   -18497.937    1426.2523    -19924.19   -350.76447    129.24873    78.757952    22.603245    25.592971 
   14200    240.99681   -174.13373    216009.12    -18560.63    1401.5315   -19962.161   -215.04016    130.38676    78.756371    22.604065    25.591578 
   14400    237.62796   -272.05317    216009.12   -18611.501    1381.9398   -19993.441   -576.78255    131.90018    78.755946    22.606057    25.588746 
   14600    244.35775   -531.90903    216009.12   -18602.077    1421.0773   -20023.154   -1700.2922    132.96597    78.756351    22.605418    25.616507 
   14800    243.17238   -271.89687    216009.12   -18569.893    1414.1837   -19984.077   -564.49511    133.17307    78.756413    22.604033    25.606384 
   15000    244.23157   -324.69369    216009.12   -18571.718    1420.3435   -19992.062   -828.55467    135.87269    78.757187    22.604599    25.624271 
   15200    241.48748   -334.66142    216009.12   -18556.988     1404.385   -19961.373   -835.42396    136.48941    78.755208    22.606353    25.623068 
   15400    236.64085   -357.32957    216009.12   -18615.004    1376.1992   -19991.203   -920.86847    137.44469    78.754877    22.607595    25.626292 
   15600    252.95045   -216.00788    216009.12    -18484.65    1471.0486   -19955.699   -338.35395    137.42874    78.755544    22.607169    25.654308 
   15800    242.55579   -481.40037    216009.12   -18536.435    1410.5979   -19947.033   -1434.8936    139.74303    78.759028    22.606293     25.66335 
   16000    240.22206   -387.82256    216009.12   -18596.847    1397.0259   -19993.873   -1062.5848    140.25636    78.759763    22.607771    25.649908 
   16200     243.5794   -375.64695    216009.12   -18576.728    1416.5507   -19993.279   -1012.3732    142.64893    78.758253    22.607525    25.648371 
   16400    238.59769   -516.76293    216009.12   -18612.563    1387.5793   -20000.142   -1627.3415    144.51568     78.75855     22.60857    25.657661 
   16600    240.72738   -468.22538    216009.12   -18550.035    1399.9646   -19949.999   -1385.0761    145.90999    78.761463    22.609516    25.661758 
   16800    243.86265   -291.50774    216009.12   -18592.645     1418.198   -20010.843   -628.46683    146.43117    78.761834    22.609695    25.637065 
   17000    235.10731   -294.06814    216009.12   -18618.486    1367.2808   -19985.766   -682.50436    147.40618    78.761627    22.609521    25.614644 
   17200    235.89693   -451.18082    216009.12    -18613.52    1371.8729   -19985.393   -1345.0392    149.44375    78.761173    22.609127    25.604165 
   17400    239.14466   -378.54317    216009.12   -18681.958    1390.7602   -20072.718   -1042.6775    152.37282    78.759526    22.607976    25.594006 
   17600    237.93186   -537.01833    216009.12   -18626.249    1383.7071   -20009.956   -1720.2067    154.60362    78.757286    22.606264    25.583156 
   17800    231.07597   -228.08623    216009.12   -18645.511    1343.8363   -19989.348   -418.82789    155.32903    78.757241     22.60826    25.594477 
   18000    238.16573    -381.2573    216009.12   -18573.216    1385.0672   -19958.283   -1089.7836    155.41266    78.756398    22.607592    25.590541 
   18200    238.62664   -442.50717    216009.12   -18621.348    1387.7477   -20009.096   -1356.9883    156.22411    78.756199    22.606176     25.60431 
   18400     239.0245   -355.49431    216009.12   -18601.084    1390.0614   -19991.146   -930.06524    158.07525    78.756104    22.606248    25.577403 
   18600    245.33123   -209.79778    216009.12   -18580.026    1426.7386   -20006.765   -359.61029    159.13458    78.756496    22.607531    25.596272 
   18800    235.29122   -517.71883    216009.12   -18621.682    1368.3503   -19990.032   -1662.1574    161.05119    78.757979    22.608339    25.582235 
   19000    246.22765   -347.66543    216009.12   -18569.689    1431.9518   -20001.641   -907.79005    163.60414    78.760796    22.608127     25.60296 
   19200    242.29495   -228.93275    216009.12   -18601.263    1409.0809   -20010.344   -392.58211    164.62626    78.759023    22.604215    25.627538 
   19400    243.54221   -429.76265    216009.12   -18566.491    1416.3344   -19982.825   -1274.7347    166.26815    78.762211    22.602577    25.637606 
   19600    242.81962   -87.569905    216009.12   -18566.734    1412.1322   -19978.867    209.86806    168.09635    78.761294     22.60122    25.611719 
   19800    243.19369   -297.06912    216009.12   -18561.417    1414.3076   -19975.725   -677.08031    170.72739    78.760349     22.60131    25.586117 
   20000    242.92632   -292.85721    216009.12   -18559.911    1412.7527   -19972.664   -668.08397    172.26045    78.758778    22.601865    25.582206 
   20200    238.32609    -229.2352    216009.12   -18626.112    1385.9997   -20012.112   -393.55002     171.6604    78.756294    22.601423    25.596157 
   20400    246.39343   -92.365422    216009.12   -18517.397    1432.9159   -19950.313    162.78853    173.43987    78.758341    22.598902    25.586228 
   20600    233.10736   -307.04143    216009.12   -18585.278    1355.6499   -19940.927   -743.73414    175.52622    78.757572    22.601113    25.570109 
   20800    248.54703   -129.50726    216009.12   -18517.482    1445.4403   -19962.922    90.447625     176.8541    78.756888    22.603749    25.550031 
   21000    246.49317   -358.13347    216009.12   -18565.451    1433.4959   -19998.947   -937.23806    176.88437    78.756149    22.602902    25.550851 
   21200    239.41065   -292.19408    216009.12   -18551.113    1392.3071    -19943.42   -650.28953    177.46763     78.75869    22.603469    25.566218 
   21400    243.79954   -277.60603    216009.12   -18551.863     1417.831   -19969.694   -617.95114    179.34044    78.759217     22.60572    25.572022 
   21600    253.12103   -219.60472    216009.12   -18449.011    1472.0406   -19921.052   -349.85892    181.15532    78.760131    22.607449    25.574404 
   21800     240.4656    -361.4519    216009.12   -18581.147    1398.4422   -19979.589   -958.79361    182.77146    78.762353    22.608217    25.571498 
   22000    237.92942   -370.51495    216009.12   -18631.732    1383.6929   -20015.425   -1007.5946     185.2484    78.763167    22.609579    25.584638 
   22200     235.3194   -309.11965    216009.12   -18680.365    1368.5142   -20048.879   -756.66817    186.34916    78.762927    22.612551     25.58908 
   22400    242.91782   -449.11913    216009.12   -18543.309    1412.7033   -19956.012   -1368.1018    189.08265    78.763061    22.612834    25.593403 
   22600    243.29823   -136.05669    216009.12   -18573.161    1414.9156   -19988.077    5.1260619    190.71491    78.764987    22.611755    25.606041 
   22800    244.03821   -338.17418    216009.12   -18552.815     1419.219   -19972.034   -835.14367    190.83829    78.765489    22.612787    25.602767 
   23000    239.42199   -267.39242    216009.12   -18615.726     1392.373   -20008.099   -542.62943    192.80576     78.76626     22.61124    25.606986 
   23200    248.09599   -465.12205    216009.12    -18566.42    1442.8172   -20009.237    -1392.536     192.8514     78.76699    22.609767    25.611068 
   23400    238.62116    -292.4104    216009.12   -18595.648    1387.7157   -19983.364   -702.42252    193.34861    78.766717     22.61009    25.628712 
   23600    241.30206   -264.36708    216009.12   -18510.748    1403.3067   -19914.055   -526.68871    194.89315    78.765794    22.610672    25.617428 
   23800    241.82767   -251.06033    216009.12   -18521.114    1406.3634   -19927.477   -547.48682    196.49978    78.766876     22.60931    25.625113 
   24000    242.81643   -313.75215    216009.12   -18538.148    1412.1136   -19950.262   -734.39703    197.46179     78.76725    22.607446    25.606151 
   24200     238.6972   -272.97447    216009.12   -18530.327     1388.158   -19918.485   -606.35644    198.46935    78.768882    22.607532    25.594879 
   24400      235.909   -211.11636    216009.12   -18590.012     1371.943   -19961.955   -294.93799    200.24129    78.769358    22.607857    25.595868 
   24600    229.30081   -326.49119    216009.12   -18578.327    1333.5127    -19911.84   -833.61784    201.66015    78.770005    22.607634    25.587315 
   24800    238.05588     -429.061    216009.12   -18576.878    1384.4284   -19961.307   -1240.7729    203.53481    78.771392    22.606527    25.579364 
   25000     237.5164   -313.02695    216009.12   -18595.034     1381.291   -19976.325   -759.98562    204.25286    78.772843    22.608453    25.590516 
   25200     233.1978   -316.20624    216009.12   -18704.676    1356.1759   -20060.852   -788.97367    204.61733    78.772878    22.606836    25.576455 
   25400     242.0165   -371.26508    216009.12   -18640.446    1407.4616   -20047.908   -957.12051    205.78015    78.773619     22.60815    25.548081 
   25600    249.96722   -245.63178    216009.12   -18510.107    1453.6995   -19963.807   -501.46679    206.85538    78.772478    22.610172    25.565452 
   25800    244.90915   -368.00842    216009.12   -18546.936    1424.2839    -19971.22   -956.99644    208.22297    78.773246    22.611194    25.553607 
   26000    244.43124   -307.32492    216009.12   -18561.951    1421.5047   -19983.456   -744.12849    208.32779    78.772533    22.610853    25.562958 
   26200    231.16069   -436.30487    216009.12   -18575.213     1344.329   -19919.542   -1234.5592    209.52373    78.771562    22.611018    25.540875 
   26400    238.39754   -241.06001    216009.12   -18629.737    1386.4153   -20016.152   -437.28338    210.19337      78.7709    22.608251    25.544235 
   26600    243.04499   -366.38023    216009.12   -18577.322    1413.4428   -19990.764   -984.09296    212.28695    78.771044    22.608853    25.549596 
   26800    241.73816   -402.20012    216009.12   -18597.642    1405.8429   -20003.485   -1136.5857    213.39244    78.771869    22.605015    25.525908 
   27000    248.48372   -301.32684    216009.12   -18536.473    1445.0721   -19981.545   -697.54574    212.31807    78.769704    22.603115    25.527826 
   27200     245.9054   -529.74859    216009.12   -18593.045    1430.0777   -20023.123   -1690.9591    212.86255    78.770573    22.602007    25.478438 
   27400    240.94433   -337.46943    216009.12   -18541.009    1401.2263   -19942.235   -852.19516    214.36876    78.771482    22.596793    25.505763 
   27600    232.70757   -215.70985    216009.12   -18660.234    1353.3249   -20013.558   -298.16215    214.70645    78.771206    22.595036    25.519887 
   27800    242.88141   -206.76128    216009.12   -18582.969    1412.4915   -19995.461   -241.70026    216.51303    78.772698      22.5939    25.524754 
   28000    242.13088   -244.76821    216009.12   -18663.368    1408.1268   -20071.494   -455.66785    217.45628    78.770936    22.593129      25.5678 
   28200    238.29967    -239.3383    216009.12   -18615.774    1385.8461    -20001.62   -449.77254    218.38552    78.770895    22.592244    25.578497 
   28400    237.46451   -340.48062    216009.12   -18614.332    1380.9892   -19995.321    -881.0708    221.38681    78.770752     22.59125    25.590402 
   28600    238.49155   -359.62789    216009.12   -18614.812     1386.962   -20001.774   -994.13922    222.47198    78.771482    22.588985    25.595985 
   28800    244.94083   -386.89449    216009.12   -18584.191    1424.4682   -20008.659   -1078.2483    223.47046    78.770386    22.589379    25.593425 
   29000    244.53571   -288.37714    216009.12   -18558.386    1422.1122   -19980.498   -673.58642    223.69403    78.772799    22.590299    25.589211 
   29200    241.39239   -243.03357    216009.12   -18505.155     1403.832   -19908.987   -478.60515    225.10146    78.774764    22.591813    25.600114 
   29400    241.01758   -399.84332    216009.12   -18528.968    1401.6523    -19930.62   -1104.3588    224.63281    78.772188    22.593301    25.553475 
   29600     240.6777   -279.85593    216009.12   -18549.744    1399.6757   -19949.419   -589.61125    226.09827    78.773881    22.594619     25.56363 
   29800    237.95075   -193.18434    216009.12   -18626.754     1383.817   -20010.571   -223.54119    227.28231    78.775026     22.59684    25.547163 
   30000    238.86569   -338.56371    216009.12   -18655.321    1389.1379   -20044.459   -881.21274    228.36603    78.774143     22.59864    25.556636 
   30200    239.29721   -395.68032    216009.12   -18631.961    1391.6474   -20023.608    -1092.237    228.69145    78.775529     22.60093    25.553925 
   30400      238.632   -230.24701    216009.12   -18622.432    1387.7788   -20010.211   -396.37794    230.00672    78.774565    22.604646    25.566462 
   30600    236.68935   -429.82819    216009.12   -18680.025    1376.4812   -20056.506   -1279.7737    231.78665    78.775093    22.603332    25.561131 
   30800    234.44829   -379.30666    216009.12   -18635.243    1363.4482   -19998.691   -1062.0443    233.32432    78.774892     22.60241    25.577279 
   31000    240.86454    -280.4391    216009.12   -18622.348    1400.7623    -20023.11   -591.07171    237.03665    78.775793    22.601213    25.605342 
   31200    246.55217   -136.85347    216009.12   -18606.352    1433.8391   -20040.191    1.9432042    237.51094     78.77429    22.601216    25.613411 
   31400    237.88106   -273.01585    216009.12    -18593.86    1383.4117   -19977.271    -619.2643    237.98603    78.774722    22.601069    25.605444 
   31600    233.94754   -419.18076    216009.12   -18572.706     1360.536   -19933.242   -1190.8311    239.69125    78.774215    22.601831    25.589589 
   31800    245.10031   -296.17799    216009.12   -18510.566    1425.3957   -19935.962   -728.45797     238.6752    78.776063      22.6046    25.609444 
   32000    227.70888   -425.87175    216009.12   -18625.848    1324.2548   -19950.103   -1243.1217    240.58967    78.774229    22.605091    25.612392 
   32200    237.24645   -211.60221    216009.12   -18606.907    1379.7211   -19986.628   -302.13967    242.02499    78.772892    22.607575    25.596159 
   32400    234.67664   -522.14897    216009.12   -18625.077    1364.7762   -19989.853   -1655.1919    246.05484    78.771278    22.608727    25.588763 
   32600    243.64988   -257.83474    216009.12   -18562.463    1416.9606   -19979.424   -572.65327    246.61637     78.77169    22.610471    25.612053 
   32800    241.28806   -186.93042    216009.12    -18568.91    1403.2253   -19972.135   -224.29489    249.06268    78.770624    22.612029    25.623409 
   33000    246.84207   -244.62516    216009.12   -18570.751    1435.5249   -20006.276   -466.84102     250.0156    78.770886    22.610145    25.629279 
   33200    235.27403   -284.80845    216009.12   -18612.735    1368.2504   -19980.985   -637.54659    251.38498    78.771266    22.609845    25.607694 
   33400    234.89461    -246.7192    216009.12     -18654.9    1366.0438   -20020.943   -482.03656    253.56534    78.773857    22.610485    25.602058 
   33600    235.36308   -132.38516    216009.12   -18662.099    1368.7682   -20030.867    36.554266    254.51134    78.773414    22.613327    25.608976 
   33800    246.59749   -313.96905    216009.12   -18531.814    1434.1026   -19965.916   -758.62878    255.37409    78.772941     22.61318    25.598847 
   34000    236.37594   -342.47084    216009.12   -18625.114    1374.6586   -19999.773   -899.93882    256.88293    78.774808    22.612525    25.602968 
   34200    240.58672   -359.18763    216009.12   -18591.782    1399.1466   -19990.928   -967.15746    256.53791    78.774661    22.614359    25.620749 
   34400     238.1473   -297.15126    216009.12   -18623.268      1384.96   -20008.228   -714.08429      257.512    78.775025    22.614549    25.609781 
   34600    250.49325   -283.13921    216009.12   -18518.959    1456.7586   -19975.718   -667.41485    259.20083    78.775176    22.612773    25.576901 
   34800    238.61059   -343.15383    216009.12   -18617.661    1387.6543   -20005.316   -874.97741    261.46063    78.774997    22.612115     25.56364 
   35000    236.27213   -350.23751    216009.12    -18663.86    1374.0549   -20037.915   -913.03003     262.1698    78.774672    22.611612    25.579095 
   35200    242.80049    -101.1277    216009.12   -18583.555    1412.0209   -19995.576    115.52934    263.02145    78.774406    22.613098    25.585023 
   35400    247.82607   -305.04702    216009.12   -18618.997    1441.2475   -20060.245   -707.09702    266.28936    78.774653    22.613025    25.567348 
   35600    240.51353   -306.66009    216009.12   -18656.034     1398.721   -20054.755   -719.33907    266.66963    78.777501    22.611902    25.567415 
   35800     247.7293   -359.12847    216009.12   -18594.134    1440.6847   -20034.818   -989.17125     266.9892    78.776924    22.613007     25.55255 
   36000    229.86904   -230.29282    216009.12   -18689.419    1336.8173   -20026.237   -438.15695    267.16031    78.778612    22.611278    25.556442 
   36200     238.5337   -483.07611    216009.12   -18651.358    1387.2071   -20038.565   -1473.5601    268.50787    78.778058     22.60942    25.554294 
   36400    240.65822   -367.61143    216009.12   -18629.905    1399.5624   -20029.467   -934.71315    268.01403    78.776696    22.609678    25.581164 
   36600    236.91096   -225.92078    216009.12   -18628.143      1377.77   -20005.913   -361.34412    266.94173    78.777418    22.610864     25.57444 
   36800    234.05264   -391.93199    216009.12   -18678.087    1361.1473   -20039.234   -1068.3606    265.86358    78.779157     22.61078    25.567591 
   37000    240.60488   -323.42439    216009.12   -18646.002    1399.2522   -20045.254    -795.1229    266.52265    78.777325    22.610407    25.563301 
   37200    237.87349   -210.02977    216009.12   -18664.671    1383.3676   -20048.038    -304.2889    266.24711    78.776376    22.610165    25.562786 
   37400    238.16767   -324.88466    216009.12   -18631.524    1385.0785   -20016.602   -827.36519    266.86048     78.77586    22.608988    25.570451 
   37600    237.83204   -318.36009    216009.12   -18645.053    1383.1266   -20028.179   -767.02409    269.23606    78.777358    22.608582    25.562383 
   37800    243.76561   -322.56986    216009.12   -18702.697    1417.6336    -20120.33   -787.80618    269.11757    78.776935    22.607206    25.568611 
   38000    238.72333   -427.92304    216009.12   -18599.665    1388.3099   -19987.975   -1233.3089    269.97928    78.775234    22.606606    25.595786 
   38200    232.83586   -231.60503    216009.12   -18599.955     1354.071   -19954.026   -353.23342    270.72797    78.773745    22.604435    25.576875 
   38400    243.03985   -341.85583    216009.12   -18580.584    1413.4129   -19993.996   -891.44078    273.38908    78.774263    22.604094    25.585572 
   38600    240.08914   -241.48046    216009.12    -18613.16    1396.2529   -20009.413   -423.16158    273.62377    78.772227    22.605013     25.58558 
   38800    240.66589   -222.63125    216009.12   -18611.459     1399.607   -20011.066   -416.12931    274.42111    78.770088      22.6037    25.571361 
   39000    241.95047   -320.25375    216009.12   -18552.982    1407.0776   -19960.059   -817.29105    275.39594    78.769379    22.606192    25.565327 
   39200    235.85824   -396.14826    216009.12   -18657.113    1371.6479    -20028.76   -1096.5116    277.35692    78.768018    22.606738    25.567353 
   39400    239.46229   -286.77405    216009.12   -18617.662    1392.6074   -20010.269    -680.8225    276.65324    78.766837    22.607481    25.577119 
   39600     245.2677   -357.36255    216009.12   -18578.527    1426.3691   -20004.897   -914.11351     277.8882    78.765637    22.606083    25.581682 
   39800    238.90488   -313.74559    216009.12   -18640.495    1389.3658   -20029.861   -738.33709    278.61978    78.765725    22.607029    25.596902 
   40000    247.60603   -215.04619    216009.12   -18579.085    1439.9678   -20019.053   -368.42437    278.71663    78.765347    22.608322     25.57614 
   40200    238.76444   -405.81541    216009.12   -18577.535     1388.549   -19966.085   -1162.8693    280.40322    78.767199    22.606984    25.577108 
   40400    236.66639   -300.59844    216009.12   -18616.953    1376.3477   -19993.301   -748.02091    281.65807    78.767077    22.606835    25.571261 
   40600     242.7132   -318.88259    216009.12   -18533.988    1411.5132   -19945.501   -777.43259    282.68306    78.765297    22.606768    25.565544 
   40800    236.33604   -305.91675    216009.12   -18604.676    1374.4265   -19979.102   -740.79409    285.32146    78.764094    22.607033    25.549743 
   41000    240.04048   -225.34764    216009.12    -18555.96    1395.9699    -19951.93   -415.88939    286.61074    78.764084    22.607765     25.55887 
   41200     242.8172   -267.32892    216009.12   -18514.815    1412.1181   -19926.933   -604.10887    288.35714    78.765572    22.608411    25.555223 
   41400     237.2382   -384.94049    216009.12   -18567.849    1379.6731   -19947.522   -1021.3189    289.08638    78.765298    22.609351    25.567319 
   41600    246.41371   -238.47915    216009.12   -18566.047    1433.0338    -19999.08   -459.00838    289.94664    78.765358    22.609725    25.576014 
   41800    239.72625   -333.51294    216009.12   -18593.488    1394.1425    -19987.63   -857.53386    291.17459    78.764484     22.61147    25.567859 
   42000    242.24581   -265.46657    216009.12   -18643.383    1408.7951   -20052.178   -562.37299    292.07982    78.762854    22.615267    25.556054 
   42200    233.06302   -425.65834    216009.12   -18655.843    1355.3921   -20011.235   -1216.5047    292.56311    78.763064     22.61669     25.52921 
   42400    235.80644   -241.41017    216009.12   -18630.772    1371.3466   -20002.119   -386.84283    292.39365    78.763112    22.614958    25.515706 
   42600    236.83268   -349.40949    216009.12   -18631.076    1377.3148    -20008.39   -853.48955    293.78981    78.763214    22.613696    25.501089 
   42800    242.98235   -381.30425    216009.12   -18617.431    1413.0785   -20030.509   -1035.2708    294.89113    78.761453    22.612378    25.495878 
   43000    238.28704   -279.26337    216009.12   -18624.235    1385.7727   -20010.008   -559.49792    295.61612    78.760303    22.612074    25.505319 
   43200    241.37076   -204.52211    216009.12   -18604.979    1403.7062   -20008.685   -338.92358    296.47421    78.759877    22.610632    25.528182 
   43400    242.75629   -273.77259    216009.12   -18618.932    1411.7638   -20030.695    -553.6355    298.57878    78.761097    22.609585    25.538797 
   43600    235.71801   -206.12213    216009.12   -18613.692    1370.8323   -19984.524   -299.10776    300.29546    78.759909    22.605638    25.528457 
   43800    240.19751   -535.74956    216009.12    -18666.62    1396.8831   -20063.503   -1675.9182    301.73989    78.757045    22.606351    25.534384 
   44000    235.05097   -309.58872    216009.12   -18677.194    1366.9531   -20044.147   -716.76992    302.50025     78.75684    22.605259    25.540126 
   44200    240.03811   -224.88481    216009.12   -18628.588    1395.9562   -20024.544   -365.73279    303.89917    78.759951    22.603946    25.535556 
   44400    236.45403   -316.53907    216009.12   -18647.058    1375.1127   -20022.171   -752.90908    306.57069    78.762648    22.603597      25.5423 
   44600    231.48105    -203.5927    216009.12    -18631.92     1346.192   -19978.112   -267.39472    304.78408     78.76252    22.605931    25.531086 
   44800    242.85276     -339.685    216009.12   -18636.154    1412.3249   -20048.479   -833.58243    306.09452    78.760983    22.604028    25.532627 
   45000    242.65196   -221.79805    216009.12    -18614.55    1411.1571   -20025.707   -364.87735    305.48021    78.759688    22.604213    25.524235 
   45200    243.75807   -252.25175    216009.12   -18553.688    1417.5898   -19971.278    -449.0756    307.65468    78.757504    22.602531     25.51842 
   45400    240.88715   -297.79889    216009.12   -18636.717    1400.8938   -20037.611   -689.61495     307.8419    78.756696    22.601238    25.543824 
   45600    247.20793   -261.95502    216009.12   -18563.178    1437.6527    -20000.83   -567.15254    309.94227    78.756786    22.601292    25.535744 
   45800    244.02321   -368.26003    216009.12   -18634.385    1419.1317   -20053.517   -998.94064    310.60029    78.759705    22.602905     25.54459 
   46000    244.35955   -368.56339    216009.12   -18564.093    1421.0877   -19985.181   -986.91827    311.96465    78.761448    22.601173    25.556187 
   46200    235.91699   -422.99174    216009.12    -18549.17    1371.9895    -19921.16   -1232.3055    314.08406    78.763596     22.59702    25.555202 
   46400    238.36937   -273.78371    216009.12   -18588.846    1386.2515   -19975.097   -577.87983    315.74457    78.763611    22.596133    25.560051 
   46600    239.52805   -293.98244    216009.12   -18566.404    1392.9898   -19959.394   -693.77169    317.21484    78.761018    22.595241    25.572696 
   46800    238.48135   -196.31398    216009.12   -18544.542    1386.9027   -19931.444   -240.70533    318.74389     78.76046    22.593595    25.560424 
   47000    238.25313   -329.68516    216009.12   -18533.187    1385.5755   -19918.763   -848.18192     318.9555     78.75976    22.592641    25.560609 
   47200    232.30149   -266.81942    216009.12   -18638.133    1350.9633   -19989.096   -569.74172    318.35467    78.759996    22.594476    25.568794 
   47400    241.48409   -495.98558    216009.12   -18557.591    1404.3653   -19961.956   -1509.9446    320.31021    78.761156     22.59366     25.58112 
   47600    237.31321   -345.92688    216009.12   -18591.956    1380.1093   -19972.065   -940.44173    321.70753    78.758434    22.593361      25.5676 
   47800    234.08675    -293.3484    216009.12   -18530.386    1361.3456   -19891.732   -637.24239    322.90689    78.757991    22.593691    25.575867 
   48000     235.3733   -349.92388    216009.12   -18533.817    1368.8277   -19902.645   -934.81899    323.85407    78.759474    22.594882     25.57439 
   48200    242.84638   -309.42881    216009.12   -18554.846    1412.2878   -19967.134   -808.78148    324.10141    78.759099    22.594752    25.567769 
   48400    246.56463   -324.74636    216009.12   -18567.534    1433.9115   -20001.446   -843.06182    325.53023    78.757888    22.592563    25.565794 
   48600    234.03838   -387.39483    216009.12    -18635.09    1361.0643   -19996.154   -1076.5873    325.98633    78.756649    22.590392    25.565314 
   48800    234.67888   -322.82453    216009.12   -18582.099    1364.7892   -19946.888   -766.49561    327.41062    78.754732    22.592028    25.577643 
   49000    238.12067   -279.20261    216009.12   -18575.997    1384.8052   -19960.802   -617.69477    329.27911    78.754135    22.590248    25.576587 
   49200    247.00588   -231.14289    216009.12   -18546.341    1436.4776   -19982.818   -368.62162    329.53795    78.753933    22.588522    25.567536 
   49400    244.15187   -318.77331    216009.12    -18596.33      1419.88    -20016.21   -771.36921    329.11857    78.754765    22.587406    25.563116 
   49600    234.85942   -280.81091    216009.12   -18562.612    1365.8391   -19928.452   -610.85298    330.23894    78.755856    22.586559    25.553936 
   49800    238.29245    -236.1086    216009.12   -18579.085    1385.8041   -19964.889    -436.3613    331.66838    78.754532    22.587212    25.523408 
   50000    235.37805   -171.36468    216009.12   -18586.011    1368.8553   -19954.866   -148.83015    333.27227    78.755023    22.589325    25.534384 
   50200    240.73336   -284.37876    216009.12   -18526.482    1399.9994   -19926.481   -643.67958    336.03341     78.75359    22.586884    25.536006 
   50400    243.04838   -377.91498    216009.12   -18584.914    1413.4625   -19998.377   -1008.0044    338.57596    78.751784    22.583317    25.547481 
   50600     247.5867   -300.33029    216009.12   -18522.747    1439.8554   -19962.602   -703.29901    338.98982    78.752778    22.584305    25.542658 
   50800    237.76628   -290.01055    216009.12   -18685.864    1382.7442   -20068.608   -658.66195     340.4586    78.754051    22.584735    25.535042 
   51000    240.36984   -261.14798    216009.12   -18662.396    1397.8853   -20060.281    -523.9861    339.55985     78.75329    22.585425    25.541534 
   51200    237.89898   -333.74966    216009.12   -18672.807    1383.5159   -20056.323   -870.10345    341.69229    78.754584    22.586628     25.54735 
   51400    241.15666    -172.4486    216009.12   -18646.308    1402.4611   -20048.769   -181.08793    342.08367     78.75545    22.586977    25.539366 
   51600    241.31017   -295.10061    216009.12   -18660.247    1403.3539     -20063.6   -720.28045     342.1165    78.753115    22.585397    25.548522 
   51800    239.33096   -269.82807    216009.12   -18577.564    1391.8437   -19969.408   -600.56012    343.35097    78.751594    22.584639    25.540924 
   52000    229.48105   -296.81937    216009.12   -18657.271    1334.5609   -19991.832   -706.14265    344.89642    78.751929    22.581503    25.551157 
   52200    230.27676   -332.92592    216009.12   -18683.828    1339.1884   -20023.016   -833.78722    345.66524    78.751492    22.580095    25.561503 
   52400    234.65728   -345.59928    216009.12   -18719.678    1364.6636   -20084.341   -912.67606    346.19123    78.751631    22.580027     25.54495 
   52600    238.83487   -337.60856    216009.12   -18642.362    1388.9586    -20031.32   -829.25286    348.68855    78.753596    22.578526    25.552692 
   52800    248.40534   -315.23055    216009.12   -18543.722    1444.6163   -19988.338   -748.44112    349.09136    78.751842    22.578517     25.56115 
   53000    243.20043   -324.07031    216009.12   -18540.427    1414.3468   -19954.773   -810.49944    350.41841    78.750695    22.579106    25.567315 
   53200    240.92584   -216.84158    216009.12   -18628.531    1401.1188    -20029.65   -306.68073    350.09254    78.747085    22.582031    25.577637 
   53400    242.47235   -346.82888    216009.12   -18631.929    1410.1126   -20042.041   -966.37612    350.48708    78.746527    22.583635    25.576186 
   53600    231.48836   -343.49138    216009.12   -18705.268    1346.2346   -20051.502   -877.28348    353.21663    78.745068    22.586047    25.569625 
   53800    235.22252   -261.99172    216009.12    -18658.56    1367.9508   -20026.511   -485.06537    354.71862     78.74577    22.585685    25.547922 
   54000    242.30548   -275.87036    216009.12   -18614.233    1409.1422   -20023.375   -522.78656    357.13112    78.744653    22.584806    25.572386 
   54200    234.63358   -299.61154    216009.12   -18578.507    1364.5257   -19943.033   -730.46307    359.49299    78.747564      22.5868     25.57972 
   54400    248.40644   -286.55348    216009.12   -18537.169    1444.6227   -19981.792   -659.01626    360.95751    78.747944      22.5883    25.573481 
   54600    245.45758    -301.5605    216009.12   -18563.224    1427.4734   -19990.698   -683.15606    362.64994    78.750304    22.586156    25.585632 
   54800    240.80923   -296.14983    216009.12   -18574.038    1400.4406   -19974.478   -655.12259     361.6916    78.750879    22.585034    25.590503 
   55000    244.10392   -296.53968    216009.12   -18548.149    1419.6011    -19967.75   -717.64406    363.56937     78.75057    22.581867    25.594652 
   55200    230.07636   -374.56434    216009.12   -18728.493     1338.023   -20066.516    -1041.422     364.1195     78.74836    22.581274    25.584234 
   55400    234.61961    -259.4614    216009.12   -18660.984    1364.4445   -20025.428   -546.19226    364.72194    78.748293    22.580514    25.598855 
   55600    242.82447    -321.9161    216009.12   -18636.102    1412.1604   -20048.263     -787.367    365.11692    78.748726    22.581363    25.617646 
   55800    247.17603    -396.3403    216009.12   -18534.296    1437.4671   -19971.764   -1166.4042    367.41503    78.749002     22.58007    25.623069 
   56000    241.32478   -339.38752    216009.12   -18582.549    1403.4389   -19985.988   -915.41845    368.22457    78.749414    22.578796    25.627387 
   56200     244.0665   -191.55674    216009.12   -18545.172    1419.3834   -19964.555   -259.13995    369.15889    78.750598    22.579006     25.63877 
   56400    237.18437   -384.02815    216009.12    -18628.59      1379.36    -20007.95   -1076.4302    370.03546    78.751249    22.581293    25.616524 
   56600    228.60497   -263.25062    216009.12    -18696.96     1329.466   -20026.426   -589.89475    369.98193    78.750957    22.580923    25.608973 
   56800    241.65364   -281.88661    216009.12   -18620.175    1405.3513   -20025.526    -588.6837    372.97848    78.749297    22.582428    25.634332 
   57000    240.88809   -334.37728    216009.12   -18680.699    1400.8992   -20081.598   -869.25247    374.94159    78.749424    22.583449    25.631308 
   57200    237.22273    -200.3924    216009.12   -18598.248    1379.5831   -19977.831   -305.28904    376.44573    78.748277    22.584154    25.622618 
   57400    237.62986   -381.98726    216009.12   -18626.523    1381.9508   -20008.473   -1056.9435     377.1805    78.747151    22.583558    25.632482 
   57600    231.42611   -273.92118    216009.12   -18669.944    1345.8725   -20015.816   -603.37168    377.65181    78.746345    22.583512     25.65998 
   57800    242.89792   -287.18344    216009.12   -18589.366    1412.5875   -20001.953   -603.48023    380.11012    78.746718    22.580689    25.662953 
   58000    248.36648   -236.68149    216009.12   -18603.921    1444.3903   -20048.312   -418.30042    381.93505      78.7468    22.579442    25.672953 
   58200    244.86586    -338.1286    216009.12   -18566.362    1424.0322   -19990.394   -823.18475    383.59193    78.745869    22.578486    25.644035 
   58400    234.06537   -263.82144    216009.12   -18595.338    1361.2213    -19956.56   -512.31967    384.83908    78.744773    22.576966    25.649801 
   58600    237.81438   -404.21656    216009.12    -18603.41    1383.0239   -19986.434   -1185.6005    387.45236    78.741139    22.575316    25.668492 
   58800    245.38345   -313.47266    216009.12   -18595.455    1427.0423   -20022.498   -753.34189    387.42298    78.738553    22.573518    25.662711 
   59000    247.77234    -357.5316    216009.12   -18550.583     1440.935   -19991.518   -931.06895    390.16594    78.734632    22.572293    25.638189 
   59200    237.62353   -217.14302    216009.12   -18604.871     1381.914   -19986.785   -361.14225     392.7802    78.733339    22.571849      25.6308 
   59400    237.45786   -348.42487    216009.12   -18609.562    1380.9505   -19990.512   -939.89455    393.87567    78.731466    22.572013     25.60683 
   59600     231.8348   -351.48471    216009.12   -18657.713    1348.2493   -20005.962   -887.81908     394.8618    78.732954    22.570226    25.608767 
   59800    239.58302   -121.61416    216009.12   -18610.442    1393.3095   -20003.751    27.189611    396.96726    78.733919    22.570948    25.624548 
   60000    245.28373   -268.70433    216009.12   -18598.375    1426.4623   -20024.838     -566.259     399.6238    78.736718     22.57099    25.649889 
   60200    235.28937   -506.89534    216009.12    -18642.68    1368.3395    -20011.02   -1596.2341    401.29649    78.741835    22.571265    25.670479 
   60400    236.32226   -326.89952    216009.12   -18609.157    1374.3464   -19983.503   -761.42446    402.48071    78.743871    22.572776    25.670993 
   60600    245.82919    -359.7029    216009.12   -18577.014    1429.6345   -20006.649   -941.93221    401.92706    78.746219    22.573802    25.677708 
   60800    242.19958   -223.88163    216009.12   -18531.502    1408.5263   -19940.028    -405.7408    401.20717    78.745473    22.576629    25.685582 
   61000    237.85747   -486.12579    216009.12    -18575.64    1383.2745   -19958.914   -1476.0154    403.49393    78.745368    22.576613    25.673284 
   61200    249.70017    -154.8792    216009.12   -18526.557    1452.1464   -19978.703   -83.255135    403.50867    78.747825    22.574581    25.653588 
   61400    244.07383   -314.88805    216009.12    -18585.36    1419.4261   -20004.786   -741.43288    405.20999    78.748682    22.575803    25.689967 
   61600    234.14315   -348.36039    216009.12   -18620.619    1361.6736   -19982.293   -903.30039    407.95852    78.748235    22.577673    25.666972 
   61800    234.74416   -209.24146    216009.12   -18680.992    1365.1689   -20046.161   -286.39036    409.59656    78.748781    22.575802    25.653512 
   62000    239.61103   -255.04801    216009.12   -18607.102    1393.4724   -20000.575   -497.43582    412.08013    78.749614    22.574918    25.654902 
   62200    243.55814   -234.12931    216009.12   -18588.912    1416.4271   -20005.339   -347.64535    411.38895    78.747309    22.572952     25.64941 
   62400    246.88796    -360.2216    216009.12   -18567.434    1435.7918   -20003.226    -953.4696    410.67111    78.746612    22.575116    25.658015 
   62600    237.58515   -300.09362    216009.12   -18616.368    1381.6908   -19998.058   -684.48374    413.86303    78.746019    22.576852    25.656351 
   62800    229.64941   -279.51085    216009.12    -18673.69      1335.54    -20009.23   -608.28616    414.41594    78.743683    22.578051    25.643414 
   63000    244.64316    -381.6067    216009.12   -18560.989    1422.7371   -19983.726   -1012.2154    416.70202    78.744659    22.581557    25.665338 
   63200    238.44956   -225.18035    216009.12    -18601.96    1386.7178   -19988.677   -395.03971    418.20249    78.745508    22.582937    25.664028 
   63400    231.02005   -292.13365    216009.12   -18647.656    1343.5111   -19991.167     -644.906    422.76549    78.746122    22.584878    25.676173 
   63600    242.84511   -314.51992    216009.12   -18653.786    1412.2804   -20066.066   -756.61798    423.78886     78.74579    22.586655    25.662651 
   63800    233.02826   -349.02446    216009.12    -18681.27    1355.1899    -20036.46    -894.7954    424.78706    78.746024    22.584726    25.685077 
   64000    243.37635   -281.67922    216009.12   -18576.507    1415.3699   -19991.877   -609.52691    426.37675     78.74467    22.583536    25.695731 
   64200    239.58175   -394.64071    216009.12   -18593.089    1393.3021   -19986.391   -1106.1224    427.69216    78.743616    22.584606    25.685022 
   64400    230.41181   -366.65856    216009.12   -18605.912    1339.9738   -19945.886   -956.23342    429.93206    78.744686    22.583964    25.697059 
   64600    235.90838   -262.67568    216009.12   -18662.319    1371.9394   -20034.258    -517.2549    433.59466    78.746649    22.585964    25.721453 
   64800    243.59897   -445.69133    216009.12   -18606.407    1416.6646   -20023.071   -1323.4968    434.87528    78.745089    22.586845     25.70196 
   65000    244.94063   -304.63458    216009.12   -18546.571     1424.467   -19971.038   -659.87107    435.60552    78.745955    22.586918    25.695589 
   65200    240.49809   -232.93357    216009.12   -18597.494    1398.6312   -19996.125   -371.76413    435.42371    78.746541    22.585573    25.683849 
   65400    238.03979   -285.59535    216009.12   -18575.131    1384.3348   -19959.466   -660.22212    438.69636    78.744959    22.584373    25.662121 
   65600    237.34588   -304.72353    216009.12   -18515.485    1380.2993   -19895.784   -710.30548    440.53161    78.743764    22.585561    25.637442 
   65800    240.89627    -214.0653    216009.12   -18565.963    1400.9468   -19966.909   -347.19472     441.0486    78.744565    22.583965    25.634577 
   66000    238.06382   -250.68776    216009.12   -18577.586    1384.4745   -19962.061   -499.66113    441.72645    78.744687    22.584783    25.588122 
   66200    237.24171   -353.98923    216009.12   -18608.169    1379.6935   -19987.862   -927.18842    442.79054    78.746187    22.584983     25.59753 
   66400    239.67007   -159.97048    216009.12    -18635.59    1393.8157   -20029.405   -62.692378    442.26621    78.745044    22.583061    25.578207 
   66600    236.78952   -373.36922    216009.12   -18661.221    1377.0638   -20038.285   -991.29223    445.98857    78.743541    22.583873    25.565482 
   66800    231.26016   -250.12322    216009.12   -18678.334    1344.9074   -20023.242   -496.87699    447.07885    78.739885    22.588611     25.59038 
   67000     236.4141   -251.45444    216009.12   -18727.023    1374.8805   -20101.903   -472.14845    446.29033    78.741272    22.591546    25.602423 
   67200    247.11044   -349.18658    216009.12   -18645.042    1437.0857   -20082.128   -890.84271    445.96717    78.739222    22.594572    25.596438 
   67400     237.0688   -334.67705    216009.12   -18642.338    1378.6879   -20021.026   -877.04963    444.49077     78.73898    22.597987    25.592385 
   67600    247.72576   -414.40005    216009.12   -18594.417    1440.6641   -20035.081   -1162.5903    447.54754    78.739089     22.59812    25.612704 
   67800    232.15507   -229.75515    216009.12   -18652.087    1350.1118   -20002.199   -403.33623    446.73966    78.738298      22.5978    25.590794 
   68000    239.80456   -419.90795    216009.12   -18639.952    1394.5979    -20034.55   -1152.5552    449.78147    78.735374    22.598559    25.574128 
   68200    240.40366   -227.30984    216009.12   -18636.038     1398.082    -20034.12   -433.99768    448.85949    78.733404    22.598475     25.55772 
   68400    240.68202   -458.55388    216009.12   -18581.795    1399.7008   -19981.496   -1362.5444    451.77691     78.73255    22.596185    25.560657 
   68600    230.38088   -256.85506    216009.12    -18615.71    1339.7939   -19955.504   -516.27574    450.22394    78.732727    22.594756    25.574342 
   68800     241.0791   -338.48483    216009.12   -18583.164    1402.0101   -19985.174   -840.16459    451.94771    78.732343     22.59748    25.598371 
   69000    240.29503   -251.49431    216009.12   -18591.618    1397.4503   -19989.069   -526.43332    452.41596    78.732758    22.599387    25.611855 
   69200    236.69574   -277.20763    216009.12   -18663.886    1376.5184   -20040.404    -569.6337    453.34217    78.733841    22.601166    25.595573 
   69400    234.26163   -322.44056    216009.12   -18692.404    1362.3627   -20054.767   -759.34484     455.4158    78.730632    22.601762    25.604984 
   69600    241.31772    -303.1945    216009.12   -18488.485    1403.3978   -19891.883   -735.96955    457.93716    78.729206    22.601909    25.583914 
   69800     238.6112   -544.72006    216009.12   -18613.299    1387.6578   -20000.957   -1743.7191    461.84505    78.727138    22.599749    25.577159 
   70000    242.29254   -205.64803    216009.12   -18560.536    1409.0669   -19969.603   -264.65663    461.77421    78.725541    22.598622    25.584398 
   70200    242.65013   -266.93747    216009.12   -18584.225    1411.1465   -19995.372   -512.40969    461.41291    78.726218    22.598781    25.586646 
   70400    246.43711   -217.82361    216009.12   -18527.454    1433.1699   -19960.624   -387.56504    462.91856    78.725119    22.597692    25.603367 
   70600    234.69162    -381.9948    216009.12   -18610.713    1364.8633   -19975.576   -1086.9013    464.46797    78.725447    22.598249    25.619046 
   70800    233.67941   -305.23813    216009.12   -18641.461    1358.9767   -20000.438   -719.92815    466.07285    78.725901    22.597598    25.631284 
   71000    242.71041   -342.46929    216009.12   -18685.994     1411.497   -20097.491   -882.09775    466.49355     78.72491    22.598156    25.655742 
   71200    235.38787   -421.42093    216009.12   -18644.123    1368.9124   -20013.035   -1207.9527    468.11765    78.726529    22.597932    25.668583 
   71400    235.53658   -225.74644    216009.12   -18686.903    1369.7772    -20056.68   -396.32464    467.36883    78.727652    22.598721     25.67775 
   71600    236.02605   -350.76822    216009.12   -18621.717    1372.6238    -19994.34   -921.52443    471.39858    78.729344    22.598955    25.700726 
   71800    232.58066   -254.33469    216009.12   -18727.739    1352.5869   -20080.325   -457.46234    475.30314    78.730463    22.598469    25.681714 
   72000    234.50683   -384.98678    216009.12   -18693.426    1363.7886   -20057.214   -1036.5823    478.09333    78.731558     22.59925     25.66536 
   72200    243.92658    -386.1279    216009.12   -18575.809    1418.5698   -19994.378   -1109.9687     480.9047     78.73287     22.60142    25.657361 
   72400     233.8598   -321.19587    216009.12   -18651.614    1360.0258   -20011.639   -829.39916     481.0689     78.73293    22.604075    25.657187 
   72600    247.31412   -380.67284    216009.12   -18563.311    1438.2702   -20001.581    -1047.339     480.9821    78.731827    22.605322     25.64552 
   72800    239.27062   -119.05669    216009.12    -18624.56    1391.4927   -20016.052     65.72135     477.3812     78.73254    22.605207    25.646235 
   73000    231.39867   -428.61225    216009.12    -18650.89     1345.713   -19996.603   -1242.0631    478.55725    78.734733    22.603337    25.633789 
   73200    236.40557   -339.37609    216009.12   -18544.104    1374.8309   -19918.935   -851.63066    479.72673    78.732939    22.603856    25.649161 
   73400    244.08321   -318.83206    216009.12   -18525.579    1419.4807   -19945.059   -806.33787    481.96085    78.731981    22.604563    25.650679 
   73600    243.13441   -487.94368    216009.12    -18541.27    1413.9628   -19955.233   -1446.4859    482.32339    78.730587    22.604019    25.624045 
   73800    235.90186   -214.10278    216009.12   -18655.834    1371.9015   -20027.736   -339.88572    481.17424    78.728787    22.601969    25.640264 
   74000    235.73123   -309.84548    216009.12   -18611.647    1370.9092   -19982.556   -697.84363    482.06139    78.729201    22.603581    25.640683 
   74200    239.67555   -536.38091    216009.12   -18549.897    1393.8476   -19943.745    -1713.235     482.9149     78.72866    22.604399     25.63851 
   74400    244.96566    -306.8574    216009.12   -18554.029    1424.6126   -19978.641   -771.39625    483.43853    78.727252    22.606296    25.635244 
   74600    236.90385   -271.20645    216009.12   -18602.034    1377.7286   -19979.762    -589.5447    483.76963    78.727348    22.602836    25.626476 
   74800     239.6629   -397.81799    216009.12   -18631.957    1393.7741   -20025.731   -1114.4862    486.72964    78.727674     22.60191    25.604181 
   75000    234.91739   -180.84641    216009.12   -18650.647    1366.1763   -20016.823   -189.82519    484.57615    78.729038    22.601262    25.574287 
   75200    241.72274   -504.03219    216009.12   -18577.721    1405.7532   -19983.474   -1548.9668    485.49388    78.729517    22.598786    25.580553 
   75400    245.36256   -288.12875    216009.12   -18610.765    1426.9208   -20037.685   -646.06075    484.09028    78.728181    22.598042    25.605157 
   75600    240.95178   -441.20057    216009.12   -18599.228    1401.2696   -20000.497   -1257.7863    486.95846    78.725161    22.597407    25.573984 
   75800    240.40697   -259.50861    216009.12   -18552.862    1398.1012   -19950.963   -535.97408    487.73374    78.724266     22.59963    25.580676 
   76000    241.99811   -274.12281    216009.12   -18551.725    1407.3546    -19959.08   -557.76096    487.81495    78.723866    22.598165    25.587712 
   76200    231.88171   -271.07543    216009.12   -18636.222    1348.5221   -19984.745    -553.2915     489.6874    78.722057    22.598205    25.591441 
   76400    240.86078   -211.78669    216009.12   -18585.443    1400.7404   -19986.183   -323.46951    488.75986    78.722652    22.598912    25.577522 
   76600    239.75448   -338.18862    216009.12   -18565.679    1394.3067   -19959.986   -818.81635    491.85118    78.720888    22.597719     25.58425 
   76800    236.57234   -329.37959    216009.12   -18587.564    1375.8007   -19963.365   -803.61671    493.86673    78.722582    22.596661    25.561865 
   77000    244.35837    -251.1355    216009.12   -18563.549    1421.0809    -19984.63   -518.21708    495.94103    78.723561    22.595905     25.54384 
   77200    243.17773   -355.28532    216009.12   -18538.562    1414.2148   -19952.776   -967.27027    496.09229    78.723675    22.593337    25.538155 
   77400     238.3626   -287.49029    216009.12   -18573.465    1386.2121   -19959.677   -627.69584    499.34776    78.725781    22.591554    25.535873 
   77600    228.32984   -520.21771    216009.12   -18614.289     1327.866   -19942.155   -1612.9312    501.44682    78.727491    22.591565    25.549057 
   77800    244.18868   -243.40042    216009.12   -18581.226     1420.094    -20001.32   -444.60676    503.47287    78.727028    22.590104    25.566999 
   78000    236.44665   -326.37453    216009.12   -18633.108    1375.0698   -20008.177   -774.33002    505.44318    78.728716    22.591112    25.547868 
   78200    242.42755   -369.16897    216009.12   -18576.249    1409.8521   -19986.101   -999.63952    506.82703    78.730274    22.589215    25.560797 
   78400    236.97094   -366.39828    216009.12    -18602.14    1378.1188   -19980.259   -979.29185    507.38652    78.732192     22.58837    25.569397 
   78600    244.32548   -286.95861    216009.12   -18611.297    1420.8896   -20032.186    -595.9082    509.16732     78.73438    22.587466    25.549633 
   78800    234.51242     -436.379    216009.12   -18606.901    1363.8212   -19970.723   -1244.4369    512.42438    78.735524    22.586422    25.546979 
   79000    243.89821   -422.89055    216009.12   -18576.577    1418.4048   -19994.982   -1246.0145    514.99723    78.738213    22.587045    25.561824 
   79200    239.46853   -167.59849    216009.12   -18563.874    1392.6437   -19956.517    -192.4774    514.81403    78.738278    22.587984    25.554766 
   79400    240.82832   -535.42948    216009.12   -18534.518    1400.5516    -19935.07    -1676.809    519.73777    78.738668     22.58732    25.550548 
   79600    239.06737   -249.78798    216009.12   -18649.036    1390.3107   -20039.346   -472.13547    520.55963    78.739272    22.586093    25.549892 
   79800     236.7572   -327.46109    216009.12   -18643.087    1376.8758   -20019.963   -823.21403    519.35951      78.7397    22.585873    25.575927 
   80000     238.1758   -431.85883    216009.12   -18674.971    1385.1258   -20060.097   -1236.4017    521.41918    78.738749    22.586028    25.582784 
   80200    236.45129    -323.0929    216009.12   -18624.416    1375.0968   -19999.513   -812.52801    520.92691    78.737793    22.585944    25.590909 
   80400    241.54904   -173.15438    216009.12   -18659.752     1404.743   -20064.495    -169.6098    518.44122    78.736349    22.586878    25.609756 
   80600    239.85042   -189.31784    216009.12   -18615.736    1394.8646     -20010.6   -222.79371     520.4534    78.738877    22.587336    25.636783 
   80800    251.86506   -341.29555    216009.12   -18599.087    1464.7364   -20063.823   -892.30112     520.8082    78.738321    22.585952    25.625369 
   81000    247.58892   -362.08921    216009.12   -18596.625    1439.8683   -20036.494   -1025.0358     519.8556    78.740186    22.585953    25.639127 
   81200    240.81205   -268.71632    216009.12   -18606.164     1400.457   -20006.621   -586.71315    522.33892    78.738974    22.586318    25.654703 
   81400    241.69591    -342.1676    216009.12   -18626.095    1405.5972   -20031.692   -865.71838     523.8204    78.740071    22.587311    25.677639 
   81600    234.58657   -419.01162    216009.12   -18675.369    1364.2523   -20039.621   -1213.3236    525.69748    78.739976    22.586772    25.681142 
   81800    226.17647   -435.60723    216009.12   -18754.569    1315.3429   -20069.911   -1260.8306    526.06055    78.741568    22.585223     25.67078 
   82000    242.56715   -223.04428    216009.12   -18656.778    1410.6639   -20067.442   -410.32699    525.34458    78.742989    22.586708    25.677882 
   82200    248.05718   -350.75491    216009.12   -18607.556    1442.5915   -20050.148   -892.34829    527.77677    78.742443    22.585295    25.676409 
   82400    239.85082   -261.34733    216009.12   -18623.172     1394.867   -20018.039   -549.54184    528.74431    78.742595    22.586999    25.667887 
   82600    247.67488   -244.09804    216009.12   -18558.079    1440.3682   -19998.448   -504.78039    530.23619    78.740872    22.587534    25.651165 
   82800    238.35598   -488.89767    216009.12    -18621.95    1386.1736   -20008.124   -1479.4985    535.68248    78.742152    22.585619    25.617849 
   83000    244.59825   -241.18091    216009.12   -18512.836    1422.4759   -19935.312    -468.5661    536.88478    78.742672    22.584909    25.626975 
   83200    245.58977    -381.0661    216009.12   -18531.633    1428.2421   -19959.875   -1041.9775    538.39776    78.741669    22.583368     25.63897 
   83400    244.57723   -121.57468    216009.12    -18594.64    1422.3537   -20016.994    76.985451    541.05752    78.743156    22.579868    25.650428 
   83600    244.50616    -163.8295    216009.12   -18681.895    1421.9403   -20103.835   -77.955464    542.56002     78.74323    22.579097    25.659837 
   83800    238.92149   -288.54283    216009.12   -18659.963    1389.4624   -20049.426   -632.91813    543.66421    78.743305    22.579058    25.674916 
   84000    240.56849   -265.47633    216009.12    -18642.08    1399.0406   -20041.121   -551.30424     546.3966    78.743319      22.5779    25.675144 
   84200    248.08366    -478.2774    216009.12   -18619.117    1442.7455   -20061.862   -1466.7699    546.67135    78.744291    22.578433    25.673687 
   84400    240.09231   -219.39945    216009.12   -18690.471    1396.2714   -20086.743   -346.84926     545.2728    78.741626    22.576789    25.686611 
   84600    240.02917   -273.28844    216009.12   -18591.083    1395.9042   -19986.987   -566.67306    544.82247     78.73886    22.575455    25.684766 
   84800    234.81444    -268.0011    216009.12   -18613.495    1365.5776   -19979.072   -602.42569     543.4187    78.740041    22.576479    25.683607 
   85000    241.01503   -364.63666    216009.12   -18585.271    1401.6375   -19986.909   -985.15801    544.63833    78.740195    22.575467    25.662754 
   85200    242.75761   -193.02817    216009.12   -18605.221    1411.7716   -20016.993   -263.23789    547.00981    78.739613    22.576109    25.642674 
   85400    237.78795   -337.10296    216009.12   -18638.732    1382.8702   -20021.602    -867.5483    551.18262    78.740712    22.575288    25.644188 
   85600    233.38762   -455.04121    216009.12   -18617.325    1357.2798   -19974.605   -1345.2215    555.05616    78.739924    22.574274    25.659523 
   85800     241.2356   -256.67647    216009.12     -18551.6    1402.9202    -19954.52    -508.7126     554.3227    78.739055    22.575173    25.676098 
   86000    242.18111   -260.29143    216009.12   -18600.554    1408.4189   -20008.973   -488.74229    554.84401    78.739029    22.576025     25.68859 
   86200    248.98251   -363.48317    216009.12   -18595.552    1447.9728   -20043.525   -975.91989    555.80265    78.742124    22.575842    25.667879 
   86400    239.74744   -315.62375    216009.12   -18673.458    1394.2657   -20067.723   -769.93759    555.18142    78.744932    22.575991    25.661173 
   86600    245.39783   -260.89023    216009.12   -18586.969    1427.1259   -20014.095    -540.3662     557.0632    78.745635    22.575611    25.637197 
   86800    238.96861   -258.32841    216009.12   -18644.081    1389.7364   -20033.818   -501.29989    559.94944    78.743102    22.577143    25.604266 
   87000    237.42346      -328.27    216009.12   -18597.553    1380.7505   -19978.303   -824.02122    564.37081    78.742689    22.577018    25.624208 
   87200    246.62236   -340.06736    216009.12   -18571.031    1434.2472   -20005.279   -864.04822    562.74229    78.741145    22.575158    25.625594 
   87400    243.54327   -352.36479    216009.12   -18588.343    1416.3406   -20004.684   -915.69558    564.82507    78.741094    22.575035    25.629469 
   87600    242.50917   -372.80035    216009.12   -18598.493    1410.3267    -20008.82   -993.58229    565.93676    78.738421    22.572973    25.639677 
   87800    239.02627   -379.34289    216009.12    -18617.52    1390.0717   -20007.592   -1069.4416    568.37609    78.737187    22.571211    25.644515 
   88000    240.54913   -348.41203    216009.12   -18579.995     1398.928   -19978.923   -900.43924    568.27744    78.735077    22.570575    25.638838 
   88200    234.16855   -395.18115    216009.12   -18631.308    1361.8213   -19993.129   -1136.2791    570.72397    78.736447    22.572174    25.626308 
   88400    239.47262   -262.74376    216009.12    -18591.59    1392.6675   -19984.258   -556.30296    571.22908    78.734689    22.572794    25.638911 
   88600    238.77758   -405.12826    216009.12   -18616.467    1388.6254   -20005.093   -1149.2835    571.31967    78.736248    22.573863    25.632397 
   88800    229.69457   -288.10976    216009.12   -18690.175    1335.8027   -20025.978   -677.64977    571.07378    78.736742    22.574572    25.612637 
   89000    243.20458   -292.91775    216009.12   -18630.909    1414.3709    -20045.28   -701.82733    567.16222      78.7393    22.571421    25.598769 
   89200    244.07298   -255.92954    216009.12   -18624.425    1419.4212   -20043.846   -500.22517    568.19306    78.740496    22.569286    25.594929 
   89400    239.27657   -227.38877    216009.12   -18636.933    1391.5273    -20028.46   -395.42859    567.51899    78.741715    22.570796    25.597806 
   89600    225.94651   -211.81789    216009.12   -18754.085    1314.0056    -20068.09   -348.69063    566.98339     78.74159    22.572907    25.601473 
   89800    238.21999   -363.32132    216009.12   -18623.628    1385.3827   -20009.011   -942.57429    569.82312     78.74209    22.573497    25.585831 
   90000    239.73018   -405.39389    216009.12    -18650.67    1394.1654   -20044.836    -1125.392    571.63082    78.742907    22.571323    25.602025 
   90200    230.43062    -342.7392    216009.12   -18666.344    1340.0832   -20006.427   -868.21989    575.07822     78.74419    22.570136    25.591436 
   90400    240.88341   -345.64116    216009.12   -18587.215     1400.872   -19988.087   -885.63813    575.52338    78.746437    22.569592    25.594691 
   90600    244.80192   -300.30387    216009.12   -18560.611    1423.6603   -19984.272   -678.19204    576.74089    78.747685    22.569348    25.577406 
   90800    243.75456   -365.52988    216009.12   -18598.936    1417.5694   -20016.505   -982.12206    574.01647    78.749124    22.569392    25.560401 
   91000    232.47848   -460.02431    216009.12   -18628.043    1351.9926   -19980.035   -1390.1138    574.44577    78.750071    22.570941    25.518023 
   91200    238.76509   -269.37448    216009.12   -18705.016    1388.5528   -20093.569    -574.3592    574.92135    78.748298    22.568762    25.530989 
   91400    242.57881    -358.1819    216009.12   -18659.394    1410.7317   -20070.125   -924.19312    576.07744    78.746633    22.567444    25.536756 
   91600    244.03442   -375.64437    216009.12   -18568.988    1419.1969   -19988.185   -994.54776    576.67738    78.742957    22.565553    25.509532 
   91800    240.45127    -393.6952    216009.12   -18560.253    1398.3589   -19958.612   -1101.3046    576.09376    78.743809    22.566757    25.539577 
   92000    237.57968   -230.39084    216009.12   -18609.935     1381.659   -19991.594   -384.86432    577.00892    78.742627    22.566796    25.545636 
   92200    242.77736   -449.76907    216009.12   -18649.632    1411.8864   -20061.519   -1270.9915    577.27337    78.741106    22.567225    25.552785 
   92400    236.60351   -283.24406    216009.12   -18566.477     1375.982   -19942.459   -645.31201    578.96131    78.743389    22.570496    25.573906 
   92600    237.94007    -313.2766    216009.12   -18522.442    1383.7549   -19906.197   -711.91822    580.51229     78.74314    22.571653    25.579892 
   92800     238.4928   -396.36325    216009.12    -18597.16    1386.9693    -19984.13   -1104.5501    580.93211    78.744315    22.571717    25.599076 
   93000     236.6398   -267.39505    216009.12   -18642.057    1376.1931    -20018.25     -546.186    581.47316    78.745136    22.572205    25.583337 
   93200    239.98547   -238.50625    216009.12   -18602.841      1395.65   -19998.491   -471.67332    583.17242    78.746615    22.571716    25.589204 
   93400    235.73528    -169.1992    216009.12   -18676.562    1370.9327   -20047.494   -178.93196    583.63432     78.74738      22.5708    25.588401 
   93600    235.72001   -506.77925    216009.12   -18654.325    1370.8439   -20025.169   -1554.7634     584.8124    78.747221    22.569955    25.573074 
   93800     232.7361   -286.15634    216009.12   -18667.897    1353.4909   -20021.388   -656.92777    584.00143    78.746125    22.573425    25.576229 
   94000    237.75681   -383.88842    216009.12   -18658.481    1382.6891    -20041.17    -1063.059    584.44129     78.74544     22.57302    25.592619 
   94200    243.60115   -421.72658    216009.12   -18608.019    1416.6772   -20024.696   -1263.0991    585.47741    78.742648    22.572829    25.610029 
   94400    236.49077   -336.64156    216009.12    -18611.58    1375.3263   -19986.906   -888.64361    585.14347    78.739706     22.57347    25.616697 
   94600    237.09843   -350.40153    216009.12   -18630.974    1378.8603   -20009.835   -948.01167    585.64662    78.737573    22.574756    25.637796 
   94800    239.65665   -284.74438    216009.12    -18610.52    1393.7377   -20004.258   -591.34585    585.10825    78.737668    22.572795    25.654599 
   95000    238.59528   -257.49934    216009.12     -18609.9    1387.5653   -19997.465   -525.00623    584.11534    78.736975    22.574036    25.679166 
   95200    241.62036   -385.27999    216009.12   -18562.034    1405.1578   -19967.192   -1078.2307    586.50405    78.733948    22.574671    25.682193 
   95400    240.50529   -312.40703    216009.12   -18564.815    1398.6731   -19963.488   -776.68074    587.62359    78.733365    22.575795    25.672269 
   95600    237.52436   -339.86476    216009.12   -18526.153    1381.3372    -19907.49    -914.2637    587.66623    78.734224    22.574881    25.677804 
   95800    244.20184   -334.49686    216009.12   -18501.552    1420.1706   -19921.723   -791.86766    590.55295    78.732602    22.578627    25.664502 
   96000    245.31889   -332.65727    216009.12   -18505.344    1426.6669   -19932.011   -818.49932    591.21235    78.734753    22.579314    25.633603 
   96200    246.30256   -587.12051    216009.12   -18510.938    1432.3874   -19943.326   -1911.3323    592.42635    78.736718    22.579984    25.631251 
   96400    239.06048   -384.97636    216009.12   -18539.918    1390.2706   -19930.189   -1077.7116    591.99616    78.735993     22.58039    25.635917 
   96600     241.6322   -524.17086    216009.12   -18606.933    1405.2267   -20012.159   -1657.5466    595.88515    78.736467    22.580038    25.638698 
   96800    241.34905    -279.9592    216009.12   -18567.871      1403.58   -19971.451   -623.25468    595.52331    78.736772    22.581317    25.624631 
   97000    237.09751   -249.03924    216009.12   -18634.395    1378.8549    -20013.25   -510.85029    596.34547    78.736752    22.581345    25.622609 
   97200    240.19759   -264.60979    216009.12   -18588.951    1396.8836   -19985.835    -543.7194    600.75548    78.736421    22.582332    25.633607 
   97400    236.12847   -340.24622    216009.12   -18558.604    1373.2194   -19931.823   -850.19851    601.11504    78.736883    22.582254    25.622391 
   97600    254.23284    -103.9675    216009.12   -18510.267    1478.5065   -19988.774    120.19871    603.08051      78.7369    22.582763    25.617593 
   97800    245.66855   -249.49561    216009.12   -18539.473    1428.7003   -19968.174   -499.23931    608.40952     78.73633    22.581307    25.609153 
   98000    242.06752   -252.65076    216009.12   -18615.345    1407.7583   -20023.103    -450.0663    610.92091    78.736789    22.581721    25.595231 
   98200    234.19933   -245.83517    216009.12    -18619.68    1362.0004   -19981.681   -512.21566     611.9653     78.73584    22.585264    25.589723 
   98400    240.60397   -500.04873    216009.12   -18567.655    1399.2469   -19966.902   -1535.2112    611.73373    78.735783    22.586011    25.575457 
   98600    239.14325   -280.03733    216009.12   -18571.058     1390.752   -19961.811   -659.92004    609.45386    78.734783     22.58406    25.589743 
   98800    241.22029   -214.22933    216009.12   -18516.457    1402.8312   -19919.288    -348.3784    610.92745    78.733599    22.582429    25.585231 
   99000    240.36376    -326.6294    216009.12   -18566.999      1397.85   -19964.849   -825.47912    611.74926    78.733791     22.58284     25.57357 
   99200    241.62348   -331.26107    216009.12   -18603.073    1405.1759   -20008.248   -794.36502     613.4374    78.731927    22.583414    25.587942 
   99400     230.6508   -332.71388    216009.12   -18636.804    1341.3637   -19978.168   -825.19095    612.92358    78.731151    22.585733    25.605424 
   99600    245.51292   -291.42113    216009.12   -18550.213    1427.7952   -19978.008   -630.67235     613.9587    78.731258    22.586529    25.615792 
   99800    234.92335    -333.7721    216009.12   -18582.897    1366.2109   -19949.108   -858.11294    615.80211    78.731972    22.587667    25.634827 
  100000    239.73283    -373.2977    216009.12   -18585.673    1394.1808   -19979.854   -1030.8207    616.43581    78.733339    22.586582    25.643535 
  100200    238.93651    -348.3718    216009.12   -18657.792    1389.5497   -20047.342   -965.74588    618.25612    78.735152    22.586657     25.65909 
  100400    241.32865   -384.05302    216009.12   -18606.207    1403.4613   -20009.669   -1057.6479    619.47987    78.735411    22.586562     25.66224 
  100600      243.682   -317.41497    216009.12   -18617.803    1417.1474   -20034.951   -770.88246    619.10741    78.733347    22.585753    25.636689 
  100800    234.50616   -486.94119    216009.12       -18670    1363.7847   -20033.784   -1491.1337    622.12628    78.730923    22.586962    25.627476 
[...]
 5175800    221.90626   -746.05801    216009.12   -20632.684    1290.5093   -21923.193   -2546.8762    6486.5419    78.918488    22.182352    25.465739 
 5176000    223.39281   -591.96939    216009.12   -20624.374    1299.1544   -21923.528    -1865.103    6485.7325    78.919908    22.182564    25.461674 
 5176200    222.17966   -610.73758    216009.12   -20632.591    1292.0992   -21924.691   -1948.3538    6484.7105     78.91951    22.182237    25.462774 
 5176400    222.90822   -685.30503    216009.12   -20656.881    1296.3362   -21953.217   -2254.2772    6485.4587    78.918006    22.182113    25.461637 
 5176600    228.75276   -601.21965    216009.12   -20621.785    1330.3255   -21952.111   -1926.4476    6485.5185    78.917732    22.181013    25.460417 
 5176800    230.76813   -630.97466    216009.12    -20597.36     1342.046   -21939.406   -2052.5902    6486.4164    78.916242     22.18186    25.468982 
 5177000    232.43003   -691.98434    216009.12   -20588.973    1351.7109   -21940.684   -2299.0357     6487.584    78.914937     22.18207     25.46155 
 5177200    226.58098   -659.26749    216009.12   -20606.527    1317.6954   -21924.223   -2157.8555     6485.788    78.916799    22.182396    25.462633 
 5177400    225.90331   -705.85563    216009.12   -20631.015    1313.7544    -21944.77   -2392.1987    6485.0708    78.916782    22.183188     25.45714 
 5177600    230.92742   -767.83974    216009.12    -20574.83    1342.9724   -21917.803   -2647.4013    6487.2688    78.916101    22.183253    25.463662 
 5177800      225.469   -610.16536    216009.12   -20616.215    1311.2286   -21927.444   -1916.4124    6485.4939     78.91592    22.183105    25.458013 
 5178000    228.37045   -666.67972    216009.12   -20634.627    1328.1021   -21962.729    -2201.249    6486.2017    78.915362    22.182766    25.460409 
 5178200    227.31127   -655.88223    216009.12   -20634.314    1321.9424   -21956.256   -2140.5072    6484.7105     78.91442    22.182328    25.456238 
 5178400    222.88345   -622.06216    216009.12   -20642.778    1296.1922    -21938.97   -1982.5383    6484.5387    78.915967      22.1818    25.455845 
 5178600    227.24066   -699.49222    216009.12   -20634.312    1321.5318   -21955.844   -2330.9016    6488.7741    78.915726    22.181536    25.461621 
 5178800    230.86105   -646.44707    216009.12   -20596.113    1342.5864     -21938.7   -2118.5967    6486.0182    78.915248    22.181259    25.455832 
 5179000    229.29151   -598.48562    216009.12   -20633.896    1333.4586   -21967.354   -1926.3836    6485.6007    78.914118    22.181734    25.453096 
 5179200    222.22327   -710.69608    216009.12   -20602.222    1292.3528   -21894.575   -2382.5856    6485.0948    78.914015    22.182782    25.464757 
 5179400    229.12728   -638.35377    216009.12   -20664.974    1332.5035   -21997.477   -2074.0097    6485.0153     78.91342    22.183469    25.465504 
 5179600    233.94426   -610.28464    216009.12   -20552.501     1360.517   -21913.018   -1998.4063    6487.1045    78.912872    22.184175    25.459865 
 5179800    231.70043   -700.19468    216009.12   -20608.848    1347.4679   -21956.316   -2382.3921    6487.7326      78.9139    22.183168    25.459056 
 5180000    225.66453   -670.50932    216009.12   -20634.284    1312.3657   -21946.649    -2185.881    6484.2461    78.914239    22.183971    25.464898 
 5180200    219.27483   -663.32513    216009.12    -20693.44     1275.206   -21968.646   -2173.1863       6484.6    78.913822    22.183535    25.461072 
 5180400    224.80015   -666.53735    216009.12   -20667.333    1307.3388   -21974.671   -2206.4332    6487.1993    78.913956    22.182341    25.463117 
 5180600    227.60193   -645.82689    216009.12   -20613.051    1323.6328   -21936.683   -2121.2386    6485.9558    78.914736    22.181621    25.460657 
 5180800    229.25593   -673.17874    216009.12   -20585.895    1333.2517   -21919.147   -2216.1164    6485.7789    78.913475    22.180998    25.460542 
 5181000    228.45639   -695.83033    216009.12   -20620.603    1328.6019   -21949.205   -2292.7001    6485.8274    78.913258    22.180879    25.466682 
 5181200    227.25947   -666.23034    216009.12   -20621.994    1321.6412   -21943.635    -2190.009    6485.6216    78.912352    22.181408    25.463598 
 5181400     220.3707   -644.10558    216009.12   -20666.269    1281.5791   -21947.848   -2120.7817    6485.6753    78.911865    22.180827    25.463777 
 5181600    230.38852   -700.74791    216009.12   -20597.714    1339.8383   -21937.553   -2340.3211    6488.1093    78.912075    22.181713    25.464513 
 5181800    222.84385   -621.41621    216009.12   -20671.842    1295.9618   -21967.803   -2003.1684    6484.4859     78.91072    22.182515    25.469807 
 5182000    231.25621   -555.16165    216009.12   -20584.897    1344.8844   -21929.781   -1710.8248    6484.4329    78.909267    22.183263    25.466243 
 5182200    234.66803   -727.06631    216009.12    -20597.94    1364.7261   -21962.666    -2453.101    6489.9593      78.9084    22.184002    25.460984 
 5182400    231.66624    -645.8696    216009.12   -20589.187     1347.269   -21936.456   -2128.5121    6486.0276     78.90912    22.184092    25.461436 
 5182600    221.56489   -659.43454    216009.12   -20673.928     1288.524   -21962.452   -2212.9681    6485.5741    78.908532    22.184198    25.462413 
 5182800    226.18593   -716.99123    216009.12    -20611.07    1315.3979   -21926.468   -2412.7524    6487.8384    78.908968    22.185373    25.462628 
 5183000      228.095   -674.23147    216009.12   -20596.402    1326.5003   -21922.902   -2258.0774    6485.1081    78.907932    22.185628    25.462916 
 5183200    231.89174   -584.59692    216009.12   -20557.522    1348.5804   -21906.102     -1798.72    6484.0323    78.907414    22.187472    25.458213 
 5183400    229.15583   -712.57562    216009.12   -20567.494    1332.6696   -21900.163   -2383.1933    6485.9896    78.906774    22.188256    25.451995 
 5183600    221.82539   -600.94527    216009.12   -20652.397     1290.039   -21942.436    -1920.219    6483.6643    78.906419     22.18986    25.448306 
 5183800    224.69442   -624.17601    216009.12   -20680.326     1306.724    -21987.05   -2037.6974    6483.7639    78.904803     22.19089    25.456264 
 5184000    223.77645    -721.7529    216009.12   -20680.164    1301.3855   -21981.549   -2454.6191    6485.8287    78.903697    22.190957    25.458073 
 5184200    228.16464   -637.79007    216009.12   -20562.199    1326.9052   -21889.104   -2079.5388    6484.8162    78.902247    22.191172    25.459497 
 5184400     223.1578   -601.94076    216009.12   -20623.929    1297.7877   -21921.717   -1920.4018    6482.3791    78.900527    22.191058    25.457112 
 5184600    231.66904   -651.96974    216009.12   -20560.121    1347.2853   -21907.406    -2089.554    6485.1047    78.900253    22.190483    25.452794 
 5184800    227.82507   -671.76847    216009.12   -20617.029    1324.9304   -21941.959   -2212.2162    6484.8228    78.900187    22.190439    25.459866 
 5185000    222.78781   -621.68918    216009.12   -20620.619     1295.636   -21916.255   -2028.7817    6484.2995    78.899295    22.190923    25.458386 
 5185200     223.2377    -709.7134    216009.12   -20597.617    1298.2523    -21895.87   -2393.7238    6486.6668    78.899099    22.189768     25.45311 
 5185400    224.34927   -719.71421    216009.12   -20640.586    1304.7167   -21945.302   -2425.2005    6486.3972    78.898609    22.190717    25.462836 
 5185600    221.71981   -623.31469    216009.12   -20598.951    1289.4249   -21888.376   -2053.2798    6484.6363    78.898987    22.190604    25.468082 
 5185800    226.47557   -633.56851    216009.12   -20613.516    1317.0823   -21930.598   -2067.6061    6484.8658    78.897799    22.189634    25.470326 
 5186000    227.48187   -712.68738    216009.12   -20567.071    1322.9346   -21890.005   -2413.1108    6486.7052    78.898411    22.189746    25.469138 
 5186200    228.01959   -667.79577    216009.12   -20575.979    1326.0617   -21902.041   -2192.5264    6483.3611    78.898943    22.187908    25.462247 
 5186400    227.69807   -689.75228    216009.12   -20593.421    1324.1919   -21917.613    -2258.454     6486.656    78.897194    22.186369    25.468133 
 5186600    224.05195   -657.24627    216009.12   -20579.724    1302.9876   -21882.712   -2139.7297    6485.3643    78.895346    22.186456    25.460432 
 5186800    229.61724   -704.77478    216009.12    -20579.83     1335.353   -21915.183   -2374.7653    6485.5659    78.893156    22.186232     25.46736 
 5187000    224.86487   -620.04872    216009.12    -20599.73    1307.7152   -21907.446   -1988.2438    6485.0322    78.890886    22.185423    25.474008 
 5187200    228.30188   -696.79814    216009.12    -20561.13    1327.7034   -21888.833   -2315.0769    6488.0967    78.889409    22.182488    25.468158 
 5187400    231.90494   -643.67994    216009.12   -20578.096    1348.6572   -21926.754   -2105.4585    6485.1984    78.888364    22.182169    25.469769 
 5187600    228.95168   -686.54613    216009.12    -20621.13    1331.4823   -21952.612   -2249.8467    6484.7658    78.887188     22.18131    25.470005 
 5187800    231.02544   -657.35342    216009.12   -20576.224    1343.5424   -21919.767   -2145.0578     6487.513    78.887008    22.181545    25.471936 
 5188000    230.61063    -654.4841    216009.12    -20594.35    1341.1301    -21935.48   -2172.9839    6485.7873    78.885987    22.180721    25.469118 
 5188200    233.29512   -623.12805    216009.12   -20549.892    1356.7418   -21906.634   -2000.4158    6484.8215    78.882741    22.180665    25.461766 
 5188400    223.59107   -704.28926    216009.12   -20585.876    1300.3074   -21886.183   -2346.0238    6485.2171    78.881364    22.180926    25.466625 
 5188600    225.71377   -717.26915    216009.12   -20589.057    1312.6521   -21901.709   -2410.6639    6488.4066    78.879176    22.181713    25.471325 
 5188800    224.72105   -639.23475    216009.12   -20639.282    1306.8788   -21946.161   -2034.8346    6484.8624    78.876851    22.181332    25.474917 
 5189000    218.32371   -677.66849    216009.12   -20621.993    1269.6748   -21891.668   -2226.9671    6486.3378    78.875965    22.181372    25.469674 
 5189200    226.96968   -739.63795    216009.12   -20617.634    1319.9559    -21937.59   -2522.5902    6486.6493    78.873561    22.180927    25.472799 
 5189400    219.57207   -679.06487    216009.12   -20674.531    1276.9346   -21951.465   -2264.2281    6483.6127     78.87224    22.179834    25.469289 
 5189600    225.34917   -766.50297    216009.12   -20627.242    1310.5317   -21937.774   -2594.2088    6487.0764    78.870319    22.178388    25.459607 
 5189800    225.88301   -733.23275    216009.12   -20586.457    1313.6363   -21900.093    -2498.984    6486.5497    78.869019    22.178521    25.462015 
 5190000    224.67658   -693.33611    216009.12   -20612.247    1306.6202   -21918.867   -2315.9446    6485.1322    78.867514    22.179479    25.472545 
 5190200    226.02828   -729.09176    216009.12   -20596.944    1314.4811   -21911.425   -2478.4443    6486.7949     78.86564    22.179627    25.465762 
 5190400     227.6994   -665.55511    216009.12   -20606.789    1324.1996   -21930.989   -2166.0672    6485.7031    78.864072    22.179046    25.468757 
 5190600    231.69954   -630.65997    216009.12   -20546.652    1347.4626   -21894.114   -2035.5815    6486.2882    78.863485    22.178332    25.465786 
 5190800    224.97277   -685.35919    216009.12   -20615.882    1308.3427   -21924.225   -2284.4764    6484.2066    78.862198    22.178603    25.456371 
 5191000    228.23353     -678.835    216009.12   -20595.569    1327.3059   -21922.875   -2247.1738    6485.7952    78.860006    22.179754    25.457289 
 5191200    220.96308   -656.98608    216009.12   -20579.566    1285.0241    -21864.59   -2193.8333    6488.1728    78.859246    22.180184    25.461347 
 5191400    224.12451   -632.76353    216009.12   -20613.279    1303.4097   -21916.688   -2097.1525    6485.0084    78.857748    22.180218    25.458568 
 5191600    220.59379   -653.39854    216009.12   -20630.837    1282.8765   -21913.714   -2151.9244    6486.3688    78.858751      22.1804     25.46183 
 5191800     225.1691   -633.53631    216009.12    -20626.37    1309.4845   -21935.854   -2049.6841    6486.1737    78.858036    22.179983    25.453249 
 5192000    233.82665   -643.88643    216009.12     -20564.8     1359.833   -21924.633   -2124.0668    6485.6413    78.856767    22.179805     25.45172 
 5192200    235.40478   -660.57778    216009.12   -20535.968    1369.0107   -21904.979   -2139.0116    6488.0597    78.855683    22.180036     25.45499 
 5192400     225.0113   -652.32844    216009.12   -20605.761    1308.5668   -21914.328   -2135.9902    6486.2893    78.854643    22.180403    25.460778 
 5192600    221.69546   -646.37468    216009.12   -20595.841    1289.2834   -21885.124   -2144.7467    6485.4451    78.853285    22.180622    25.466666 
 5192800      221.264   -636.93343    216009.12   -20613.586    1286.7742   -21900.361   -2009.3965    6487.5764    78.851221    22.179202    25.459449 
 5193000    230.09165    -763.3142    216009.12   -20590.188    1338.1119     -21928.3   -2635.6062    6484.7803    78.851034    22.179086     25.45495 
 5193200    217.94327   -678.27613    216009.12   -20655.761    1267.4623   -21923.223   -2249.7275    6486.4079    78.850412    22.177998    25.452599 
 5193400    227.85336   -686.18326    216009.12   -20567.981     1325.095   -21893.076   -2289.3998    6488.0538    78.850086    22.178379    25.457966 
 5193600    224.50722   -707.83783    216009.12   -20592.795    1305.6353    -21898.43   -2390.4755    6487.0074    78.849763     22.17703    25.460494 
 5193800    223.59339   -613.28395    216009.12    -20575.24    1300.3209   -21875.561   -1996.7365    6486.0834    78.849176    22.176112    25.456826 
 5194000    230.05171   -647.59192    216009.12   -20567.577    1337.8796   -21905.456    -2127.377    6485.8205    78.849212    22.174992    25.455885 
 5194200    222.11026   -687.16439    216009.12   -20651.044    1291.6957    -21942.74   -2302.8391    6486.4424    78.849704    22.175791    25.456522 
 5194400    229.88653   -552.22697    216009.12   -20631.742     1336.919   -21968.661   -1703.4792    6485.3983    78.849722    22.174025    25.458491 
 5194600    226.67217   -659.56387    216009.12   -20593.401    1318.2257   -21911.627   -2186.8919    6487.3534    78.850131    22.174516    25.457047 
 5194800    230.36981   -674.50958    216009.12   -20549.626    1339.7295   -21889.355   -2212.6211    6486.1134    78.848165    22.174376     25.46017 
 5195000    224.94276   -625.49666    216009.12   -20610.829    1308.1682   -21918.997   -2008.3213    6485.8062    78.847158    22.173437    25.452498 
 5195200    234.71446    -704.2367    216009.12   -20537.204    1364.9961     -21902.2   -2357.9198    6488.3431    78.848887    22.173082    25.458223 
 5195400    222.16847   -704.96466    216009.12   -20606.257    1292.0342   -21898.292   -2409.3317    6487.2524    78.848291    22.172382    25.459919 
 5195600    225.23773   -669.23057    216009.12   -20556.486    1309.8836   -21866.369   -2238.4463    6484.9036    78.848542    22.172183    25.459787 
 5195800    227.18875   -703.94312    216009.12   -20627.204    1321.2299   -21948.434   -2346.3899    6487.2782    78.849662    22.173416    25.466551 
 5196000    225.39237   -574.43552    216009.12    -20541.86    1310.7829   -21852.643     -1780.32    6485.6313    78.847048    22.173697    25.465744 
 5196200    234.95679   -637.68185    216009.12   -20568.513    1366.4054   -21934.919   -2052.0527    6485.3045    78.845429    22.174411    25.467866 
 5196400     225.0541   -718.71027    216009.12   -20612.521    1308.8157   -21921.337   -2401.4738    6488.7328    78.846191    22.175029    25.464773 
 5196600    228.49711   -613.86844    216009.12   -20571.264    1328.8388   -21900.103   -2006.0244    6485.6122    78.845935    22.175252    25.468111 
 5196800    220.92859   -677.49722    216009.12    -20572.02    1284.8236   -21856.844    -2232.076    6487.7501    78.846354    22.176001    25.464431 
 5197000    225.41499   -701.18273    216009.12   -20569.797    1310.9145   -21880.711   -2326.5488    6488.3852    78.846143     22.17653    25.461969 
 5197200    230.57399   -680.90778    216009.12   -20552.659     1340.917   -21893.576   -2282.3816    6485.7748    78.845737    22.178176    25.454245 
 5197400    225.54008   -687.96329    216009.12   -20612.979    1311.6419   -21924.621   -2302.9871     6488.235    78.847009    22.177102    25.458434 
 5197600    227.27651   -699.66647    216009.12   -20618.914    1321.7403   -21940.654   -2316.9045    6489.2175    78.846136    22.176349    25.459357 
 5197800    226.93648   -553.03424    216009.12   -20631.624    1319.7628   -21951.387   -1743.8522    6484.4827    78.845956    22.177785    25.463906 
 5198000    219.47341   -669.25649    216009.12   -20672.364    1276.3609   -21948.725   -2187.6494    6486.5116    78.845761    22.178409    25.458341 
 5198200    231.22549   -722.12765    216009.12   -20572.066    1344.7058   -21916.772   -2438.2856    6488.4634    78.844813    22.178807    25.461991 
 5198400    230.37264   -583.89432    216009.12   -20567.205     1339.746   -21906.951   -1859.0384    6486.0614      78.8441    22.178971    25.465924 
 5198600    230.91095   -701.47393    216009.12   -20583.401    1342.8766   -21926.277   -2362.9362    6487.1461    78.842461    22.178028    25.464044 
 5198800    222.46682   -744.60278    216009.12   -20657.887    1293.7692   -21951.657   -2553.6558    6489.1033    78.841428    22.178824    25.458649 
 5199000    222.28366   -547.62609    216009.12   -20621.668    1292.7041   -21914.372   -1646.5816    6485.0591    78.839291    22.179565    25.458866 
 5199200    225.56089   -742.98039    216009.12   -20513.843     1311.763   -21825.606   -2561.2025      6488.75    78.838321    22.180112    25.471695 
 5199400    223.67759   -706.63939    216009.12   -20634.041    1300.8106   -21934.851   -2311.0324    6487.5113    78.837452    22.179505    25.461955 
 5199600     227.9356   -547.77017    216009.12   -20622.339    1325.5732   -21947.912   -1652.5081    6485.7238    78.835679    22.178483    25.457941 
 5199800    229.20109   -744.69189    216009.12   -20592.978    1332.9328    -21925.91   -2520.4785    6489.0591    78.835154    22.179227    25.458107 
 5200000    228.58335   -686.97072    216009.12   -20611.019    1329.3403    -21940.36   -2282.9393    6489.2743    78.834332    22.179224    25.461282 
Loop time of 11747.5 on 30 procs for 5200000 steps with 9248 atoms

Performance: 382.449 ns/day, 0.063 hours/ns, 442.649 timesteps/s
100.0% CPU use with 30 MPI tasks x no OpenMP threads

MPI task timing breakdown:
Section |  min time  |  avg time  |  max time  |%varavg| %total
---------------------------------------------------------------
Pair    | 0.54171    | 3644.1     | 9599.3     |4772.7 | 31.02
Neigh   | 7.7361     | 474.59     | 1009.1     |1705.3 |  4.04
Comm    | 210.62     | 4039.8     | 8081       |4178.1 | 34.39
Output  | 288.81     | 288.91     | 289.15     |   0.4 |  2.46
Modify  | 149.75     | 3232.1     | 11165      |7524.8 | 27.51
Other   |            | 67.97      |            |       |  0.58

Nlocal:    308.267 ave 586 max 0 min
Histogram: 6 6 0 1 2 0 0 1 6 8
Nghost:    1194 ave 1648 max 893 min
Histogram: 12 0 0 0 11 1 0 0 0 6
Neighs:    0 ave 0 max 0 min
Histogram: 30 0 0 0 0 0 0 0 0 0
FullNghs:  31272.7 ave 65409 max 0 min
Histogram: 12 3 0 0 0 0 0 1 5 9

Total # of neighbors = 938182
Ave neighs/atom = 101.447
Neighbor list builds = 538560
Dangerous builds = 0
write_data 		${DIR}/data.${NAME}_run
write_data 		run_16/data.${NAME}_run
write_data 		run_16/data.ibeam_cooling_16_run
Total wall time: 3:16:10
