LAMMPS data file via write_data, version 12 Dec 2018, timestep = 2000000

3958 atoms
1 atom types

7.3788339400223890e-02 4.9926211660598746e+01 xlo xhi
7.3788339400223890e-02 4.9926211660598746e+01 ylo yhi
7.3788339400223890e-02 4.9926211660598746e+01 zlo zhi

Masses

1 18.15

Atoms # atomic

3524 1 3.0535515041549575e+00 2.2143847977024960e+00 1.3317840379391854e+00 2 0 1
289 1 5.7199268866757960e+00 2.1459396122728647e+00 1.4466044593771861e+00 0 1 0
945 1 1.3659495696786216e+01 1.2086219841044270e+00 1.7865912803005437e+00 0 0 0
229 1 1.3011466329259006e+01 3.7577902371357026e+00 8.7388304317530163e-01 1 0 0
541 1 1.6510249685830740e+01 1.2906375681499165e+00 1.4568580710154899e+00 0 -1 1
3513 1 1.7864714690378218e+01 3.6591951742717650e+00 2.2497202103665401e+00 0 2 -2
227 1 2.4339545043109212e+01 5.3497018907249672e+00 1.5675715388470183e+01 -2 0 -1
112 1 2.4370997349619589e+01 7.9439576576173589e+00 1.2293003601371923e+01 0 1 0
1456 1 2.2386586283606542e+00 4.6242194164507717e+00 2.6465365192021588e+00 1 1 0
760 1 3.6620635075711765e+00 6.8953070212164240e+00 1.4058005797111282e+00 -1 0 1
3377 1 6.7543285637571966e+00 4.0081821982459047e+00 2.8644448148544499e+00 0 0 0
3717 1 6.1839823809338359e+00 5.9372733680453873e+00 1.4132173783647934e+00 1 2 1
3295 1 9.3914238520614841e+00 3.6696300977065626e+00 3.3995768868815786e+00 2 0 2
143 1 1.0185661971105381e+01 3.6941338306148599e+00 6.8296425664148019e-01 0 -1 0
1943 1 1.3719669457874192e+01 5.4757462286016079e+00 2.8563331852096998e+00 0 2 -1
1136 1 1.6056079239363871e+01 5.7036318109118289e+00 1.9738345162211206e+00 0 0 0
2392 1 2.0433662750258719e+01 5.2371815682505742e+00 1.5049885676076682e+00 0 0 0
3757 1 2.4093366339542303e+01 7.1652923633311936e+00 7.9151503441730198e-01 0 0 1
2299 1 1.9298908325606425e+00 1.0014632080066235e+01 2.2271234242762445e+00 1 1 1
1018 1 6.3217306178782264e+00 1.0121640838022072e+01 2.1889402049674995e+00 1 -2 1
2813 1 7.8063123867886866e+00 8.0021481042158396e+00 1.7403020363265969e+00 1 -2 -1
22 1 1.0497178873945202e+01 8.3343914946993536e+00 2.9904566781206841e+00 0 -1 -1
2276 1 1.2296828042974987e+01 7.2373261014435570e+00 1.3874838695137566e+00 0 0 -1
2821 1 1.4374853898373321e+01 9.6901630403495354e+00 2.3150097955536797e+00 1 0 2
2344 1 1.6663050975935359e+01 8.0692340724446616e+00 3.0439388477081786e+00 0 2 0
3275 1 1.8512569339983841e+01 1.0115507689843257e+01 2.2291610234070616e+00 0 1 1
3474 1 2.1076699569699038e+01 9.7242063274378658e+00 2.7625130208120412e+00 1 0 0
2195 1 2.1475249032026625e+01 8.0033132237354287e+00 8.8419162860947964e-01 1 0 -1
649 1 4.0147632065250320e+00 1.0341970117054915e+01 5.5365766507619685e-01 -1 1 2
1236 1 1.3762008608545828e+00 1.4325987153153143e+01 2.7032478812716136e+00 0 1 0
3854 1 1.0354429166375228e+01 1.1192611987670922e+01 1.7563875193103680e+00 0 0 1
3748 1 8.3243239165914069e+00 1.2871401813773414e+01 2.1087640490296335e+00 2 0 0
1972 1 1.1556128338236084e+01 1.4060239295005031e+01 1.8792266338137886e+00 2 0 -1
905 1 4.2222197909135764e+00 2.2650718918805612e+01 1.6038453561876427e+01 1 0 0
2593 1 1.5361535123500419e+01 1.2010923147834427e+01 1.3141026165408949e+00 -1 -1 1
1557 1 2.2707054006177685e+01 1.1695534858688177e+01 1.5786200430126118e+00 -2 0 1
2350 1 2.1902575582020798e+01 1.3790882476434311e+01 3.0164567685036379e+00 0 0 0
3096 1 6.7184987409935397e+00 2.4065599542883653e+01 2.4374186991747635e+00 -1 0 1
1189 1 4.1739284199809186e+00 1.4111722626721884e+01 2.3367954580911126e+00 0 1 -1
403 1 4.9923492706427810e+00 1.6871596042899764e+01 2.4725743705300460e+00 1 1 0
2754 1 1.0036690153807356e+01 1.6010925773945431e+01 1.3121854122913803e+00 1 -1 1
3042 1 9.3305614996416235e+00 1.8171209612318741e+01 2.8254981717264998e+00 -1 -1 0
3832 1 1.3613516360901677e+01 1.6615217209290059e+01 8.9895608311645203e-01 1 0 2
2969 1 1.7690169376001734e+01 1.6016091915833826e+01 2.1018855313040339e+00 1 -1 1
1267 1 2.0188340361578607e+01 1.5307409629535446e+01 1.3972355012883955e+00 1 1 -1
835 1 2.1771172559721357e+01 1.7573618028699315e+01 1.2006277127136049e+00 -1 0 0
520 1 4.3801892641373569e-01 2.2183537783653914e+01 1.3721954266187355e+01 -1 -1 2
2578 1 2.4471912733401329e+00 1.8061024348412523e+01 2.8098905153750438e+00 0 -1 0
3779 1 1.0015513355101801e+01 2.0273394778682817e+01 1.5531963298697100e+00 1 0 0
1965 1 1.8675478065679226e+01 2.0819810437795283e+01 2.7370869847125459e+00 0 -1 -1
1598 1 2.4590628196778965e+00 2.3417131622388158e+01 1.4809536296791459e+00 1 1 1
3403 1 5.5042964264617689e-01 2.2136316112523222e+01 3.1040266261222067e+00 -1 0 1
2120 1 2.4768711199538270e+01 2.3863389473367529e+00 2.5469044753142391e+00 1 -1 0
3915 1 4.3942660125454500e+00 2.3686331291560474e+01 3.3947631872753914e+00 0 0 1
2313 1 7.6643404489146043e+00 2.1452210551395499e+01 1.1876407959043520e+00 0 -1 1
550 1 1.4304297664667121e+01 2.2325594047661379e+01 1.7900652160600243e+00 -1 0 0
1758 1 1.1788182229627974e+01 2.2099668921698985e+01 2.8585270793480277e+00 0 0 1
2765 1 2.0296676569929858e+01 2.3306588227515547e+01 3.0089266758526771e+00 -1 -2 0
2403 1 1.7492230421800315e+01 2.4368089877464595e+01 1.2023162082539644e+01 1 -1 1
1832 1 2.2981202445441156e+01 2.2836204097108471e+01 2.3857264764745980e+00 0 1 -1
775 1 1.9590110833698013e+00 1.7173622100903454e+00 6.5475847349599201e+00 1 1 -1
1712 1 2.6731419953971609e+00 3.9719675390972506e+00 5.2782536433624383e+00 -1 0 0
977 1 5.4867445239143384e+00 3.6909359763111995e+00 5.3079757824406499e+00 -1 1 1
161 1 1.0263485792186165e+01 1.3634937116237507e+00 4.1029068216804276e+00 1 1 -1
951 1 1.3671519138265491e+01 3.0049642170227222e+00 6.5048555653020239e+00 -1 -1 0
3767 1 1.2823160201658652e+01 1.2943955718505662e+00 4.5642152427795342e+00 1 0 1
3730 1 1.9744651418088221e+01 2.5077239893584129e+00 4.2524406298221855e+00 1 0 3
1636 1 1.0872787827346719e+00 1.7814891938300249e+01 6.3708178245675118e-01 0 0 1
2001 1 1.4389238480742733e+01 2.4877907284345426e+01 1.3069217602534695e+00 2 1 0
3063 1 9.9905820789750184e+00 4.6470324654896809e+00 5.9366788814421643e+00 1 1 0
284 1 1.2815949451883675e+01 5.2975229669483852e+00 5.4627902097941483e+00 0 0 0
3522 1 2.1117727437860360e+01 4.7668779640424468e+00 4.3539854329915739e+00 2 1 1
1607 1 2.0573751450699170e+01 6.9004583996892466e+00 5.8686550866234128e+00 0 0 1
3334 1 2.3769424801950493e+01 4.2487668057770005e+00 4.3799188042974437e+00 -1 1 3
3402 1 1.2127177321774754e+00 7.5979106069411895e+00 6.0214485676147689e+00 1 1 1
979 1 3.0705363300458823e+00 8.1229198179354629e+00 3.7317300058241978e+00 0 0 0
1876 1 5.2232344015523173e+00 9.2154465150242633e+00 4.4776759599037828e+00 0 -1 1
493 1 7.1312267133153924e+00 7.9689338625050876e+00 6.1214650408432041e+00 -1 0 0
1775 1 9.9436076112979173e+00 7.5049289417240823e+00 5.7941327476429008e+00 -2 1 1
2200 1 1.3399449059729928e+01 9.4553351402076160e+00 6.5171242015480262e+00 1 1 0
87 1 1.2662102888312809e+01 1.0204356049312249e+01 4.0948295872479061e+00 1 -1 0
3292 1 1.7847959079694739e+01 7.7089186396397213e+00 5.5106743428564231e+00 1 2 -1
2230 1 2.0397947210473351e+01 3.8916067910609802e+00 1.6625338469429558e+01 1 -1 -2
777 1 2.1908567452528260e+01 9.0674371576884614e+00 5.1276298994394729e+00 -1 -1 1
3378 1 1.6518387771749503e+00 1.1939612819602671e+01 5.8495440842186017e+00 0 0 0
757 1 5.9444468726005961e-01 1.2052788611016457e+01 3.4550247055269296e+00 -2 0 1
1041 1 4.2021986336283579e+00 1.1181714216316481e+01 6.2171458489975624e+00 -1 0 -1
352 1 5.5823638026505353e+00 1.2643647938104666e+01 3.9193428275888378e+00 0 0 -1
1378 1 8.2416099497984945e+00 1.4832932783299025e+01 3.9517473874688269e+00 -1 -1 1
1277 1 9.9887493414469564e+00 1.3811972210924466e+01 5.9981437363255035e+00 1 -1 1
2553 1 1.1962027510224457e+01 1.3175130835277054e+01 4.4745404641163828e+00 2 -1 0
182 1 1.6317239901833759e+01 1.3915569798354472e+01 3.3324136999792477e+00 -1 0 1
902 1 1.8000506986066330e+01 1.1914934740574370e+01 4.4007211441752903e+00 -1 -1 1
1648 1 2.0177720124770858e+01 1.3131156728527133e+01 5.3748268609265439e+00 2 0 2
42 1 2.1183323474041416e+01 1.1166589677647304e+01 6.6038113515322800e+00 0 0 1
1991 1 9.2283097695244032e-01 1.6464796359640715e+01 4.0733795196217191e+00 0 1 -1
3768 1 1.5834854682566741e+00 1.6406275749975681e+01 6.8801928869411126e+00 0 -1 1
1356 1 6.3032688221423960e+00 1.4134718479061744e+01 5.9028708265779652e+00 -1 2 -1
2804 1 6.3195605788204077e+00 1.6777123302761002e+01 6.4733873556715720e+00 -1 -2 2
1757 1 1.3524747127454871e+01 1.7298335580260638e+01 3.7842687462724305e+00 0 -3 1
3801 1 1.1251785715404866e+01 1.8465297403292350e+01 4.5673541356357932e+00 0 0 0
1807 1 1.4286560621129212e+01 1.4630622074692806e+01 4.8880727213367274e+00 0 1 2
3460 1 1.8081235652721944e+01 1.7078532192851714e+01 4.6927781705865161e+00 2 0 -1
3121 1 1.9666332869615619e+01 1.5515586056510742e+01 6.2665303390441078e+00 -2 -1 0
671 1 2.4061461144524984e+01 1.5081441658302071e+01 3.7932675563008922e+00 0 0 0
2388 1 2.3360606122402981e+01 1.6967169746451852e+01 5.2845551082056135e+00 0 0 1
3504 1 2.0656510138447173e+00 2.0236075136280782e+01 4.2190541907912964e+00 1 1 0
3843 1 2.0696654940964891e+01 2.3892712090668986e+01 1.5452410568729261e+01 1 -1 0
2595 1 6.8099168730404820e+00 1.7851437916035270e+01 4.0668960963743288e+00 2 1 0
1243 1 6.5096664591373132e+00 2.0690068265364811e+01 3.7441386552068230e+00 -1 0 1
2271 1 8.3473242236199283e+00 2.1574889574379327e+01 5.5461296608584538e+00 0 -1 0
2655 1 1.0965401984270292e+01 2.1009381375047056e+01 5.4820190835939346e+00 0 -2 0
443 1 1.5885847179852524e+01 2.1115003582550006e+01 3.5877533891994959e+00 1 1 0
1829 1 1.5514905398827452e+01 1.8693850306212713e+01 4.6838444360636640e+00 2 0 1
186 1 1.9770923805798958e+01 1.9101041642577940e+01 4.6497708574981038e+00 0 1 -1
371 1 2.0322299299153872e+01 2.0247753371813214e+01 7.2483877397091039e+00 0 -1 1
3697 1 2.3723313872101681e+01 2.0832948522986872e+01 3.6548396105131351e+00 2 0 0
1986 1 2.2201150077299118e+01 1.8565798728626017e+01 3.5294012414169531e+00 0 0 0
51 1 4.2419681559901754e+00 2.1384794738946653e+01 5.1659878896894584e+00 0 -1 2
2164 1 8.3506069727631029e+00 2.4158515107350478e+01 6.5619296538164535e+00 1 -1 0
577 1 1.0931200544015063e+01 2.4476305701391546e+01 3.4816594200522819e+00 1 0 1
3296 1 1.6637339599853615e+01 2.2640295332558370e+01 5.9566537061702665e+00 1 -1 0
1799 1 2.0040907266939403e+01 2.4392395619799142e+01 5.3351908038775990e+00 0 1 0
1083 1 2.1309657448303444e+01 2.2436445204334465e+01 6.9289421207058792e+00 0 -1 0
1860 1 2.3810055229213315e+01 2.1693952277316569e+01 6.0644123309514368e+00 0 -1 3
1049 1 2.7058110026617079e+00 9.5567615209908341e-01 9.2465921333202346e+00 3 2 -1
3684 1 5.9943177121654738e+00 1.3588260755513866e+00 6.6026976129981012e+00 0 1 0
574 1 5.5513186892701007e+00 1.0101507586918295e+00 9.2500976540499735e+00 1 1 1
473 1 8.4849014416593640e+00 9.5915892802781122e-01 6.2669566911529229e+00 0 1 1
526 1 9.6412959823249853e+00 2.7946916715650563e+00 7.8832990079453724e+00 -1 0 0
2990 1 1.2144591174109561e+01 2.3627112339689336e+00 8.8155914218634397e+00 0 1 0
2041 1 1.6543049903175127e+01 3.5090254284724169e+00 7.2811549656089678e+00 -1 2 0
321 1 1.5841106596387529e+01 2.6671316596808059e+00 9.7803742151980604e+00 2 1 0
3214 1 1.8981294218765939e+01 2.3491524274994191e+00 6.7572192012758503e+00 1 2 1
3651 1 2.0665438355425433e+01 3.3948805994978701e+00 8.2758940780707757e+00 0 1 0
3349 1 2.3149480565163717e+01 2.0630170308013835e+00 8.4771389030136728e+00 0 2 -1
2684 1 2.2903062470427344e+00 5.5601703482323686e+00 7.5308922195727126e+00 0 -1 0
1503 1 1.3674396016551024e-01 1.8252930684971073e+01 8.2752800047629549e+00 0 1 0
564 1 6.4298763722701580e+00 5.5924009794841316e+00 7.4047470150411367e+00 -1 0 2
3537 1 4.3169105469965094e+00 5.9230384161045535e+00 8.8742061887474719e+00 2 1 1
3622 1 7.9833627769701119e+00 4.2274691177397186e+00 9.2977281651482055e+00 1 -1 0
2395 1 1.4051068968158800e+01 6.2925349609228718e+00 9.9370540699469743e+00 2 -1 1
414 1 1.4092864938580060e+01 6.9575578646591163e+00 7.2449578516436608e+00 0 -1 1
1926 1 1.6966296766140136e+01 6.3153391751001324e+00 7.6632550025703230e+00 -1 0 2
612 1 2.1584721638330329e+01 6.2115223464753910e+00 8.0973250731600572e+00 1 0 1
384 1 2.4249993533212788e+01 6.3645739344977139e+00 8.1883456159094550e+00 -1 0 2
1357 1 1.2434100841746285e+00 9.1549307923396643e+00 9.8381398991034548e+00 1 1 -1
594 1 1.6421189426122545e+01 1.1803994720162351e+01 1.6536127275514136e+01 0 -1 -1
3247 1 5.5641606442134082e+00 9.5579858661438362e+00 8.5652751840850172e+00 1 0 -2
516 1 3.8246918884129424e+00 8.3096840122380993e+00 1.0052808659712488e+01 0 1 2
3562 1 1.1281427794768101e+01 9.1387333930836423e+00 7.6049243650263740e+00 0 1 1
1895 1 1.7384697800017271e+01 1.0334338713497504e+01 6.4910251475453427e+00 0 -1 0
1848 1 2.1208598301346868e+01 8.7378126997927232e+00 9.5711575074188495e+00 0 0 0
3871 1 8.6009026925962029e-01 1.3977234653763624e+01 7.3875703594001951e+00 1 1 -1
2492 1 6.4193654980170027e+00 1.2958885437801069e+01 8.4980909269472775e+00 1 -1 -1
3676 1 8.3014854285286841e+00 1.1147320210591944e+01 9.2555428751245685e+00 2 1 2
485 1 1.0434450310491343e+01 1.1907183074624404e+01 7.8986931775822917e+00 0 0 2
722 1 1.1690858360818476e+01 1.3195390441810067e+01 1.0003589530495383e+01 -1 2 1
1257 1 1.5197420317045333e+01 1.1263970133484317e+01 7.8848303873084991e+00 0 0 0
2047 1 1.5090659323258034e+01 1.3863462258884349e+01 7.3888898981428746e+00 0 0 0
263 1 1.9622548272410022e+01 1.0662851351826786e+01 8.3896850886314649e+00 1 1 -1
1796 1 1.8960332961913029e+01 1.2954801771575729e+01 9.7490107977835265e+00 2 1 1
547 1 2.3675973953061799e+01 1.2218857132750605e+01 7.3674643751427107e+00 0 0 -1
3429 1 2.2628126194409923e+01 9.8207982700750707e-01 1.1808694737523129e+00 0 2 -2
495 1 8.4606716508687896e+00 1.7388124472539634e+01 7.8115145149656477e+00 1 0 -1
2511 1 1.0633939857702305e+01 1.6568001665613700e+01 6.6697774869966819e+00 0 2 2
1785 1 1.2233754921778569e+01 1.7478995406244501e+01 8.5849194814628884e+00 1 1 1
3675 1 1.3500946628543495e+01 1.5295290236568494e+01 9.4794182091168135e+00 0 1 1
1957 1 1.7383629777190421e+01 1.7225893328184696e+01 9.9245724843033809e+00 0 -1 1
15 1 1.7752378683963702e+01 1.5033813856310175e+01 8.3028802183313939e+00 0 0 0
1351 1 2.1819631104762582e+01 1.6241969806512078e+01 7.5106803648253884e+00 0 0 -2
1108 1 2.2879913232721314e+01 1.4304080733338822e+01 8.8866246108459244e+00 -1 0 -2
3517 1 6.6301611821038007e+00 1.8491188918038819e+01 1.6368611239288484e+01 2 0 0
853 1 3.9574588275220930e+00 1.7602614663192348e+01 7.4917006072937591e+00 0 1 1
1452 1 4.6855383998405697e+00 2.0106279064244607e+01 7.5537709208870902e+00 -1 -2 -1
814 1 7.7067097477058732e+00 2.0094616886806019e+01 7.5694643817164389e+00 1 0 1
1988 1 1.1156157386219988e+01 2.1016137548721705e+01 1.0357589805936769e+01 0 -1 -1
3492 1 1.2642962254535416e+01 2.1416668713838842e+01 7.9046065577691866e+00 0 -1 1
2582 1 1.4218916407650356e+01 1.9375135535797089e+01 7.5423808174317903e+00 2 -1 1
1782 1 1.6257156075572762e+01 1.9620011688055435e+01 9.2138088629708417e+00 0 0 -1
1090 1 1.7886316476590366e+01 2.1455977466509697e+01 7.9382393601387413e+00 0 -1 0
2622 1 2.1352279734016008e+01 1.8608791155094849e+01 8.8046233391509130e+00 0 0 0
3886 1 2.3540121932639938e+01 1.9488510775839341e+01 9.7967757764959824e+00 1 1 0
3224 1 3.1058721536659988e+00 2.0986680067189841e+01 9.6274905860762860e+00 1 0 0
1445 1 1.9784907344165013e+00 2.3305450446368813e+01 8.6968108126741956e+00 -1 -2 1
2825 1 4.2292209762940196e+00 2.3676500669937528e+01 7.2161204461242399e+00 1 -1 1
1802 1 6.4975507375173507e+00 2.4341878114362956e+01 8.7746121626553020e+00 -1 0 1
940 1 7.4428875573821554e+00 2.1664041896890918e+01 9.6776079993112756e+00 -1 1 1
2444 1 9.6414040267825971e+00 2.3162549483781117e+01 1.0075168197751951e+01 -1 1 0
1643 1 1.0232459317410617e+01 2.4962404582603316e+01 8.2038483323260234e+00 -1 1 -1
546 1 1.4391695223075184e+01 2.3763485143937988e+01 7.2493705228425878e+00 0 1 0
2613 1 1.8288080317155401e+01 2.3739993482533020e+01 9.4931962626838224e+00 0 -2 1
868 1 2.0729780793747427e+01 2.4139642583759045e+01 8.9438204027762360e+00 0 0 2
2478 1 2.0557312625087367e+00 2.9481787944142641e+00 1.0696615273171819e+01 1 -1 0
3819 1 9.5022010247760438e+00 1.8393194816844787e+01 1.6556385050899760e+01 1 -1 1
2295 1 6.4520214732706558e+00 2.6229522438452313e+00 1.1189936212516313e+01 0 1 0
2763 1 7.9721415655633079e+00 1.0894122088249634e+00 1.3056633973620285e+01 2 -1 3
2621 1 1.8754304813250533e-01 2.4705773176152974e+01 1.3064307959021670e+01 0 1 1
3271 1 2.3909221921669950e+01 2.1395674632711273e+01 1.3799274096106860e+01 1 0 1
322 1 2.0132177532254254e+01 2.6599336105587192e+00 1.0646806808827453e+01 -1 0 0
678 1 4.6203759520951432e-01 9.8246043518584294e+00 7.2781465369448259e+00 0 1 1
1163 1 2.4191788081003828e+01 3.6011829060005565e+00 1.1761967775396585e+01 2 1 0
3158 1 1.0255810360051711e+00 6.5156887816166433e+00 1.3464665950809266e+01 1 1 0
2374 1 4.3393155693328165e+00 4.2275873402276840e+00 1.1346335918634844e+01 2 1 -1
935 1 9.4836759972469817e+00 5.6310920845753598e+00 1.1067882863913956e+01 -1 0 1
404 1 1.0455709169890017e+01 4.5913074669408207e+00 1.3467966606254603e+01 2 0 0
3516 1 1.3644412716484442e+01 3.9029018870398278e+00 1.0544855456517567e+01 1 0 0
1872 1 1.2878702613643728e+01 3.4717173804700634e+00 1.3235215753506933e+01 1 -1 1
267 1 1.7880447603614812e+01 6.4773501787917214e+00 1.0349126715178826e+01 0 0 1
987 1 1.7577449177257026e+01 4.0444570933878667e+00 1.1350148303219131e+01 0 1 1
2418 1 2.1089164707779759e+01 6.1880083413971674e+00 1.3229910636811324e+01 0 0 1
3467 1 2.1816663778791856e+01 3.7929805757995996e+00 1.2637770902346668e+01 0 0 2
1039 1 1.8783165605578365e+01 2.1839114817731570e+01 1.6606039844213935e+01 0 1 0
3873 1 5.3057665718738498e+00 8.2540402051793578e+00 1.2206953473861949e+01 0 0 1
1856 1 7.8468810872676098e+00 7.3944162034931464e+00 1.2257596213529732e+01 -2 1 -1
1207 1 8.9398423122101267e+00 1.0058527433846471e+01 1.1474997111512865e+01 0 1 0
2491 1 1.1607302096786599e+01 7.3405758418961433e+00 9.9056159563524258e+00 0 0 0
271 1 1.1607188483339606e+01 9.6360006054320451e+00 1.1684305457140290e+01 0 -1 1
3745 1 1.5743119218632758e+01 8.2633299352863094e+00 1.0871829138356082e+01 0 0 0
2142 1 1.9676055618209134e+01 7.8449098899685286e+00 1.1583164215801725e+01 0 2 1
862 1 1.8720734661921110e+01 1.0037659767925646e+01 1.3059851958180699e+01 -1 -2 1
1382 1 1.9838815821093721e+01 2.4692751849001940e+01 6.5339868863134620e-01 0 2 2
1539 1 2.3399736211857828e+01 9.8241374993757979e+00 1.0703866337757962e+01 -1 0 0
850 1 9.5986306757341733e-01 1.1159581801719405e+01 1.1382240125209652e+01 0 1 1
527 1 1.7139968442938720e+00 1.3549263994410756e+01 9.8786159469538521e+00 1 1 0
3065 1 4.5088278781296935e+00 1.3920907371435751e+01 1.0693132616661543e+01 1 0 -1
1156 1 5.8379027108283053e+00 1.2851087908125143e+01 1.2756226144691880e+01 0 0 0
3816 1 8.5293321908534114e+00 1.2052217563011190e+01 1.2920989213932332e+01 1 -1 1
3229 1 1.2821356674788285e+01 1.1795362650685801e+01 1.1726534305569359e+01 -2 -1 -1
3847 1 1.5170570578793825e+01 1.1021071907810288e+01 1.0580639219282833e+01 1 0 0
326 1 1.7331196400444551e+01 1.2014692089545177e+01 1.2057220309000870e+01 0 0 0
819 1 2.1238291831811132e+01 1.3864833954099471e+01 1.0858069322378094e+01 2 1 -1
3225 1 2.2561385555974791e+01 1.1979172901575861e+01 1.2243562324624497e+01 1 0 -1
2913 1 5.1466849592083164e-01 2.3762588035040166e+00 1.3017489782779421e+01 1 -1 1
2085 1 2.2935388905418264e+00 1.7491924795033761e+01 1.1736557020084136e+01 2 0 -1
3659 1 2.2273863981120268e+01 3.5206518815008567e+00 9.1357517960163462e-02 0 0 1
1846 1 4.4262954081212520e+00 1.6749822720961479e+01 1.0248828778179309e+01 -1 0 1
1615 1 8.4940830434573069e+00 1.6843176225529653e+01 1.0482556187935998e+01 -2 0 1
3012 1 9.8772168742951045e+00 1.4049128645786128e+01 1.1682111794696469e+01 0 1 1
2711 1 1.6828128710637532e+01 1.4460996271488129e+01 1.3054935035115680e+01 0 1 1
1015 1 1.5470815906672691e+01 1.6015132648375705e+01 1.1266471363221012e+01 0 -1 -1
3764 1 2.0945553818745132e+01 1.6077387559025450e+01 1.2493578153961931e+01 0 1 1
780 1 2.3419106354541199e+01 1.6985335897857976e+01 1.3240020852650870e+01 -2 0 0
2215 1 1.2593526795572147e+00 1.9463458706241259e+01 1.0321875368558986e+01 2 1 0
889 1 6.3539610008582716e+00 1.7821782984870570e+01 1.1943167848606542e+01 1 0 0
1482 1 6.6369813110628408e+00 2.0620715126629815e+01 1.2012710326556261e+01 0 1 1
2024 1 1.0761180793122293e+01 1.8408288092534306e+01 1.0582617957417453e+01 1 0 -1
1746 1 1.1710163357051279e+01 1.7688236438025452e+01 1.2849973870056880e+01 0 0 0
832 1 1.4606958479413326e+01 1.8202461925557678e+01 1.2743175127065443e+01 0 0 1
407 1 1.5142542593759604e+01 2.0573294054187141e+01 1.1473473197905177e+01 0 1 2
1771 1 2.0026225583846184e+01 1.7842176284111634e+01 1.0851378081463276e+01 1 1 3
1527 1 1.9299604681392950e+01 2.0067438719154477e+01 1.2271081116754779e+01 2 1 1
2873 1 1.7836549991152356e+01 7.4085087877211908e+00 1.6500491619013911e+01 1 0 1
3256 1 1.5121606848738640e+00 2.2583775966513159e-01 1.4278459763363141e+01 0 1 1
1566 1 4.2151602617488528e+00 2.1883199934944102e+01 1.1963040889700364e+01 -2 2 1
2351 1 4.1548425379866805e+00 2.4640897390232499e+01 1.1939895751342767e+01 0 -1 0
1765 1 1.4374463761772529e+00 2.4891534487553326e+01 1.0655875422423861e+01 2 0 -1
426 1 1.2926264973387461e+01 2.1920749312226032e+01 1.2018944871112195e+01 2 -2 -1
3702 1 1.0626314490947291e+01 2.4470850489075012e+01 1.2237247692239499e+01 0 -1 1
2058 1 1.6998931805149123e+01 2.1728569830234402e+01 1.3139133463866539e+01 0 -1 1
1065 1 2.4560178365064374e+01 3.8695747394250102e+00 6.9299918435230641e+00 3 1 -1
2501 1 2.0742177722395898e+01 2.1938461928189859e+01 1.1379411029254770e+01 1 1 0
2460 1 2.3969068519982471e+01 2.4386396610440190e+01 1.0114002539592891e+01 -1 0 1
1959 1 2.3522618037822195e+01 2.1825557744946096e+01 1.1210106665173305e+01 0 0 0
2042 1 4.1348279926683823e-01 1.5733972947485860e+01 1.1176423979542390e+01 2 0 0
2083 1 3.7413175493746058e+00 8.1341374674509526e-01 1.5631643785238939e+01 1 0 1
1006 1 2.4913991832460635e+01 6.5679714543730547e+00 3.2527352350280823e+00 0 0 0
3765 1 8.8234880253922192e+00 3.0563338130279143e+00 1.4766615360168034e+01 2 -1 2
2477 1 1.3355744881498516e+01 8.8005733104630801e-01 1.3731650470766839e+01 1 0 -1
2416 1 1.1569151172514548e+01 2.3809523201350657e+01 1.5768410629149971e+01 -1 -2 -1
593 1 1.7517319620304860e+01 1.3851915286220187e+00 1.4524272492356641e+01 1 0 -1
302 1 1.4429166858502260e+00 1.8107195345089469e+01 1.6158193770546895e+01 -2 0 0
915 1 2.1472529481358528e+01 2.0318344199080300e+00 1.4851493912893766e+01 1 0 1
1728 1 2.4158001120875365e+01 1.1893380323297846e+00 1.5136049590723259e+01 -2 2 2
3343 1 3.9114301372712603e+00 6.2838270789217052e+00 1.3250481088779720e+01 1 0 -2
3198 1 4.8183328649899160e+00 5.2534905929161884e+00 1.5497112696763342e+01 1 2 -1
1601 1 7.3609233006003532e+00 5.1413531098013472e+00 1.5876355327718194e+01 3 1 0
1795 1 1.0912280424834318e+01 6.6650327426942582e+00 1.5098513012416277e+01 -1 0 2
3619 1 1.4631351967908968e+01 5.2226835076879734e+00 1.4510973462678928e+01 0 1 1
484 1 1.7048012083708237e+01 4.1773989818766033e+00 1.3948876821810495e+01 -1 0 2
2575 1 1.8935999115070594e+01 5.5113908435419718e+00 1.4994051504823464e+01 1 0 0
1220 1 1.4642553358027156e+01 2.0525547820726743e+01 1.6160368676647678e+01 -1 0 -2
2332 1 3.3905407169369345e-01 8.8335975047036204e+00 1.4779237770682872e+01 3 0 1
3276 1 7.4437125389216940e-01 1.4806149318641344e+01 2.0738329099181227e-01 0 1 1
1719 1 4.5391753681066502e+00 1.0724878263880694e+01 1.3207526637025506e+01 0 0 2
21 1 8.2301061134807867e+00 7.5136135582618166e+00 1.4765926594677460e+01 0 0 -1
3444 1 7.5917158912125560e+00 9.5936286886647046e+00 1.6112462296411881e+01 0 0 0
1581 1 1.2373280059954681e+01 8.6304393949206926e+00 1.3820746711535730e+01 1 1 0
2891 1 1.4940265414635201e+01 7.8961360400326006e+00 1.3654922248584073e+01 1 1 1
558 1 1.6594020834655154e+01 9.4174804174006930e+00 1.5149604685691198e+01 0 1 -1
2679 1 1.6625415710966745e+01 2.2413779734795980e+01 1.5673225273187334e+01 0 -1 0
3929 1 2.3335164387999935e+01 7.1200065680039311e+00 1.4599621405937310e+01 0 1 1
2026 1 2.1833698119463545e+01 9.4643173612963309e+00 1.5599423652496204e+01 2 -1 1
1365 1 1.9676688821235442e+00 1.0684327355790463e+01 1.3686970538075666e+01 0 -1 0
3250 1 9.5210738695362584e-01 1.2812121983058198e+01 1.5231717532331933e+01 0 0 2
1967 1 1.3014680550621563e+01 6.2497669932857502e-01 1.6371193858552981e+01 2 -1 0
3147 1 7.7708082994991203e+00 1.4175416215035138e+01 1.6123750166804957e+01 0 0 1
1004 1 9.0180266884869908e+00 1.1811984541523536e+01 1.5585843705917222e+01 0 1 0
1811 1 1.2682960639649666e+01 1.3009127168505721e+01 1.3945733450624164e+01 0 -1 2
1192 1 1.1836841211010638e+01 1.0951556062051047e+01 1.5471232282185824e+01 -1 0 -1
2737 1 1.5196541423205648e+01 1.4042893482257481e+01 1.5136601572053712e+01 -2 0 0
2011 1 2.4767360054033379e+01 1.4709573680715633e+00 1.0338451322523095e+01 -1 0 1
3360 1 2.0802103613921652e+01 1.1314333484627731e+01 1.4083494400860220e+01 1 2 0
1663 1 2.0245471394704431e+01 1.3573052290348743e+01 1.5615216142864790e+01 1 0 0
3050 1 5.4164595865486920e+00 1.4477065662911437e+01 1.4754983881143820e+01 -1 1 1
3438 1 5.4955984123182837e+00 1.7113610709309157e+01 1.4386778275325673e+01 1 -1 1
1182 1 1.0014376135869593e+01 1.5897539894069812e+01 1.6266683279794268e+01 0 1 -1
2842 1 1.0968130734392760e+01 1.5365670616577928e+01 1.4039264822793770e+01 1 -2 0
3226 1 1.9018882767025495e+01 1.5696948160829090e+01 1.4322120745127840e+01 1 1 -1
2609 1 1.8326382259610298e+01 1.7685352359220254e+01 1.5783317199196446e+01 0 -1 0
2905 1 2.4551239296121381e+01 1.5150621560005973e+01 1.4798553416737269e+01 -1 -2 2
2531 1 2.4582014623604181e+01 8.6172234638768597e+00 4.6507800982124330e+00 0 -2 0
1455 1 2.0809007991260493e+01 5.1044089216927369e-01 3.0392005267049154e+00 0 2 2
3900 1 3.1398695563924486e+00 1.8514552364010918e+01 1.4231177649172038e+01 0 0 1
2942 1 2.8732521205206698e+00 2.1156374876608290e+01 1.4063591377145856e+01 -1 0 -1
1603 1 6.5849041270554816e+00 2.1312886295935762e+01 1.6538675201844523e+01 0 -1 1
2837 1 3.3925190504765204e+00 1.3622508459474682e+01 1.6110734098016167e+01 -1 -3 1
3523 1 1.0650977362298859e+01 1.9754132428417581e+01 1.4431059290976316e+01 0 1 -1
2318 1 1.2523954723262568e+01 2.1551691359637218e+01 1.4766685609360927e+01 3 0 0
2106 1 6.1493221315082813e-01 4.6978029034704747e+00 9.2485916717980015e+00 2 1 1
2631 1 1.5505846478941542e+01 1.8215441202299363e+01 1.5411787917362876e+01 0 -2 0
1460 1 1.9819944612606157e+01 1.9720293421646705e+01 1.4794935903119153e+01 -1 1 0
3243 1 2.2496946204163596e+01 1.9214079951720613e+01 1.4596391450652723e+01 1 0 -1
1554 1 2.0117504240375887e+01 2.4374393599502444e+01 1.2781536406071496e+01 0 0 0
1626 1 4.9102692152051999e+00 9.9020206089450884e+00 1.5920711983501699e+01 -1 0 -1
1868 1 2.3644079911186331e+01 2.3469469695406811e+01 1.5659593349773772e+01 0 0 -1
2316 1 9.1619436544317239e+00 2.3558220692476400e+01 1.4325809546197288e+01 0 -1 -2
699 1 8.3756649669245213e+00 2.0932272328269129e+01 1.4486831555051692e+01 0 0 1
1097 1 1.3422526563781615e+01 2.4782209347075899e+01 1.1933324571500798e+01 -1 0 1
1751 1 2.4384872160882882e+01 1.0334770850074120e+01 1.6447978949667977e+01 0 0 -1
1789 1 1.4373572416149692e+01 1.5975835963611846e+01 1.6676653169533669e+01 0 0 1
1870 1 1.0623918639145158e+01 1.8180000183909262e+00 1.6671256563454367e+01 -1 1 1
131 1 4.3583459929301922e+00 1.2751551188456634e+01 1.8361788648080335e-01 2 0 0
2124 1 2.4660829609954689e+01 8.5263166349542221e+00 3.1465105077544525e+01 0 0 -1
1432 1 4.6585712700885722e+00 3.1126195779532155e+00 1.9667256522893364e+01 0 0 1
548 1 7.4223066451014406e+00 2.4453450167435840e+00 1.9253247762171622e+01 -1 0 1
438 1 2.3844007655046379e-01 7.8485212105476956e+00 2.2394025901815962e+01 0 0 -1
3595 1 1.4611040400772456e+01 2.7366302150668265e+00 1.7893623881739199e+01 0 0 1
2049 1 1.6895931588346222e+01 1.1514990497533917e+00 1.7439295641330276e+01 0 3 0
2862 1 1.9003325869842346e+01 2.5457991957930042e+00 1.8509470451809769e+01 0 0 0
244 1 2.4080240225589030e+01 3.3264669327945304e+00 1.9199707178782671e+01 0 1 -2
2244 1 4.2977440236696529e-01 3.9588733932536713e-01 2.8085092746979051e+01 3 2 -2
2364 1 1.7366226319763985e+01 2.2803629393269144e+01 3.1854962458917075e+01 1 1 1
3305 1 6.9535599043719687e+00 2.4708761273970676e+01 1.9157728651390624e+01 0 1 2
2302 1 8.3219633761244278e+00 5.0072880749360493e+00 1.8321848903080340e+01 0 1 2
1222 1 7.2321630957753387e+00 7.0879179363066998e+00 1.9908282153238318e+01 1 1 0
1366 1 1.0696289254620133e+01 3.9402516068531068e+00 1.8100743287903775e+01 1 1 1
3763 1 1.2154949801548881e+01 6.0178435239404475e+00 1.7591492115942952e+01 1 0 0
540 1 1.6709098617749685e+01 6.5628257327130894e+00 1.8694678856107782e+01 0 2 -1
833 1 6.5938060533321021e+00 3.4056361767959542e-01 2.3213610483304432e+01 0 1 2
1999 1 9.1630047892196789e+00 2.4940779297721171e+01 2.5281905640738117e+01 0 -1 1
1768 1 2.2579088536306632e+01 5.0031566686671924e+00 1.7839285249552564e+01 -1 1 2
2782 1 1.2764516848970098e+00 8.0170640301587994e+00 1.7095894144341838e+01 2 -1 1
1580 1 9.3260022738031667e-01 1.0263188608505159e+01 1.8776195287438831e+01 1 1 0
2608 1 4.6311808261536047e+00 7.5246866771312000e+00 1.9886631545486026e+01 1 0 0
2080 1 5.9797391601327576e-01 1.0837293678003421e+00 2.0549737826782700e+01 2 1 0
2572 1 8.6133355002220640e+00 9.4588600975588726e+00 1.8770261884098627e+01 -1 0 -2
1440 1 1.1189848417583057e+01 8.5793988671134258e+00 1.8934330235612251e+01 1 1 0
1387 1 1.2156197775520630e+01 1.0893525500130414e+01 1.8111893451266479e+01 0 0 -1
758 1 2.0282672377621953e+01 8.4060877548269008e+00 1.7558391884088358e+01 0 0 -1