LAMMPS data file via write_data, version 12 Dec 2018, timestep = 200000

3958 atoms
1 atom types

1.8808151586546273e-01 4.9811918484134104e+01 xlo xhi
1.8808151586546273e-01 4.9811918484134104e+01 ylo yhi
1.8808151586546273e-01 4.9811918484134104e+01 zlo zhi

Masses

1 18.15

Atoms # atomic

1800 1 4.4420238875563056e+00 2.6110474283315761e+00 3.4821133087571177e+00 0 1 1
1892 1 4.9940759700830126e+00 3.7920591557832917e+00 1.1166045229878150e+00 1 1 1
1490 1 2.3564392083709151e+01 2.0114167305358993e+01 1.5096133478629969e+01 0 0 0
342 1 9.5928395152132264e+00 2.9923680122927303e+00 3.1347564097422995e+00 0 0 0
328 1 1.2218763999749628e+01 2.8724715687637392e+00 2.6026553993405024e+00 0 0 1
1402 1 2.2459687939712431e+01 1.0612425340793383e+01 5.9441501373533487e+00 0 0 0
368 1 1.7392373272644811e+01 2.9726271129971598e+00 2.1829262740788602e+00 0 0 0
209 1 1.1871667286840819e+00 6.4042828078593423e+00 9.3194954690936402e+00 0 0 0
1736 1 2.1251031925757623e+01 2.2762441122718102e+00 5.2804481884511629e+00 0 1 1
113 1 1.9986750178283465e+01 2.2445961519571154e+00 1.6362988941121801e+00 0 0 0
3361 1 2.2963683120646774e+01 9.5386261673771056e-01 1.0828366418058666e+00 0 1 0
830 1 3.4821780024198508e+00 6.2744174767279519e+00 1.7148809283267479e+00 0 0 1
429 1 6.0283160654501495e+00 7.1258049687830072e+00 2.0310915664902289e+00 0 0 0
933 1 1.0111606032595546e+01 1.9983588805970779e+01 1.3324425037801488e+00 0 0 1
1025 1 8.6155145580255184e+00 5.8904034112794506e+00 1.2054714907472490e+00 0 1 0
2259 1 1.3857908173831760e+01 5.2719258846305781e+00 1.5326721760171926e+00 1 0 0
1313 1 1.2993324026562277e+01 7.6747577356524497e+00 2.7131768143004926e+00 0 1 0
2128 1 1.6499830371059630e+01 5.6715902004625356e+00 1.7936523288792783e+00 0 0 0
382 1 1.7016604709875057e+01 5.6440131387861685e+00 4.7118920038170735e+00 0 1 0
3083 1 2.1733951941446872e+01 6.1689388626456898e+00 3.2197661606664534e+00 0 1 0
3910 1 3.5663386440148681e-01 1.6951832471438415e+01 5.3923212502893518e+00 1 1 1
1561 1 1.5530995772034439e+00 1.1332238975013075e+01 2.8305524478692341e+00 0 1 1
567 1 6.2509927651742467e+00 9.5722627225348944e+00 3.5396501437152308e+00 0 0 1
2131 1 1.4112363105737849e+01 1.0158101174877606e+01 1.3637009311247621e+00 0 0 0
1104 1 1.6253958160301380e+01 9.8334306992323999e+00 3.0015559328970949e+00 0 1 0
605 1 1.9832055215133671e+01 7.8754295545066935e+00 3.1960102365211709e+00 0 0 0
2069 1 2.1193058791660032e+01 1.0543151513385951e+01 2.5562625794166816e+00 0 0 0
2379 1 1.4013156687623411e+01 2.4478381347489687e+01 3.4209447323101467e+00 0 -1 1
2953 1 3.1594614373583978e+00 1.1123432710418601e+01 7.8893959833438798e-01 1 0 1
975 1 5.6900829314709735e+00 1.1380332104328993e+01 1.6565725499921637e+00 0 0 1
2682 1 5.7491271455964297e+00 1.3370142458914593e+01 3.5857381593361350e+00 1 0 1
298 1 9.7285354141459734e+00 1.1805305393028908e+01 2.5388634753671298e+00 0 0 0
927 1 1.2667868657305888e+01 1.4267329790149850e+01 2.9385770965017177e+00 0 0 1
2234 1 1.2449097112479377e+01 1.1671847992231953e+01 3.0652911519388151e+00 1 0 0
561 1 2.4878185739042877e+01 3.8626373515612178e-01 3.0941913479706349e+00 0 0 1
2531 1 1.7323245782896457e+01 1.8144900732599862e+00 1.6688629863005740e+01 0 0 0
945 1 7.4319313206768634e+00 2.0883731598847167e+01 2.8762028516974020e-01 0 0 1
3816 1 2.3304609416254436e+01 1.4236651207919477e+01 1.1184400290950243e+00 0 0 1
1702 1 1.2230375539854432e+01 8.5417109247366052e-01 7.7371996033427437e-01 0 1 1
1271 1 1.4654998866413000e+00 5.3996269158609591e+00 1.5569282405286692e+01 0 1 0
3367 1 4.6833909059440186e+00 1.5869347402053405e+01 3.2463531566480128e+00 1 0 1
2938 1 1.0389214095278209e+01 1.6135713853819610e+01 2.9563040822436450e+00 1 0 1
929 1 1.7760883060483472e+01 2.3245019981642432e+01 5.3940676135004528e-01 -1 0 1
3735 1 1.6659755570831756e+01 1.6595285805964732e+01 1.1698243811681532e+00 0 0 1
48 1 1.8980167041433525e+01 1.7652204133271368e+01 2.5003823499784428e+00 0 0 0
2250 1 9.2793590521918681e+00 2.4743881097308716e+01 1.4489906459487571e+01 1 0 0
958 1 2.3937184637306299e+01 1.6825638681692649e+01 2.2792433403037560e+00 0 0 1
2736 1 2.2774538960454755e+00 2.0161019463829113e+01 2.4713592267959252e+00 1 0 1
1593 1 1.1182196942264675e+01 4.9836496190641105e-01 1.0680738006390399e+01 0 1 0
3522 1 6.3319285790967355e+00 1.8219248706764883e+01 3.7721404954357065e+00 1 0 0
3760 1 8.2628252675804035e+00 1.7784726463318790e+01 1.8171407482639110e+00 0 0 1
2952 1 1.9095024278308358e+01 1.9286556734875369e+01 3.1424326269739095e-01 0 0 1
839 1 1.2170782979309825e+01 1.8251213125016051e+01 2.1628179651740735e+00 0 0 1
924 1 1.5833013403493863e+01 2.0562255553773831e+01 2.3491509267277819e+00 0 0 1
3744 1 2.3337767186393251e+01 2.0235469087112829e+01 3.9147620439431865e+00 0 0 1
3450 1 2.2145150005182728e+01 2.0605216840541011e+01 1.5164922287913627e+00 0 0 1
3295 1 5.0859826447330969e-01 1.6436639090050676e+01 1.6742240442131537e+00 1 0 1
2778 1 2.3347404570711046e+01 1.8851984418546227e+01 1.2663173833070168e+01 0 -1 1
533 1 6.2095173952407547e+00 2.2934763035395267e+01 1.7803421631122436e+00 0 0 0
3018 1 1.8469666091213621e+00 2.3319132576104046e+01 2.3686147813130760e+00 1 0 0
2573 1 1.2337569977241801e+01 2.1405754972032852e+01 1.5747938521669846e+01 1 0 0
333 1 1.0234807167712905e+01 2.1504558075368003e+01 3.5261793191469346e+00 0 0 0
88 1 2.4080094174858807e+01 4.1325048339133250e+00 1.5585871317059256e+01 0 0 0
2088 1 1.5434274666503287e+01 2.2805649093174253e+01 1.6720952274379439e+00 1 0 0
3172 1 3.7376799724171712e+00 6.5348564373697482e-01 7.5495062859991311e+00 1 0 0
2857 1 1.9665976688915286e+01 2.1808271422144610e+01 1.9646686737347114e+00 1 0 1
702 1 2.3697359957311885e+01 6.0848736596894701e+00 9.8198603513521499e-01 0 0 1
221 1 2.3068723022255604e+01 1.3104998723476083e+01 1.3535761899028383e+01 0 0 0
3073 1 5.3626751501418699e+00 6.1678940755436984e-01 5.1221592092346659e+00 1 1 0
1301 1 7.1281352402644895e+00 2.4118152871684902e+01 1.6163208744897045e+01 1 0 0
1342 1 1.0580345133113177e+01 3.1134441471819878e+00 6.8402332058670288e+00 0 1 0
497 1 1.4063545249492568e+01 1.1623806080286898e+00 4.1947602200148459e+00 0 0 0
3919 1 1.6477439923022040e+01 1.9557046790292725e+00 4.5635523863189666e+00 1 1 1
3315 1 1.6236448708289661e+01 2.4904668902840297e+00 7.3677888142339407e+00 0 0 0
670 1 1.9344156093939677e+01 3.3195813771940137e+00 6.9235375112658160e+00 0 0 1
3142 1 2.3546808062193527e+01 3.2246360421117797e+00 6.7137455081623205e+00 0 1 0
1079 1 1.9784689061045750e+00 6.2758871846722766e+00 4.0190425864121284e+00 0 1 0
74 1 3.4926895480380886e+00 4.3648033510726139e+00 5.9803120379900774e+00 0 0 0
1983 1 6.3643207163583124e+00 4.0628659096547501e+00 6.8630629087936743e+00 0 0 0
3933 1 6.6774864991223444e+00 4.9246398970620291e+00 4.1562563415136538e+00 0 1 1
1057 1 1.0062230150373564e+01 7.1127494702100540e+00 3.0881762290758186e+00 0 1 0
1438 1 9.4930732411566261e+00 5.4423719305404799e+00 4.8959563532336272e+00 0 1 0
1626 1 1.3064677943272088e+01 3.5015745439624104e+00 5.6273562618465602e+00 0 1 0
852 1 1.5976708890521691e+01 5.2659519213952848e+00 7.7729153342346180e+00 0 0 1
53 1 1.9654053986704806e+01 6.0586680892657281e+00 6.0877612624322550e+00 0 1 0
2616 1 2.2092920084725090e+01 3.4663732141224033e+00 3.1223748198938854e+00 0 0 1
2052 1 2.2619086121462896e+01 5.9135154958755018e+00 6.7786673091704808e+00 0 0 0
1834 1 1.0824617353570174e+00 8.8256444847293913e+00 4.2362154450745875e+00 0 0 0
361 1 4.8413205779753756e+00 1.0203977960585851e+01 5.6454607257750249e+00 0 0 1
1835 1 9.0363431368078935e+00 9.6058519238174185e+00 3.7640700581343949e+00 0 0 1
1502 1 8.9176077585823457e+00 1.0149779318127470e+01 6.5109755292174958e+00 0 1 1
83 1 1.2723460739724585e+01 1.0689687573304246e+01 5.7836289499226909e+00 0 0 0
2907 1 1.3435017067689621e+01 7.9622092614775628e+00 5.3207768452511122e+00 0 0 1
13 1 1.6533950804193694e+01 1.2651492659486255e+01 2.8790390800402559e+00 0 0 0
3805 1 1.6175993679318278e+01 8.2517004887796688e+00 5.4286165004333169e+00 0 1 1
2477 1 2.4132061693610598e+01 6.9712215536038924e+00 4.5071578447868248e+00 1 0 0
792 1 2.0116595154148015e+01 9.0086417690399223e+00 5.9653891029884250e+00 0 1 1
3303 1 7.7219959923649384e+00 3.0947462066345293e+00 4.4810541651453112e-01 1 0 0
285 1 1.5594206940825110e+00 1.3298988937031824e+01 4.6260671461910601e+00 1 0 0
364 1 4.0856825361950442e+00 1.2828091526874561e+01 5.5376620523254045e+00 0 0 0
310 1 8.3302433077601670e+00 1.3771640492135164e+01 3.9566143303842845e+00 0 0 0
3296 1 9.1464864473356755e+00 1.2890131167647889e+01 6.4645785271478982e+00 1 1 0
2223 1 1.4958679162002230e+01 1.1811732799980021e+01 7.2669104983265589e+00 0 0 0
3725 1 1.9141316813921389e+01 1.3139578841068600e+01 2.3168624968346863e+00 0 1 1
2428 1 2.2436542682438070e+01 1.2984128888850073e+01 3.9575563510026943e+00 0 0 0
1886 1 2.1218290887546740e+01 1.5667925120450612e+01 3.8556438157471179e-01 0 0 1
2092 1 1.3773614343240068e+01 1.5267818542149969e+01 5.1113031200726222e-01 1 0 0
1126 1 1.9771776237583918e+00 1.5841318016078636e+01 3.6640079446249962e+00 0 0 0
377 1 2.3896242810361137e+01 1.5990419934567194e+01 1.3424184387072334e+01 0 0 0
697 1 4.0800590613071925e+00 1.6954095726292749e+01 8.6818153841673578e+00 0 0 1
225 1 9.6756577452892323e+00 1.6251818124518351e+01 5.8530790919763405e+00 0 0 0
671 1 1.2255231193460936e+01 1.5650724941512124e+01 7.4825525116804243e+00 0 0 1
434 1 1.3823973895708697e+01 1.5092906618460480e+01 5.2483841326522844e+00 0 0 0
3149 1 1.5523497279043488e+01 1.7387295016629473e+01 3.6423032092692580e+00 0 1 0
438 1 1.6905757217065794e+01 1.7156206544994397e+01 6.2453577631313930e+00 0 0 0
1033 1 1.8484502460311138e+01 1.4944962009920276e+01 5.7360707403080289e+00 0 0 0
3828 1 2.0024108423813981e+01 1.5307880682933225e+01 3.3147151409273787e+00 1 0 1
614 1 2.2209600732051136e+01 1.7045932242207773e+01 4.6975467268909883e+00 0 0 1
1953 1 2.2129552969787373e+01 1.2800453077040411e+01 7.8862197111545225e+00 0 0 0
3358 1 3.7575349490834689e+00 1.8183957796095314e+01 5.7936960726393636e+00 1 0 0
943 1 7.3735611574161757e+00 1.7881509557060465e+01 6.1250202018279829e+00 0 0 1
718 1 9.2619426126250488e+00 1.9776669610832627e+01 5.4297465202026665e+00 0 0 1
883 1 1.3854063978832324e+01 1.9308498316189148e+01 4.3600600307063377e+00 0 0 1
3299 1 1.8736859625192828e+01 1.8740115395401848e+01 5.2322571185189686e+00 0 0 0
623 1 2.1301280761621562e+01 1.9405296775001439e+01 6.3883191055400221e+00 0 0 1
139 1 2.2367082193678403e+01 2.2901321821986972e+01 4.3532961021077110e+00 0 0 0
2215 1 1.6198630313651464e+01 2.1830488857227671e+01 1.5632927815640155e+01 1 0 0
1907 1 4.9234782551268763e+00 2.0677014745282836e+01 3.2505948120519612e+00 0 0 1
2656 1 8.1012384561093924e+00 2.1764677592185102e+01 6.8033542716591136e+00 1 0 0
303 1 5.2811758697025510e+00 2.2893249614107841e+01 1.4211600252363242e+01 0 0 0
1895 1 1.2804950617496454e+01 2.2139510569038919e+01 4.3632635393662262e+00 0 0 1
301 1 1.2919606655894817e+01 2.2692752216994187e+01 7.5176155970138225e+00 0 0 0
989 1 1.8009427051534356e+01 2.0716095500710122e+01 3.8747694964835278e+00 0 0 1
3911 1 1.7048110213573718e+01 2.2479716458724042e+01 5.9280551380790856e+00 0 0 1
115 1 2.0572505649380556e+01 2.4559474311483676e+01 2.3463290890891955e+00 0 0 0
1648 1 2.1654506328573554e+01 2.2239442470032088e+01 6.7266017984926600e+00 0 0 1
2327 1 1.8012825980935965e+00 2.3511688716007648e+00 6.7041796326917318e+00 1 0 0
3569 1 1.3718226155671491e+00 3.2279260818117321e+00 9.4059680421974576e+00 1 0 0
3922 1 5.5281533285573436e+00 2.3204229162495524e+00 8.9782329332584236e+00 1 1 1
1396 1 2.3272636282530815e+01 1.4608007199186801e+01 6.2532002550294568e+00 0 0 0
625 1 9.0859520908418006e+00 1.4759559171784240e+01 3.9121212899930191e-01 0 0 0
1328 1 2.9038255040356731e+00 2.3834501337493204e+01 1.4353591016088828e+01 0 0 0
646 1 1.3570374295548882e+01 1.9590267853052590e+00 7.9647290748980426e+00 0 0 0
1409 1 1.7408587587777578e+01 8.1160661801596889e-01 9.1067649352634987e+00 0 1 0
1123 1 7.7003566323956507e+00 1.7058818619352312e+00 5.9508911523806418e+00 0 1 0
1967 1 2.0983538857973233e+01 2.2187461008831244e+00 8.7664619445619643e+00 1 0 0
44 1 1.0156517371144935e+00 1.0295123428312984e+01 1.2494657830098092e+01 0 0 0
926 1 6.6648027283335614e+00 3.5771535194159099e-01 1.4394061042629904e+01 0 0 0
3511 1 1.2606509511960104e+00 1.8620774811023676e+01 5.0119138124119733e-01 1 0 0
581 1 3.9669920943177933e-01 2.3707759676172923e+01 1.1317578439085203e+01 0 -1 0
77 1 2.8682194158310739e+00 6.9994569017989603e+00 7.2509650298964168e+00 1 0 0
143 1 9.8152287638284523e+00 6.3777824658276048e+00 7.5261399506915883e+00 0 0 0
3468 1 7.0946693833765986e+00 6.2250993237072834e+00 8.6727851794185771e+00 1 1 0
3139 1 1.1807605652449785e+01 5.4054382428651389e+00 9.1427685977473292e+00 1 0 0
3690 1 1.3430955452372304e+01 5.8526707820236838e+00 7.0712368454950587e+00 0 1 0
85 1 1.5953441185418235e+01 7.9892718229971527e+00 9.5071911003442118e+00 0 0 0
969 1 1.8496949877208454e+01 6.4530724459684290e+00 8.8513999250158264e+00 0 0 1
2251 1 2.2476964841825962e+00 9.3931727514976053e+00 6.3147635880389741e+00 1 0 0
908 1 4.4489069133664139e-01 1.0367651875434705e+01 8.0098482041832391e+00 0 0 1
3652 1 6.4011839123681407e+00 9.7414635315610241e+00 7.7698661183726747e+00 1 1 1
1647 1 1.1054711625417575e+01 9.0141963223736568e+00 7.7658705410721076e+00 0 1 1
2265 1 1.1179387406283830e+01 9.7462187886801175e+00 1.0446622990427132e+01 1 0 0
1194 1 1.6925041408420437e+01 9.9232297039170234e+00 7.5570611212110030e+00 0 0 0
1989 1 1.3045926871253979e+01 6.3865529240867618e+00 1.1616252793995661e+01 1 0 0
1174 1 2.0254683820401038e+01 8.5425572677320982e+00 9.4232069475455074e+00 0 1 0
942 1 2.2381881701295757e+01 6.5668498910643711e+00 9.3982361513009760e+00 0 0 1
37 1 1.0352797078790732e+00 1.4095704651163109e+01 8.8185259089157206e+00 0 0 0
1181 1 8.6001317672666531e+00 2.8144017843915747e-01 3.7131880161551254e+00 0 1 0
2024 1 4.6457779903498242e+00 1.4283567860806473e+01 8.1540901498688214e+00 1 0 0
1014 1 7.2863320477660976e+00 1.3378642251985116e+01 8.5715503036688911e+00 0 1 0
442 1 1.1617244344141554e+01 1.2985585582904422e+01 7.6134005889288634e+00 0 0 1
705 1 1.5922334200987498e+01 1.3462060111318893e+01 5.5157675916251678e+00 0 0 0
279 1 1.9308463639598756e+01 1.4236451239500454e+01 1.1205765113068589e+01 0 0 0
1260 1 1.9299417896482048e+01 1.1252880123476652e+01 7.8239048464919572e+00 0 1 1
195 1 2.4300314240481363e+01 1.2732241256436767e+01 9.8109107556761206e+00 0 0 0
638 1 1.4444786460998738e+00 1.6596200857048327e+01 7.9713902427426691e+00 0 0 0
3283 1 8.0047381782814320e+00 1.5661960695556520e+01 9.8293969856865751e+00 1 0 1
259 1 1.2644766283872078e+01 1.5937428785291212e+01 1.0119630749081185e+01 0 0 0
2408 1 1.7672631889388342e+01 1.8042649682369976e+01 8.7491509166030550e+00 0 0 0
1090 1 1.4459532796286707e+01 1.4439547692136321e+01 1.1551156216086229e+01 0 0 0
556 1 1.9958026698940341e+01 1.6745171333568720e+01 9.6346354321179764e+00 0 0 1
1393 1 1.9647120961370259e+01 1.4446076573806014e+01 8.1334803403638709e+00 0 0 0
2497 1 2.3763876901435445e+01 1.6572329719531314e+01 8.4399255257997137e+00 0 0 0
1995 1 1.1563978673886279e+01 2.4888630729626872e+01 6.6114958017005332e+00 1 0 0
1693 1 1.9002853315576067e+00 2.1075828972413397e+01 7.2500851577412053e+00 0 0 1
3861 1 6.8715760777989638e+00 1.8057562446631319e+01 8.7667669209459920e+00 1 1 1
904 1 3.9134487534976694e+00 1.7913374480759249e+01 1.1341713458699497e+01 0 0 0
3360 1 8.7126699103989296e+00 2.0790977763694855e+01 9.1695874545097222e+00 1 0 0
1512 1 4.2877157743795538e+00 1.9877620369864541e+01 7.7585249248725603e+00 0 0 0
2386 1 1.1357541972563006e+01 2.0704076591771177e+01 9.9855061551963669e+00 1 0 0
1147 1 1.3709885594131217e+01 1.8170071352305730e+01 7.0567542460580279e+00 0 0 0
165 1 1.1833447754159879e+01 2.0293514956071270e+01 7.1958421115506015e+00 0 0 0
2756 1 1.5163125577978009e+01 1.9554091210774210e+01 9.3236917520204692e+00 0 0 1
528 1 1.8689038289265181e+01 2.0477950008328254e+01 8.0824254513460829e+00 0 0 0
2934 1 2.4473600239174779e+01 2.4136151400909984e+01 4.1065733872375034e+00 0 0 1
389 1 2.3284382929588141e+01 2.4191276626448740e+01 1.1199679663741769e+01 0 0 0
3234 1 5.5328224683412737e+00 2.1504018900654096e+01 5.7848323608051375e+00 1 0 0
455 1 2.2740932677303636e+01 3.6435128310672669e+00 1.0231495290579735e+01 0 0 0
542 1 1.2295308564063316e+01 2.3487056347830894e+01 1.0946950919566325e+01 0 0 1
1851 1 1.7052434907914687e+01 2.3905918609284200e+01 9.8538393600441676e+00 0 0 1
3351 1 1.5729180956900139e+01 2.2067183191896074e+01 8.2586673190626385e+00 1 0 0
247 1 1.9841947422635400e+01 2.3917950829693343e+01 9.4947403603799820e+00 0 0 0
539 1 1.9447189659375692e+01 2.3736242031601158e+01 6.6501465239801734e+00 0 0 0
82 1 2.3663268846252471e+01 2.2950719993270440e+01 8.5070920542653958e+00 0 -1 0
2194 1 7.0024123016991802e-01 2.3688359085808357e+00 1.5917393478683744e+01 1 0 0
387 1 4.3045329747107255e+00 1.5971038749111659e+00 1.3649083131281625e+01 0 0 0
2091 1 1.1678573097641778e+00 1.9655371338205093e+01 4.9579551939921691e+00 1 0 0
1392 1 3.6328577979172483e+00 8.5053522473417464e-01 1.1053939573140751e+01 0 1 0
2982 1 9.7274271594766883e+00 3.3508345814744018e+00 1.0094571567193753e+01 1 1 0
2863 1 9.0057247692636899e+00 2.4377263061066003e+01 7.4672057563906735e+00 1 0 1
1283 1 1.2971076041893665e+01 2.4817236300129588e+00 1.3450711383308612e+01 0 1 0
576 1 1.7115615179498448e+01 3.0513433988000718e+00 1.2097980541745670e+01 0 0 0
2483 1 1.6581912429053876e+00 2.1435092999872253e+01 1.3946515041365283e+01 1 0 0
1082 1 2.1627283574961790e+01 2.4262582826699095e+01 1.4335242216940205e+01 0 0 0
410 1 2.2869719144914278e+01 8.3896540270001783e+00 1.3398171201526097e+01 0 0 0
986 1 7.3119556956372223e-01 7.7035278111136094e+00 1.1934535678087837e+01 0 0 1
1568 1 3.7317535565648634e+00 4.3382067475578880e+00 1.2498280095718828e+01 0 1 0
433 1 3.7899683973287721e+00 4.5058826780321182e+00 9.6502155035700419e+00 0 0 0
720 1 8.3548247467210821e+00 5.6793531008375613e+00 1.0799423013551866e+01 0 0 1
682 1 6.5272576870089107e+00 4.8257270583671579e+00 1.3007966938456377e+01 0 0 1
2015 1 1.0838731804383901e+01 3.9419990602359580e+00 1.2506451482171961e+01 1 0 0
2017 1 1.5253481249920497e+01 4.6873236793103272e+00 1.0482752551102241e+01 1 0 0
826 1 1.6641184635528759e+01 6.9798259109422514e+00 1.2178882654981280e+01 -1 0 1
3709 1 1.9655254986582815e+01 4.8270016156145479e+00 1.1248076859555406e+01 0 1 1
163 1 1.7987154108923555e+01 5.3804108723542932e+00 1.4169010997213114e+01 0 0 0
3256 1 2.4244493208138444e+01 2.2446734787405948e+01 4.9240402106400849e-01 0 0 0
452 1 2.2473595045920568e+01 5.4257143387946005e+00 1.2833287112039791e+01 0 0 0
615 1 2.3031337232235498e+00 1.0720762905428691e+01 9.9022217242017110e+00 0 0 1
1964 1 4.1078334536803442e+00 9.2748657227055826e+00 1.1252170338799553e+01 1 0 0
2419 1 4.9865127284395419e+00 7.6662645035607593e+00 9.3120196090183871e+00 1 0 1
2772 1 9.3319748030311160e+00 7.8836123929905693e+00 1.1789377852793733e+01 1 0 0
2910 1 7.6205018960546083e+00 9.3113723937128139e+00 1.3537055372834100e+01 0 0 1
3114 1 1.0921030214533577e+01 6.7820811887070036e+00 1.3594506360946404e+01 0 1 0
2766 1 1.8866761976081015e+01 8.5847332336583264e+00 1.1989693864356363e+01 0 0 1
917 1 1.7999090807294689e+01 1.1742457500793401e+01 1.0438811233901959e+01 0 0 1
1543 1 2.2329100062880311e+01 9.8708471182830060e+00 1.0995435848861279e+01 1 0 0
906 1 2.3627000079981848e+01 9.5302153144186494e+00 1.5781815345331639e+01 0 0 1
3126 1 3.1513824688794889e+00 1.3203350431005406e+01 1.0036473456914452e+01 1 1 0
3793 1 1.5889475208146122e+00 1.4385103869498822e+01 1.4306621971127781e+01 0 1 1
103 1 1.6498932238344615e+01 1.0456466851597983e+00 2.4051185104698841e-01 0 0 0
1645 1 5.8157132594114733e+00 1.1454998560570743e+01 1.0093232508827905e+01 0 1 0
1855 1 8.4214837309546340e+00 1.1728455742734912e+01 1.1362019455907719e+01 0 1 1
320 1 1.1036345311550074e+01 1.2537629797266144e+01 1.0271142484681477e+01 0 0 0
464 1 1.3766986675241085e+01 9.5220780234401410e+00 1.0722017998497483e+01 0 0 0
962 1 1.5257539666086599e+01 1.2170228505623074e+01 1.0187906057695102e+01 0 0 1
406 1 1.6483423074472107e+01 1.0322410416114122e+01 1.2674322405596911e+01 0 0 0
2605 1 2.1633916157183059e+01 1.2332446027496745e+01 1.1130953515652566e+01 0 0 0
2549 1 9.6793626815344975e+00 2.0695722531570222e+01 1.6374433448160694e+01 0 0 0
488 1 3.7681296185544926e+00 1.4464899433875853e+01 1.2237834724802061e+01 0 0 0
296 1 6.9870651288360790e+00 1.4990522252897101e+01 1.2237114101204407e+01 0 0 0
1132 1 1.0390505951655511e+01 1.5079538623558859e+01 1.0919138580406745e+01 0 0 0
182 1 1.0507178386931479e+01 1.5460507060550116e+01 1.3711918530821691e+01 0 0 0
238 1 1.6076539572261261e+01 1.4834770843243193e+01 1.3868296464691133e+01 0 0 0
1340 1 1.9009851995063812e+01 1.4380449603411414e+01 1.4064845447157705e+01 0 1 0
157 1 2.0617289945496299e+01 1.7371622185923844e+01 1.2509143542947999e+01 0 0 0
1572 1 1.7905896054046362e+01 8.0386169034678012e+00 1.4731033858569891e+00 0 1 1
535 1 2.1736109032901766e+01 1.8214329373336323e+01 8.5356338982973483e+00 0 0 0
1656 1 1.9701744715300853e+00 2.0617192175600408e+01 1.1343706098266704e+01 0 0 0
3081 1 1.2024205123674148e+00 1.8054930900696082e+01 1.2320505511561809e+01 1 0 0
2096 1 5.9248425867197607e+00 1.9519119989748340e+01 1.0978450767002794e+01 1 0 0
1197 1 6.7880538265162587e+00 1.9053264939241480e+01 1.3681808181284637e+01 0 0 0
144 1 1.4414851180024669e+01 1.9117967562419054e+01 1.2306209732057427e+01 0 0 0
1574 1 1.2224275651657544e+01 1.8293039079342329e+01 1.1035819451742338e+01 0 0 0
840 1 1.1007094370692057e+01 1.8091297105676780e+01 1.3478480887790377e+01 0 0 1
3700 1 1.6511401627549748e+01 1.7265920621033409e+01 1.2090398437624218e+01 0 0 1
2151 1 1.8535257798177067e+01 1.8823968968793732e+01 1.3533038628785054e+01 0 0 0
3833 1 2.2714277003924252e+01 2.0251323044181696e+01 1.0138999602289399e+01 0 0 1
2135 1 1.2013995214074003e+00 2.7954238089120109e-01 1.1414197983475600e+00 1 0 0
3241 1 4.1235398647255739e+00 2.1626109634602535e+01 1.0287325952697350e+01 1 0 0
2231 1 5.7825385164062899e+00 2.3299017057098848e+01 1.1514870043717545e+01 0 0 0
1916 1 8.3472116502069689e+00 2.3366470403894425e+01 1.0215264418977176e+01 0 0 1
1471 1 9.7837195762980738e+00 2.2453781748256048e+01 1.2316324150402071e+01 0 0 0
1073 1 1.4781116296418531e+01 2.1932286452380001e+01 1.3474391045359841e+01 0 1 0
773 1 1.3390844020676203e+01 2.4160551258645590e+01 1.3529749195060122e+01 0 0 0
2222 1 1.6938857659154564e+01 2.3170067118597391e+01 1.2398880365095222e+01 0 0 0
1261 1 1.9057778421879949e+01 2.1491774977791298e+01 1.2597683015868922e+01 0 0 0
2166 1 2.0178200995031535e+01 2.1347802350383237e+01 1.0292438331485155e+01 0 0 0
1680 1 7.8254939020027692e+00 1.1775148046337065e+00 9.7094368858358422e+00 0 1 0
392 1 1.5267923854862650e+01 1.7282764414426250e+01 1.5802320494265217e+01 0 0 0
3272 1 1.9248257196697612e+01 1.7382927336827609e+00 1.1033569645389766e+01 1 1 0
1210 1 6.5033555449550189e+00 3.1617998181038001e+00 1.6493199872042819e+01 0 1 0
21 1 2.3843382763468032e+01 9.3263483920914005e+00 3.3380334156597686e+00 0 0 0
3520 1 8.4389366912133177e+00 3.4603730172364169e+00 1.4124618894050979e+01 1 0 0
249 1 1.6102559156998456e+01 3.4762246538844073e+00 1.4881003858269596e+01 0 0 0
3693 1 2.0883250096693043e+01 1.7489442261778991e+00 1.4218236177744114e+01 1 1 0
594 1 1.9857803785815527e+01 2.6323036423907933e+00 1.6596113625565234e+01 0 0 0
274 1 9.1056805429000376e-01 2.3647052430517707e+01 6.9768715977089233e+00 1 0 0
690 1 2.2960769335432087e+01 1.8221038632906434e+00 1.2596310606091329e+01 0 0 0
1537 1 1.0734720443300313e+01 6.3679645820032960e+00 1.6674494201162776e+01 0 0 0
769 1 2.7312179649913690e+00 6.9481606107682241e+00 1.3342445724467929e+01 0 0 0
130 1 1.5332429589205365e+01 1.1245051374258342e+01 1.6352120467863813e+01 0 0 0
580 1 2.0287771969983224e+00 1.6198063733317877e+01 1.6356797112857002e+01 0 0 0
2268 1 6.0906462234305980e+00 7.1852159179075787e+00 1.4513659383140995e+01 1 0 0
1189 1 2.1072553853789380e+01 2.1429321146014750e+01 1.4350048122916482e+01 0 0 0
278 1 1.3656639462701621e+01 2.5119210390421469e+00 1.0714089041417289e+01 0 0 0
1247 1 1.3805503959293773e+01 3.7180403705392844e+00 1.5985971289756346e+01 0 1 0
626 1 1.4242493638267289e+01 7.3119327127020401e+00 1.4118525283760226e+01 0 0 1
196 1 2.1303117209654019e+01 6.0346581467590585e+00 1.5275724256576439e+01 0 0 0
1442 1 8.7351532913977632e+00 1.0112011199097255e+00 1.2678165787539566e+01 0 0 0
2802 1 1.5840582373277007e+01 2.4624375310978060e+01 5.2864504031725037e+00 0 0 1
529 1 4.0684277652213066e+00 8.6843233828808923e+00 1.5246340737900182e+01 0 0 0
2478 1 5.7487078251479584e-01 1.2979452722455453e+00 1.1809479737013072e+01 1 0 0
1412 1 7.4565285626050803e+00 1.2249068880496401e+01 1.4046064456354035e+01 0 1 0
313 1 9.9474234631238048e+00 3.9117984261339580e+00 1.6428825866382493e+01 0 0 0
1089 1 9.4672361385264345e+00 9.3374562685312608e+00 1.5543580253214053e+01 0 1 0
347 1 2.0150196300340738e+01 8.5865672222367539e+00 1.4068714606536238e+01 0 0 0
2984 1 2.2229139513384251e+01 1.8022846695465802e+01 1.6690880196224740e+01 1 0 -1
1135 1 5.0577594479482144e+00 2.4307201079307621e+01 5.7769709323892693e+00 0 0 0
2254 1 4.9574424547848537e+00 1.3054748946075739e+01 1.4563521302523849e+01 1 0 0
1319 1 9.1095383229010896e+00 1.3614027836325176e+01 1.6141122283414468e+01 0 1 1
2930 1 1.1905468460097813e+01 1.0367045324770260e+01 1.4957756975192906e+01 1 1 1
1098 1 1.4270752134258210e+01 9.9026120593078630e+00 1.4129006849498346e+01 0 1 0
1415 1 8.2737835577267056e+00 2.3567964463771766e+01 3.4165133814161939e+00 0 0 0
798 1 1.7530678299492052e+01 1.1933168959116900e+01 1.4825203097727750e+01 0 1 0
2651 1 1.9380498429165012e+01 1.0376621671211801e+01 1.5566072895791942e+01 1 0 0
2275 1 2.1623898852029843e+01 1.2187159222032394e+01 1.5347507777862074e+01 0 0 0
1426 1 1.1025242070947845e+01 1.2252494382633483e+00 1.6368268283492267e+01 0 1 0
2159 1 1.0708822711427544e+00 1.7991511576253071e+01 1.4705502036816794e+01 1 1 0
3425 1 1.1767745854225920e+01 2.4541466873263758e+01 1.5839582971407802e+01 1 0 0
2310 1 3.2773778645009211e+00 1.0867250601329943e+01 1.4085521303877698e+01 1 0 0
112 1 7.8154740595467480e+00 1.6552666361688150e+01 1.4225387755894740e+01 0 0 0
2834 1 1.2337701430709327e+01 1.2925060415279628e+01 1.2843399628907253e+01 0 0 0
936 1 1.3732898961299870e+01 1.3514381443253781e+01 1.5189225517909804e+01 0 0 1
2777 1 1.0181322359933915e+00 3.5815619440374569e+00 1.2816995677798785e+01 1 0 1
3722 1 2.1379819663913956e+01 1.5837326335955668e+01 1.4740651664583657e+01 0 1 0
1169 1 2.4466737120595127e+01 1.2905985693696163e+00 1.5177198727540359e+01 0 1 0
1452 1 2.8801515694846751e+00 1.9498964599725628e+01 1.6030949812179919e+01 0 0 0
2148 1 5.2070793780926854e+00 2.0371642781391728e+01 1.4891410537597034e+01 1 0 0
223 1 8.9946807012303225e+00 2.0083854748365937e+01 1.3719908414135148e+01 0 0 0
2560 1 1.3232705063706552e+01 1.8844001222878926e+01 1.5031639207920909e+01 0 0 0
1872 1 1.7295934773576263e+01 1.9045553977933707e+01 1.5788707229703125e+01 0 0 1
3839 1 2.4555543406644396e+01 1.5403496751832431e+01 1.0835042305994108e+01 0 0 1
974 1 1.8742056355495913e+00 1.8529440547626574e+00 3.0178940485879595e+00 0 0 1
3154 1 1.0805970167270926e+00 1.9001962146217807e-01 4.8447619692042032e+00 1 1 0
2261 1 1.2732979621051890e+00 1.1915152350490255e+01 1.6209775301959962e+01 1 0 0
1784 1 2.4046830168569947e+01 9.1685156779747121e+00 2.5149500721997242e-01 0 0 1
233 1 3.5121252454871086e+00 3.2115095996582204e+00 1.7012300632423429e+01 0 0 0
667 1 8.3473160847402372e+00 3.6002427787444287e+00 1.8597146093380612e+01 0 0 1
1768 1 1.3498208577401117e+01 1.2904418981653729e+00 1.7061698004744095e+01 0 1 0
916 1 2.3224621084331133e+01 1.5736379967346107e+01 1.8333871266782673e+01 0 0 0
928 1 2.0219995573608177e+01 2.1609433061155194e+01 1.6945820158888093e+01 0 0 0
867 1 1.1697470450448762e+01 1.4581550308084632e+01 1.6967089492790969e+01 0 0 1
1419 1 1.8289567469284318e+01 2.3703794964887564e+01 1.6966122066478867e+01 0 0 0
1500 1 2.1006304896046618e+01 8.9041738653540281e-01 1.8299475848301388e+01 0 1 0
2026 1 3.4807696126101111e+00 4.7720401333840003e+00 1.9237073220532615e+01 1 0 0
1559 1 2.2439015741610437e+00 7.3818698200820512e+00 1.7147437187052965e+01 0 1 0
613 1 5.6094235421746532e+00 4.2658477002015029e+00 2.1223740252874038e+01 0 0 0
1205 1 1.3863964059931925e+01 5.3462218338826837e+00 1.9781949866260820e+01 0 1 0
2784 1 1.8673482464827362e+01 6.7934237546221992e+00 3.1053306535443827e+01 1 0 0
1105 1 2.1290825207909180e+01 3.9411028927277023e+00 1.9749677137434656e+01 0 1 0
824 1 2.3077055136734973e+01 6.0788341344811316e+00 1.9612558786401223e+01 0 0 0
610 1 1.1675098499650418e+00 1.0528707665926094e+01 2.0550250103292139e+01 0 0 0
3233 1 4.8503983360189489e+00 7.1763151063947532e+00 1.8737412083893222e+01 1 0 0
565 1 7.7418351527501494e+00 5.9894665429533704e+00 2.0985021504431526e+01 0 0 0
402 1 1.3543937139869151e+01 6.5016512609027064e+00 1.7096901155758040e+01 0 0 0
431 1 9.2066206494232077e+00 7.5167246224050457e+00 1.8727993576120710e+01 0 0 0
3417 1 1.1766287021365729e+01 7.5593644929661838e+00 2.0461646819520961e+01 1 1 0
2577 1 1.3815886964678652e+01 9.2062933890266656e+00 1.9741238236509833e+01 0 0 0
3158 1 9.2266943718265393e-01 1.6072638255618237e+01 3.2156823220109537e+01 1 1 -1
1321 1 1.9612948494850279e+01 7.3561311658062554e+00 1.8937752764909149e+01 0 0 0
284 1 1.8053085147490325e+01 9.4949118124188985e+00 1.7935224274944694e+01 0 0 0
423 1 1.9935682767640451e+01 5.2163772984072709e+00 1.7213419865374870e+01 0 0 0
1604 1 2.1736496360457505e+01 9.0229202253933369e+00 2.0084921504151353e+01 0 1 0
1070 1 2.8739778244480303e+00 1.1151607390497528e+01 1.8209196111464955e+01 1 1 0