
# Create simulation box and atoms
lattice		    sc 1
Lattice spacing in x,y,z = 1 1 1
region 		    all block 0 50 0 50 0 50 units box
region		    bubble sphere 25.0 25.0 25.0 10.0 side in
create_box 	    1 all
Created orthogonal box = (0 0 0) to (50 50 50)
  2 by 2 by 3 MPI processor grid

create_atoms	1 random 4096 83782 all
Created 4096 atoms
  Time spent = 0.00780869 secs

mass		    1 18.15

# Define potential

pair_style 	    sw
pair_coeff	    * * mW_real.sw mW
Reading potential file mW_real.sw with DATE: 2019-02-27

# Run minimization and output files

minimize 	    1.0e-8 1.0e-8 10000 1000
WARNING: Using 'neigh_modify every 1 delay 0 check yes' setting during minimization (../min.cpp:168)
Neighbor list info ...
  update every 1 steps, delay 0 steps, check yes
  max neighbors/atom: 2000, page size: 100000
  master list distance cutoff = 6.3065
  ghost atom cutoff = 6.3065
  binsize = 3.15325, bins = 16 16 16
  1 neighbor lists, perpetual/occasional/extra = 1 0 0
  (1) pair sw, perpetual
      attributes: full, newton on
      pair build: full/bin/atomonly
      stencil: full/bin/3d
      bin: standard
Per MPI rank memory allocation (min/avg/max) = 4.22 | 4.223 | 4.228 Mbytes
Step Temp E_pair E_mol TotEng Press 
       0            0    3558105.7            0    3558105.7    2737058.2 
     705            0    -46173.33            0    -46173.33   -1079.4206 
Loop time of 2.03821 on 12 procs for 705 steps with 4096 atoms

98.4% CPU use with 12 MPI tasks x no OpenMP threads

Minimization stats:
  Stopping criterion = max force evaluations
  Energy initial, next-to-last, final = 
         3558105.72845     -46173.1710879     -46173.3297827
  Force two-norm initial, final = 3.20802e+07 3.00429
  Force max component initial, final = 1.17575e+07 0.444838
  Final line search alpha, max atom move = 0.0668328 0.0297298
  Iterations, force evaluations = 705 1001

MPI task timing breakdown:
Section |  min time  |  avg time  |  max time  |%varavg| %total
---------------------------------------------------------------
Pair    | 1.2251     | 1.5931     | 1.8052     |  14.2 | 78.16
Neigh   | 0.023621   | 0.026315   | 0.027998   |   0.8 |  1.29
Comm    | 0.16972    | 0.37247    | 0.73236    |  28.7 | 18.27
Output  | 0          | 0          | 0          |   0.0 |  0.00
Modify  | 0          | 0          | 0          |   0.0 |  0.00
Other   |            | 0.04629    |            |       |  2.27

Nlocal:    341.333 ave 354 max 306 min
Histogram: 1 0 0 1 0 0 1 3 2 4
Nghost:    1016.42 ave 1057 max 995 min
Histogram: 3 2 1 2 1 0 1 1 0 1
Neighs:    0 ave 0 max 0 min
Histogram: 12 0 0 0 0 0 0 0 0 0
FullNghs:  11065.2 ave 11809 max 9333 min
Histogram: 1 0 1 0 0 1 2 2 0 5

Total # of neighbors = 132782
Ave neighs/atom = 32.4175
Neighbor list builds = 38
Dangerous builds = 0
delete_atoms	    region bubble
Deleted 138 atoms, new total = 3958
fix 		    5 all indent 10.0 sphere 25.0 25.0 25.0 10.0

# Equilibration of molecular water

# Add velocity/set timestep

velocity	    all create ${TEMP} 120528 rot yes dist gaussian
velocity	    all create 215 120528 rot yes dist gaussian
timestep	    5.0

# Define output

compute			1 all msd
thermo	    	50
thermo_style	custom step temp press vol etotal ke pe c_1[4]

# Neighbor lists

neigh_modify    delay 0 every 1 check yes

# Set fixes

fix             1 all momentum 10 linear 1 1 1 rescale
fix             2 all nve
fix             3 all temp/csvr ${TEMP} ${TEMP} 500.0 928347
fix             3 all temp/csvr 215 ${TEMP} 500.0 928347
fix             3 all temp/csvr 215 215 500.0 928347
fix             4 all press/berendsen iso ${PRES} ${PRES} 1000.0 modulus 20000
fix             4 all press/berendsen iso 1 ${PRES} 1000.0 modulus 20000
fix             4 all press/berendsen iso 1 1 1000.0 modulus 20000

# Run 1 ns equilibration

dump		    1 all atom 2000 ${DIR}/eq.${NAME}-${TEMP}.dump
dump		    1 all atom 2000 1nm/run_0/eq.${NAME}-${TEMP}.dump
dump		    1 all atom 2000 1nm/run_0/eq.1nm_bubble_0-${TEMP}.dump
dump		    1 all atom 2000 1nm/run_0/eq.1nm_bubble_0-215.dump

reset_timestep  0

run	            200000
Per MPI rank memory allocation (min/avg/max) = 4.484 | 4.487 | 4.491 Mbytes
Step Temp Press Volume TotEng KinEng PotEng c_1[4] 
       0          215   -246.55799       125000   -41800.726    2535.9391   -44336.665 2.4238349e-33 
      50    134.62144   -209.74575    124943.29   -41209.769    1587.8687   -42797.638   0.20110765 
     100    149.39822   -110.56481    124824.95   -40802.911    1762.1618   -42565.073   0.35271197 
     150    163.80447    15.428314    124627.39   -40471.133    1932.0845   -42403.218   0.50302088 
     200    176.07355    23.052132    124585.65   -40215.798    2076.7991   -42292.597   0.65973734 
     250    182.83999    -48.55232    124428.46   -40033.994    2156.6096   -42190.604   0.81544487 
     300    191.81162   -178.77877    124328.82   -39856.893    2262.4306   -42119.324   0.99766475 
     350    194.56304   -104.10694    124061.39   -39764.012    2294.8837   -42058.896     1.178532 
     400    197.62228   -3.9453705    123824.89   -39670.913    2330.9677   -42001.881    1.3626629 
     450    202.72717   -13.698103    123774.35   -39562.444    2391.1802   -41953.624    1.5432148 
     500    207.99977   -126.84134    123675.09   -39502.123    2453.3709   -41955.494    1.7280525 
     550    213.00384   -39.149257     123685.3   -39394.695    2512.3942    -41907.09     1.858979 
     600    213.98823   -249.33337    123587.52   -39332.778    2524.0051   -41856.783      2.03669 
     650    217.09992     42.85851    123424.57   -39316.124    2560.7077   -41876.832    2.2126802 
     700    213.22481   -110.85842    123346.06   -39311.081    2515.0005   -41826.081    2.3697355 
     750    211.25205   -54.072479    123110.51   -39303.221    2491.7318   -41794.952     2.520946 
     800    216.41358    44.886742    123069.06   -39259.251    2552.6123   -41811.863    2.6824957 
     850    215.85842   -194.13846    123014.38   -39286.069    2546.0642   -41832.134    2.8741201 
     900    212.88082   -8.7635357    122971.53   -39262.491    2510.9432   -41773.434    3.0361842 
     950    217.37396   -134.37969    122927.82   -39315.766      2563.94   -41879.706     3.207019 
    1000    215.62635   -58.654826    122822.66   -39337.011    2543.3269   -41880.338     3.436469 
    1050    211.27303   -42.580345    122669.96   -39341.494    2491.9792   -41833.473    3.5915198 
    1100    210.33664   -199.96211    122713.43   -39299.613    2480.9345   -41780.547    3.7673587 
    1150    215.13768   -80.051573    122567.41   -39333.592     2537.563   -41871.155    3.9861952 
    1200    218.65286    22.484542    122570.84   -39292.436    2579.0248   -41871.461    4.1559428 
    1250    216.82832     5.215391    122588.86   -39291.289    2557.5042   -41848.793     4.319079 
    1300    219.03976    44.487883    122500.84   -39244.167    2583.5883   -41827.755    4.4914556 
    1350    218.43754     50.42053    122430.89   -39308.096     2576.485   -41884.581    4.5998958 
    1400    217.46508    176.34129    122430.34    -39313.32    2565.0149   -41878.335    4.7904215 
    1450    211.82978   -244.16356    122257.17   -39388.493    2498.5461   -41887.039    5.0123787 
    1500    213.07856   -129.97478    122116.39   -39380.197    2513.2756   -41893.473     5.216547 
    1550    216.32148   -29.358083    121879.95   -39356.414     2551.526    -41907.94    5.2952351 
    1600    220.35721   -82.825814    121886.91   -39359.272    2599.1276     -41958.4    5.4222126 
    1650    215.76037    39.664058    121869.14    -39357.56    2544.9076   -41902.468    5.6648789 
    1700    216.75982    21.871986    121952.01   -39388.037    2556.6962   -41944.733    5.8612188 
    1750    217.70469    204.53346    121971.14   -39365.141     2567.841   -41932.982    6.0899843 
    1800    217.25985   -164.45983    122067.67   -39377.875    2562.5941   -41940.469    6.2979063 
    1850    221.07258   -87.932789    121978.22   -39363.001    2607.5656   -41970.566    6.4978218 
    1900    213.94294    119.53615    121939.22   -39333.666     2523.471   -41857.137    6.6479184 
    1950    216.56713   -31.735954    121964.57    -39326.36    2554.4235   -41880.784    6.9201294 
    2000    218.17567   -77.674635    121873.73   -39309.335    2573.3963   -41882.731    7.1316535 
    2050    214.40523    143.87428    121777.93   -39404.262    2528.9237   -41933.186     7.319659 
    2100    212.50265   -94.236601    121742.75   -39423.235    2506.4827   -41929.718    7.5050588 
    2150    214.48222   -136.94971    121681.42   -39400.328    2529.8318    -41930.16    7.6332536 
    2200    211.70947   -65.667514    121695.15    -39379.13    2497.1271   -41876.257    7.7694807 
    2250    218.74657    16.477109    121769.74   -39348.264    2580.1301   -41928.394    7.9471791 
    2300    218.00298    72.131959    121747.44   -39340.201    2571.3594    -41911.56    8.1427124 
    2350    217.67212   -18.697296    121742.61   -39355.841    2567.4568   -41923.298    8.2712056 
    2400    216.03267    -21.31561    121810.41   -39371.723    2548.1195   -41919.843    8.3723201 
    2450    218.61845    35.903605    121667.73   -39375.073    2578.6189   -41953.692     8.556144 
    2500    211.40844   -31.096113    121580.91   -39406.431    2493.5764   -41900.007    8.7522124 
    2550    216.38984    191.70322    121582.34   -39388.176    2552.3323   -41940.508    8.9387769 
    2600    213.39077   -4.1695566    121623.37   -39437.733    2516.9581   -41954.691    9.1358608 
    2650    220.07959    28.772503    121727.05   -39398.331    2595.8532   -41994.184    9.2867081 
    2700    214.23975   -72.439992    121711.95    -39438.29    2526.9718   -41965.262    9.3426669 
    2750    216.06071   -33.844255    121729.27   -39406.573    2548.4502   -41955.023    9.5379341 
    2800    216.71034   -29.982071    121639.05   -39372.966    2556.1126   -41929.078    9.7609563 
    2850    217.87939    82.123918    121618.72   -39338.479    2569.9017    -41908.38     9.964545 
    2900    217.64398    14.323326    121710.23   -39361.157     2567.125   -41928.282    10.162466 
    2950    213.37328   -42.357526    121700.69   -39386.826    2516.7518   -41903.577    10.378898 
    3000     218.6705    39.944196    121676.32   -39404.569    2579.2328   -41983.802     10.60273 
    3050    216.00135    56.602041    121775.17   -39392.672    2547.7501   -41940.422    10.850716 
    3100    212.33358   -73.787824    121797.24    -39370.88    2504.4885   -41875.368    11.092294 
    3150    214.15239   -75.526838    121778.15   -39348.098    2525.9415   -41874.039    11.300263 
    3200    214.93716   -37.273868    121775.52   -39414.253    2535.1978   -41949.451    11.483706 
    3250    211.99637   -66.145001    121732.36   -39483.983     2500.511   -41984.494    11.706525 
    3300    214.92675   -53.953601    121719.42   -39469.788    2535.0751   -42004.863     11.92039 
    3350    214.48051    61.575078    121790.18   -39449.737    2529.8116   -41979.548    12.043853 
    3400    210.90401   -119.85951    121770.98    -39440.43    2487.6266   -41928.057    12.249335 
    3450    213.26005    40.685058    121746.13   -39407.588    2515.4163   -41923.004    12.296189 
    3500    215.79224    45.365352    121765.94   -39420.576    2545.2836   -41965.859    12.345487 
    3550    214.98827   -68.973925    121796.91   -39408.199    2535.8008       -41944    12.394863 
    3600    213.01127    46.909481    121720.12   -39416.944    2512.4819   -41929.426    12.371009 
    3650    214.44766   -250.86607    121732.23   -39418.119    2529.4241   -41947.543    12.513244 
    3700    214.30876    96.854158    121759.69   -39388.052    2527.7858   -41915.838     12.65556 
    3750    215.53273   -33.874885     121911.1   -39379.243    2542.2226   -41921.465    12.876751 
    3800    218.09699    36.402894    122033.28   -39381.709    2572.4683   -41954.177    12.978816 
    3850     217.7285  -0.84680319     122228.9   -39358.223    2568.1218   -41926.345     13.14574 
    3900    215.96349   -3.5298966    122201.63   -39384.088    2547.3034   -41931.392    13.327066 
    3950    216.80042   -211.51625    121949.91   -39420.206    2557.1751   -41977.381    13.503548 
    4000    214.61662    157.48061    121884.48   -39422.274     2531.417   -41953.691     13.70407 
    4050    211.27911   -43.359101    121876.06    -39455.86    2492.0509    -41947.91     13.82166 
    4100    213.83656   -95.164786    121823.17   -39432.619    2522.2162   -41954.836    14.042158 
    4150    218.56939   -80.565703     121837.5   -39409.158    2578.0402   -41987.198    14.282008 
    4200    216.39152   -44.067799    121815.36   -39417.714    2552.3522   -41970.066    14.372648 
    4250    215.56093   -88.927653    121703.35   -39459.684    2542.5552   -42002.239    14.507391 
    4300    211.50403   -57.098769    121691.32   -39504.541    2494.7038   -41999.245    14.668767 
    4350    214.76242    4.1350581    121650.27   -39420.825    2533.1368   -41953.962    14.885602 
    4400    216.45998   -33.969281    121654.14   -39433.117    2553.1596   -41986.276    14.968708 
    4450    215.49385   -9.9783385    121547.47   -39465.005    2541.7641   -42006.769    15.071386 
    4500    217.94451    33.137155    121499.44    -39484.65    2570.6697    -42055.32    15.269803 
    4550    211.97104   -155.74473    121490.77   -39519.956    2500.2122   -42020.168      15.4273 
    4600    211.99966    5.2979058    121540.22   -39520.476    2500.5498   -42021.026    15.499904 
    4650    213.78975   -30.742903    121490.57   -39497.283     2521.664   -42018.947    15.673925 
    4700    215.06314    -2.302685     121567.3   -39454.426    2536.6838    -41991.11    16.003784 
    4750    215.67119   -5.8694256    121479.25   -39406.543    2543.8557   -41950.399    16.198895 
    4800    217.26219     31.49495    121548.68   -39382.566    2562.6218   -41945.188    16.398463 
    4850    215.78076    27.745164    121574.96   -39392.851    2545.1482   -41937.999    16.610983 
    4900    217.30798    -126.9769    121606.53   -39344.152    2563.1618   -41907.313    16.686163 
    4950     220.2206    20.760846    121619.48   -39351.497    2597.5164   -41949.013    16.859636 
    5000    214.90201    -122.7111    121597.58    -39422.01    2534.7833   -41956.793    16.999511 
    5050    212.99384     31.44368    121575.61   -39391.285    2512.2763   -41903.561    17.253581 
    5100    213.21818   -96.161751    121529.91   -39360.081    2514.9224   -41875.003    17.487639 
    5150     219.4676   -16.186463    121553.72   -39327.778    2588.6347   -41916.412    17.673282 
    5200    214.18591    193.23541    121614.57   -39391.369    2526.3368   -41917.706    17.793653 
    5250    211.16416   -14.319238    121704.88   -39455.465    2490.6951    -41946.16    17.998814 
    5300    211.02851   -4.9751602       121632   -39461.004    2489.0951   -41950.099    18.243096 
    5350    213.23888     35.24678    121698.24   -39493.142    2515.1665   -42008.308    18.441365 
    5400    213.91102    23.760167    121558.74   -39446.605    2523.0945     -41969.7    18.651748 
    5450    216.51398    6.4845004    121671.52   -39434.089    2553.7965   -41987.886     18.82692 
    5500    212.92864    134.35897    121701.83    -39430.42    2511.5072   -41941.927    18.934708 
    5550    220.02059    78.335568    121805.61   -39499.664    2595.1572   -42094.821    18.811522 
    5600    216.67819    50.501336    121963.46   -39477.918    2555.7334   -42033.652    18.951357 
    5650    217.18566   -94.620512    121916.04   -39480.728    2561.7191   -42042.447    19.166424 
    5700    214.48751   -4.6400084    121902.19   -39488.982    2529.8942   -42018.876    19.359029 
    5750    211.41199    213.44941    121927.74   -39490.353    2493.6182   -41983.971    19.441591 
    5800    216.28246    80.977767    121987.84   -39451.524    2551.0657   -42002.589    19.583614 
    5850     212.3627    48.515362    122094.02   -39504.258     2504.832    -42009.09    19.800923 
    5900    217.03126   -33.526704    121929.87   -39514.662    2559.8979    -42074.56    19.832028 
    5950    216.18224    8.9533412    121980.77   -39548.245    2549.8836   -42098.129    19.932845 
    6000    211.75912   -18.667679     122023.8   -39511.979    2497.7127   -42009.691    20.098207 
    6050    208.37557   -114.69246    121913.88   -39561.799    2457.8035   -42019.602    20.248504 
    6100    207.09518    71.128135    121799.52   -39553.439    2442.7012    -41996.14     20.37853 
    6150    211.06558    4.4574135    121814.97   -39549.334    2489.5323   -42038.866    20.587931 
    6200    211.98465    86.265498     121718.4   -39533.267    2500.3727    -42033.64    20.766731 
    6250      215.706    130.84418    121758.12   -39475.564    2544.2664    -42019.83    20.977698 
    6300    213.72203   -51.626996    121829.91   -39441.503    2520.8654   -41962.368    21.254726 
    6350    210.75748   -85.433219    121782.63   -39459.926    2485.8982   -41945.824    21.427596 
    6400     213.4401    110.81135    121751.69   -39469.556    2517.5399   -41987.096    21.573722 
    6450    210.94723   -56.397845    121764.89   -39497.138    2488.1364   -41985.275    21.689045 
    6500    210.33856   -199.35464    121639.79   -39471.939    2480.9571   -41952.896    21.741254 
    6550    208.51937   -61.883033    121636.29   -39513.398    2459.4995   -41972.897    21.860599 
    6600    212.10378   -67.295312    121513.01   -39480.351    2501.7779   -41982.129    21.888201 
    6650    211.03766    45.972934    121372.06   -39477.928     2489.203   -41967.131    21.854292 
    6700    215.72711    57.903014    121461.78   -39506.022    2544.5154   -42050.537    21.874887 
    6750    216.85356    -13.32918    121525.86   -39514.183    2557.8019   -42071.985    22.074129 
    6800    214.91513    -101.9285    121530.17   -39490.595     2534.938   -42025.533    22.302036 
    6850    213.79008   -39.723054    121460.22   -39455.142    2521.6679    -41976.81    22.439077 
    6900    215.33334    111.57144    121590.92   -39435.482    2539.8708   -41975.353     22.51641 
    6950    214.83304    121.20386    121725.84   -39464.269    2533.9697   -41998.239    22.711192 
    7000    212.03386   -8.9456581    121850.62   -39428.137    2500.9532    -41929.09    22.848582 
    7050    210.15804   -40.286058    121859.27    -39445.89    2478.8279   -41924.718    23.000913 
    7100    215.62437   -3.6639231    121786.79   -39429.646    2543.3036    -41972.95    23.222876 
    7150    215.29901   -152.39484    121782.97   -39455.054    2539.4658    -41994.52    23.504275 
    7200     214.9447   -190.31935    121643.08    -39500.91    2535.2868   -42036.196    23.747989 
    7250    211.26457    -42.48364    121553.78   -39549.963    2491.8794   -42041.842    23.915665 
    7300    212.45814    111.74923    121596.27   -39538.642    2505.9576   -42044.599    24.226128 
    7350     212.9836    107.62891    121662.44   -39488.451    2512.1555   -42000.607    24.333726 
    7400    214.42115   -129.53792    121748.37   -39468.508    2529.1115    -41997.62     24.65166 
    7450    219.73895    97.247396    121694.15   -39437.887    2591.8352   -42029.722    24.840045 
    7500    217.05899   -113.61603    121770.57   -39427.985     2560.225    -41988.21    24.924916 
    7550    214.83738    188.75799    121806.19   -39457.517     2534.021   -41991.538     25.13478 
    7600    219.55917    30.008401    121901.23   -39415.683    2589.7147   -42005.398    25.108526 
    7650    215.64091    110.36081    122016.58    -39434.87    2543.4986   -41978.368    25.266766 
    7700    216.25489    154.50311    122008.51   -39497.295    2550.7405   -42048.035    25.437002 
    7750    214.49536    2.2416677    122134.41   -39493.195    2529.9868   -42023.181    25.624961 
    7800    213.69409   -222.22342    121948.26   -39542.563    2520.5358   -42063.099    25.793569 
    7850    212.32677   -118.31094    121775.78    -39520.96    2504.4082   -42025.369    25.928236 
    7900    216.40405     105.7299    121753.06   -39498.269    2552.4999   -42050.769    25.955044 
    7950    215.48939   -6.5242845       121876   -39475.373    2541.7114   -42017.085     26.11756 
    8000    220.23621     99.31262    122006.82   -39429.998    2597.7005   -42027.699    26.189629 
    8050    215.27199    100.18879    122110.58   -39458.989    2539.1472   -41998.136    26.225288 
    8100    215.10763   -30.537046    122232.78   -39402.211    2537.2086   -41939.419    26.367003 
    8150    216.83081   -30.569299    122161.02   -39449.683    2557.5336   -42007.217    26.477161 
    8200    217.38588    104.68423    122100.29   -39435.454    2564.0807   -41999.534    26.448503 
    8250    214.21143    36.012925    122174.59   -39448.441    2526.6378   -41975.079    26.501465 
    8300    217.07884    47.383146    122149.74   -39399.902    2560.4591   -41960.361    26.472465 
    8350    222.21787   -92.700633    122187.71   -39381.129    2621.0743   -42002.203    26.606606 
    8400    219.24616    114.00849    122355.92   -39401.304    2586.0228   -41987.327    26.902904 
    8450    218.00271   -111.38887    122351.28   -39433.454    2571.3562    -42004.81    27.233017 
    8500    216.46091     86.12246    122303.51   -39451.897    2553.1706   -42005.067    27.376916 
    8550    215.78707    25.877637    122364.77   -39460.949    2545.2226   -42006.171    27.746783 
    8600    216.62865     23.40202    122392.54   -39466.121     2555.149    -42021.27    28.013466 
    8650    218.66313   -17.981183    122365.65   -39432.129    2579.1459   -42011.275     28.23096 
    8700    216.97093   -23.302603    122318.02   -39442.861    2559.1864   -42002.047    28.501952 
    8750    214.49901   -86.331018    122254.46   -39472.626    2530.0299   -42002.656    28.640134 
    8800    216.70968   -80.021599    122178.95   -39458.704    2556.1049   -42014.809    28.750451 
    8850    210.47327    65.799494    122152.92   -39485.369     2482.546   -41967.915    28.836191 
    8900    214.02412    27.678086     122151.2   -39501.925    2524.4284   -42026.353    29.022194 
    8950    215.29147    134.50074    122332.27   -39507.053     2539.377    -42046.43      29.2314 
    9000    214.13829    25.554252    122409.86   -39446.837    2525.7752   -41972.613    29.434941 
    9050    213.74624   -49.322937    122362.79   -39468.565    2521.1509   -41989.715     29.64237 
    9100     218.0846    89.285238    122465.17   -39490.975    2572.3222   -42063.297    29.845344 
    9150    215.75828   -11.903668    122470.79   -39450.497     2544.883    -41995.38    30.000744 
    9200     215.7577      39.2454    122444.04   -39426.426    2544.8762   -41971.302    30.126316 
    9250    215.89987   -178.67824    122412.46   -39475.682    2546.5531   -42022.235    30.284337 
    9300      211.158     30.57913    122408.51   -39523.017    2490.6224   -42013.639    30.544644 
    9350    214.72516    54.758021    122393.83   -39527.795    2532.6973   -42060.492    30.673603 
    9400    216.49402    61.284061    122384.87   -39521.256    2553.5611   -42074.817    30.696671 
    9450     214.8718   -9.8549749    122334.73   -39530.042    2534.4269   -42064.468    30.786312 
    9500    212.98696    -186.6929    122350.33   -39569.803    2512.1951   -42081.998    30.897022 
    9550    215.08903   -25.283323    122336.35   -39575.495    2536.9891   -42112.484     30.96908 
    9600    210.76892    134.84195    122418.03   -39572.299    2486.0332   -42058.332    31.085129 
    9650    216.56899   -64.228259     122401.3   -39514.479    2554.4454   -42068.924    31.212672 
    9700     212.5032    95.691793    122270.03   -39486.861    2506.4891    -41993.35    31.275567 
    9750    212.50022   -68.371588    122368.65   -39471.651     2506.454   -41978.105      31.4554 
    9800    219.50323     22.03754    122155.76   -39442.302    2589.0549   -42031.357    31.573237 
    9850    219.72642   -177.58394    122030.13   -39465.771    2591.6875   -42057.458    31.678982 
    9900    216.19601    76.267541    121973.17   -39477.933    2550.0461   -42027.979    31.612109 
    9950    215.58585   -12.891295    121995.25   -39474.616    2542.8492   -42017.465    31.733841 
   10000    216.29948    49.407085     121935.8   -39530.217    2551.2665   -42081.484    31.947468 
   10050    214.79954     6.667976    121980.88   -39502.204    2533.5746   -42035.779    32.052873 
   10100    215.92304    21.347583    122072.75    -39489.53    2546.8263   -42036.356    32.138869 
   10150    216.84155  -0.22922241    122011.55   -39443.269    2557.6603   -42000.929    32.373805 
   10200    213.60836    46.262487    122032.16    -39467.16    2519.5246   -41986.684    32.510569 
   10250    215.46614    97.757772    122072.02   -39475.172    2541.4373   -42016.609    32.893992 
   10300    220.38179    26.645398    122112.92   -39459.634    2599.4176   -42059.051     32.93867 
   10350    217.87486   -35.410714    122079.68   -39448.284    2569.8482   -42018.132    33.150169 
   10400    217.11063    103.33959    122286.11   -39441.553    2560.8341   -42002.387    33.142432 
   10450    216.47795   -41.093445    122400.12   -39487.255    2553.3716   -42040.627    33.239003 
   10500    217.18361   -17.577724     122374.4   -39479.047    2561.6948   -42040.742    33.479685 
   10550    216.89291    162.45918    122340.13   -39472.401     2558.266   -42030.667    33.764352 
   10600    217.15747    39.029204    122439.04   -39488.975    2561.3865   -42050.362    33.927592 
   10650    217.46643   -189.41671    122343.52    -39499.06    2565.0307   -42064.091    34.100636 
   10700    216.16253    -128.1107    122326.35   -39513.956    2549.6512   -42063.607    34.246046 
   10750    216.97703   -19.877883    122239.86   -39539.321    2559.2582    -42098.58    34.188845 
   10800    214.08937   -30.026381    122202.68   -39614.895    2525.1981   -42140.093    34.367093 
   10850    213.69271    -103.9718    122185.79   -39612.754    2520.5195   -42133.273    34.344855 
   10900    215.52317   -17.768041    122103.62   -39606.879    2542.1099   -42148.988    34.486892 
   10950    212.34009   -179.76608    122147.11   -39632.555    2504.5653    -42137.12    34.546811 
   11000    211.80414    50.735526    122094.78   -39620.752    2498.2436   -42118.996    34.517813 
   11050    217.25813      -102.68    122135.38   -39583.159    2562.5739   -42145.733    34.729111 
   11100     215.9057   -62.116533    122109.72   -39583.654    2546.6218   -42130.276    34.856043 
   11150    215.38833   -139.37807    122020.47   -39619.125    2540.5195   -42159.645    34.893998 
   11200    209.75346   -120.19456    121900.42   -39661.219    2474.0558   -42135.275     35.12522 
   11250    215.13993    2.2937093    121960.91   -39658.727    2537.5896   -42196.317    35.477675 
   11300     212.8913    46.109085    122041.55   -39614.973    2511.0668    -42126.04    35.656155 
   11350    210.63084    74.722614    122006.32   -39626.638    2484.4045   -42111.042    35.727456 
   11400    212.38998    96.784523    122125.19    -39584.43    2505.1537   -42089.584     35.69396 
   11450    215.58498    3.3826981    122126.68   -39571.392     2542.839   -42114.231    35.983383 
   11500    213.95775    40.063631    122107.38   -39516.497    2523.6456   -42040.142    36.321386 
   11550    217.19191    -78.06578    121972.26   -39465.479    2561.7928   -42027.271    36.630403 
   11600    216.50785    1.4392992    121973.19   -39509.261    2553.7243   -42062.985    36.681084 
   11650    219.30819    166.04829    122059.01   -39429.229    2586.7544   -42015.984    36.738175 
   11700    220.70267    24.297963    122358.48   -39386.385    2603.2024   -41989.587    36.828649 
   11750    217.90195   -13.156818    122277.24   -39388.139    2570.1678   -41958.307    36.916917 
   11800    219.46893      -43.182    122181.63   -39444.537    2588.6504   -42033.188    36.809016 
   11850    216.26128   -36.190223    122168.02   -39460.777    2550.8159   -42011.593    36.945094 
   11900    212.78096    145.61265    122130.71   -39460.133    2509.7654   -41969.898    36.995584 
   11950    217.48332    119.07276    122236.09   -39441.483      2565.23   -42006.713    37.157223 
   12000    215.87368    16.885196    122188.88   -39417.493    2546.2441   -41963.737    37.212569 
   12050    218.95741   -90.450948    122121.66   -39453.529     2582.617   -42036.146    37.303419 
   12100    215.31193   -32.352787    122051.53   -39460.024    2539.6183   -41999.642    37.362193 
   12150    214.93783   -117.71624    122059.95   -39463.804    2535.2058    -41999.01    37.545414 
   12200    218.74685    5.4513801    122070.21   -39453.474    2580.1334   -42033.608     37.69867 
   12250    214.10106    1.5352782    122078.83   -39455.991     2525.336   -41981.327    37.931659 
   12300    215.45356   -52.951334    122139.79   -39487.259    2541.2888   -42028.548    37.902585 
   12350    215.44541    61.201575    122182.55   -39493.011    2541.1927   -42034.203     38.16884 
   12400    217.79309   -79.078719    122117.83    -39466.43    2568.8837   -42035.314    38.283066 
   12450     213.0701    188.58522    122119.08     -39465.1    2513.1757   -41978.276    38.519158 
   12500    211.74315   -23.121024       122124   -39424.447    2497.5243   -41921.971    38.519769 
   12550    218.00798   -45.512466    122098.45   -39382.197    2571.4184   -41953.616    38.706039 
   12600    208.35085   -10.766683     121964.6   -39404.113    2457.5119   -41861.625    38.676133 
   12650       220.12   -46.406966    121923.39   -39424.084    2596.3298   -42020.414    38.833467 
   12700     218.5545    176.29542    122044.61   -39431.311    2577.8646   -42009.176    38.991809 
   12750     217.3623   -179.76083    121954.87   -39419.661    2563.8025   -41983.464    38.979181 
   12800    215.32742    25.974673    121858.12   -39438.828     2539.801   -41978.629    39.063418 
   12850    215.59954    103.66353    121988.73   -39446.288    2543.0106   -41989.298    39.117682 
   12900    215.93174   -10.092864    122033.25   -39480.523     2546.929   -42027.452    39.268831 
   12950    214.48104   -77.976624    122053.13   -39471.594    2529.8178   -42001.412    39.603041 
   13000    213.15053   -139.61519    122004.29   -39474.446    2514.1244   -41988.571    39.695938 
   13050    216.57643    107.75001    121946.58   -39488.366    2554.5331   -42042.899     39.92676 
   13100    213.40667   -108.45582    121837.51   -39508.389    2517.1456   -42025.535     40.06772 
   13150    214.00567    270.53374     121924.3   -39537.634    2524.2108   -42061.845    40.254321 
   13200    214.88426   -111.09256    121990.05   -39539.933    2534.5739   -42074.507    40.721366 
   13250    211.23152   -82.496104    121936.28   -39537.365    2491.4896   -42028.855    40.837507 
   13300    212.09946   -9.2126897    121842.04   -39583.831     2501.727   -42085.558    40.878474 
   13350    210.61651    23.410694    121876.54    -39582.89    2484.2355   -42067.126    40.819794 
   13400    208.96632   -59.567774    121889.88   -39619.718    2464.7715    -42084.49    40.765184 
   13450    213.55451     4.961233    121831.48    -39550.74    2518.8894   -42069.629    40.818406 
   13500    210.85468    54.560798    121925.08   -39532.829    2487.0447   -42019.874     40.92772 
   13550    211.07159   -210.35419    121905.78   -39511.547    2489.6032   -42001.151    41.121685 
   13600    209.79613    85.295819    121967.06    -39506.55    2474.5591   -41981.109    41.361741 
   13650    212.73843   -52.342356    121954.08   -39528.746    2509.2636   -42038.009     41.64567 
   13700    211.80609    33.583786     121862.4   -39505.207    2498.2667   -42003.474    41.804129 
   13750    216.81026    104.66025    121885.47   -39470.588    2557.2911   -42027.879    41.951792 
   13800    215.59899    106.69624    122104.03   -39479.668    2543.0041   -42022.673    42.363752 
   13850    211.85245   -15.655775     122142.6   -39481.022    2498.8135   -41979.835    42.543964 
   13900    214.38967   -91.639144    122036.09   -39452.514    2528.7401   -41981.254    42.604847 
   13950    217.71433   -99.647512    122023.29   -39399.176    2567.9548   -41967.131    42.705926 
   14000    219.65785   -3.6923745    122050.37   -39394.575    2590.8787   -41985.454    42.853302 
   14050    212.65462   -6.1187535    122028.31   -39431.339    2508.2751   -41939.615     42.97684 
   14100    213.40405    93.859597    122129.52   -39449.608    2517.1147   -41966.722    43.076292 
   14150    215.45049   -51.725994    122164.46   -39464.122    2541.2526   -42005.374    43.260054 
   14200    212.21498      7.19075     122165.4   -39451.885    2503.0895   -41954.975     43.52398 
   14250    219.24882    120.26181    122270.04   -39434.896    2586.0542    -42020.95    43.675729 
   14300    216.42933    26.762456    122314.13   -39479.018    2552.7981   -42031.816    43.912468 
   14350    213.37322    -64.84832    122311.61   -39501.497     2516.751   -42018.248    44.228088 
   14400    216.17584   -64.387489    122132.53   -39513.285    2549.8081   -42063.093    44.414982 
   14450    213.85155    25.798566    122087.37   -39522.788     2522.393   -42045.181    44.550085 
   14500    212.15424    22.878533    122005.33   -39525.686    2502.3731   -42028.059    44.887542 
   14550    212.84226    24.142596    121992.29   -39553.265    2510.4884   -42063.753    44.857713 
   14600    215.18181    109.29827    122062.78    -39530.17    2538.0835   -42068.254    45.045393 
   14650    216.54361   -20.031225     122068.4   -39520.132     2554.146   -42074.278    45.132474 
   14700    217.72212    -132.2394    122044.79   -39500.274    2568.0467    -42068.32    45.215546 
   14750    214.96745   -101.04402    122108.49   -39432.345    2535.5551     -41967.9    45.327092 
   14800    215.03828   -117.77383    121982.26   -39470.239    2536.3906   -42006.629    45.289132 
   14850    217.09341   -123.62954    121904.98   -39485.046     2560.631   -42045.677    45.318627 
   14900    219.81405    59.516012     121871.4   -39468.529    2592.7211    -42061.25    45.378761 
   14950     213.9077   -41.819145    121812.92   -39521.343    2523.0554   -42044.399    45.667006 
   15000    211.50147   -118.69675    121740.04     -39507.1    2494.6736   -42001.774    46.034604 
   15050    214.00506   -8.0395308    121732.57   -39496.306    2524.2037   -42020.509    46.314314 
   15100    211.42871   -90.008634    121732.36    -39510.03    2493.8154   -42003.845    46.240967 
   15150    213.68806    149.35263    121914.62   -39485.562    2520.4647   -42006.027    46.356512 
   15200    213.37974    32.764964    122007.78   -39469.264    2516.8279   -41986.092    46.357814 
   15250    217.11163   -25.709057    122055.31   -39479.837    2560.8459   -42040.683    46.411762 
   15300    214.54287   -24.715568    121990.86   -39507.925    2530.5472   -42038.473    46.361123 
   15350    214.29726    65.330067    121876.41   -39505.665    2527.6502   -42033.315    46.448614 
   15400    212.79014    91.209444    121812.54   -39530.094    2509.8736   -42039.968    46.519758 
   15450    211.63309    84.277623    121921.82   -39517.271    2496.2261   -42013.497    46.761913 
   15500    211.89929    53.219495    122005.91   -39476.356     2499.366   -41975.722    47.031772 
   15550    216.86592   -3.4169341    122058.63   -39402.277    2557.9477   -41960.225    47.180135 
   15600    219.99046   -58.024511    122077.12   -39383.014    2594.8018   -41977.816      47.3518 
   15650    215.31912   -105.51939     121960.5   -39378.715     2539.703   -41918.418    47.551807 
   15700    216.66746    -44.30659    122022.08   -39365.743    2555.6069    -41921.35    47.807616 
   15750    219.46195   -67.814715    121966.66    -39349.07    2588.5681   -41937.639    47.929262 
   15800     216.3571   -15.288057    121797.53   -39362.391    2551.9461   -41914.337    48.056952 
   15850    215.52206   -49.920561    121644.44   -39384.309    2542.0968   -41926.406    48.146703 
   15900    215.42422   -14.048603    121685.96   -39370.212    2540.9428   -41911.154    48.133838 
   15950    215.16808    182.99518    121673.94   -39383.274    2537.9216   -41921.195    48.178838 
   16000    215.92967   -15.826844    121827.15   -39398.611    2546.9046   -41945.515    48.377731 
   16050    214.25628   -48.476445    121811.73   -39437.166    2527.1668   -41964.333     48.69626 
   16100    215.32167    -57.08952    121768.59   -39434.368    2539.7332   -41974.101    48.661468 
   16150    219.68723   -90.235226    121744.13   -39390.578    2591.2252   -41981.803    48.820388 
   16200    212.21036    47.578141    121825.03   -39415.091    2503.0351   -41918.126    48.987351 
   16250    214.35937    11.962942    121664.08   -39402.337    2528.3828    -41930.72    49.188482 
   16300    213.28492    40.892553    121734.19   -39432.787    2515.7096   -41948.497    49.247265 
   16350    216.11182    33.720803    121758.81    -39408.25     2549.053   -41957.303    49.435244 
   16400     216.8077   -21.241102    121658.21   -39445.933     2557.261   -42003.194    49.651236 
   16450    215.35263    -35.08367    121554.32   -39403.362    2540.0983   -41943.461    49.628516 
   16500     214.5733    -76.04093    121600.25   -39390.174    2530.9061    -41921.08    49.889851 
   16550    217.75538    64.033087    121489.07   -39401.162     2568.439   -41969.601    50.038674 
   16600    218.81169    222.27681    121693.79   -39366.091    2580.8982   -41946.989    50.343166 
   16650    216.95402    -15.82557    121832.87    -39419.62    2558.9869   -41978.607    50.611434 
   16700     216.5956    49.885742     121848.4   -39401.121    2554.7593    -41955.88    50.753558 
   16750    215.88805    104.95822    121944.01   -39437.294    2546.4136   -41983.708    50.841025 
   16800    219.07981   -41.043556    121994.08   -39419.962    2584.0607   -42004.022    50.946901 
   16850    214.09414    18.914825    122065.16   -39437.417    2525.2543   -41962.671    51.044503 
   16900    218.04098     120.3479    121931.89   -39465.626    2571.8076   -42037.434    50.950624 
   16950    215.73022   -29.054313    121899.26   -39481.751     2544.552   -42026.303    51.148447 
   17000     213.9633    34.977948    121975.14   -39502.842    2523.7111   -42026.553    51.253551 
   17050    215.82064   -41.360447    121970.53   -39443.718    2545.6185   -41989.337     51.40019 
   17100    217.54765    104.47009    122021.76   -39470.554    2565.9887   -42036.543    51.785111 
   17150    213.08279   -11.374958    122048.58   -39495.505    2513.3255    -42008.83    51.964308 
   17200    213.94143    57.424253    121927.23   -39521.675    2523.4532   -42045.128    52.098565 
   17250    210.48043     34.38563    122025.35   -39536.897    2482.6304   -42019.528    52.519731 
   17300    208.31325    58.529882    121979.96     -39570.5    2457.0684   -42027.568    52.846388 
   17350    214.05069    102.91736    122031.97   -39552.396    2524.7418   -42077.138    53.129977 
   17400    213.69605     -83.6283    122055.74   -39593.201    2520.5589    -42113.76    53.286625 
   17450    213.81946    45.348238    121940.69   -39531.067    2522.0146   -42053.082    53.493731 
   17500    216.10285   -168.16113    121912.41   -39524.841    2548.9472   -42073.788    53.668223 
   17550    214.10477    35.732037    121924.93   -39503.269    2525.3798   -42028.649    53.762489 
   17600     210.9634    102.38296    121909.35   -39528.062    2488.3271   -42016.389     53.87327 
   17650    214.66582   -39.749997    121890.43   -39523.533    2531.9974    -42055.53    53.988117 
   17700    212.58519   -115.97541    121904.46   -39541.895    2507.4562   -42049.351    54.098333 
   17750    211.87088   -43.801893    121751.14   -39563.095    2499.0308   -42062.126    54.012093 
   17800    213.03666    77.255465    121887.34   -39534.234    2512.7813   -42047.015    54.136545 
   17850    214.52094    83.299371    122148.62   -39478.901    2530.2885    -42009.19    54.355107 
   17900     215.7397   -15.509858    122075.38   -39465.942    2544.6639   -42010.606    54.458644 
   17950    212.02831   -1.4432877    121893.15   -39489.665    2500.8878   -41990.553    54.588632 
   18000    220.24145    60.463734    121936.35   -39433.413    2597.7623   -42031.176     54.80884 
   18050    218.27571     28.38838    122112.15   -39406.298    2574.5763   -41980.875    54.844219 
   18100    215.82236   -98.001385    121977.96   -39412.984    2545.6388   -41958.622    55.005105 
   18150    212.12618    51.384005    121984.16   -39452.899    2502.0422   -41954.941    55.158526 
   18200     219.9555   -79.195265    121915.82   -39464.253    2594.3895   -42058.643    55.240832 
   18250    216.55095    84.948221     121929.9    -39477.69    2554.2326   -42031.923    55.473552 
   18300    215.33784    72.735376    121967.53   -39436.256    2539.9239    -41976.18    55.586319 
   18350    218.49119   -31.158745    121980.54   -39469.127    2577.1179   -42046.245    55.693738 
   18400    215.09051   -127.76145    121982.17   -39505.554    2537.0066   -42042.561    56.014108 
   18450    214.73216    46.947637     121866.7   -39519.892    2532.7799   -42052.672    56.408756 
   18500    218.81374   -108.65071    121896.07   -39496.919    2580.9224   -42077.842    56.584739 
   18550    215.69807    16.129443    121844.13   -39489.522    2544.1728   -42033.694    56.710271 
   18600    215.78488    69.352266    122012.47   -39445.383    2545.1967    -41990.58    57.052089 
   18650    214.74324   -84.797275    122062.93   -39493.847    2532.9105   -42026.757    57.066429 
   18700    214.83971    47.980544    122031.65   -39464.091    2534.0484   -41998.139    57.181824 
   18750    211.94972    114.40256     122007.2   -39497.025    2499.9607   -41996.986    57.353416 
   18800    217.95878   -206.12409    121903.55   -39467.512    2570.8381   -42038.351    57.455568 
   18850    216.04754    133.96965    121826.59   -39453.229    2548.2949   -42001.523    57.517757 
   18900    216.61499   -83.390514    121770.63    -39438.92     2554.988   -41993.908    57.824965 
   18950    212.53223     134.6906     121734.8   -39412.722    2506.8315   -41919.554    57.798069 
   19000    214.69697    36.953556    121859.42   -39417.818    2532.3648   -41950.183    58.107063 
   19050    214.60305    -238.4722     121741.5   -39428.671    2531.2569   -41959.928     58.19757 
   19100    215.10295   0.36681645     121672.4   -39392.739    2537.1534   -41929.892     58.11995 
   19150    212.63689   -10.350286    121628.59   -39437.872     2508.066   -41945.938    58.271891 
   19200    219.83099   -109.99223    121609.95   -39433.841    2592.9209   -42026.762    58.235685 
   19250     216.8858    126.82053    121655.02   -39400.911    2558.1822   -41959.093    58.236581 
   19300     218.9614    119.44546    121718.37   -39336.638     2582.664   -41919.302      58.4019 
   19350    214.14825   -128.48724    121815.67   -39381.016    2525.8926   -41906.908    58.581232 
   19400    218.04566    34.426607    121898.52   -39374.896    2571.8628   -41946.759    58.836868 
   19450    218.36654   -66.834919    121872.94    -39386.02    2575.6476   -41961.667    58.933344 
   19500    217.90099    104.17987    121768.05   -39339.484    2570.1564    -41909.64    59.022667 
   19550    212.55049   -3.4226514    121799.22   -39340.237    2507.0469   -41847.284    59.237688 
   19600     218.4685   -49.267764    121671.47   -39347.991    2576.8503   -41924.841    59.435351 
   19650    215.73368    226.46853    121720.98   -39313.157    2544.5928    -41857.75    59.662845 
   19700    217.60984   -105.64952    121692.05   -39351.492    2566.7223   -41918.215    60.044635 
   19750    220.82292   -42.770214    121665.56    -39334.96    2604.6208    -41939.58    60.231385 
   19800    218.87935    28.327829    121718.26   -39354.897    2581.6963   -41936.593    60.374852 
   19850    221.75782   -61.311688    121655.57    -39291.69     2615.648   -41907.338     60.39152 
   19900    217.82098     125.4436    121639.74   -39363.718    2569.2127   -41932.931    60.604318 
   19950    216.18828   -100.37129    121657.53   -39377.618    2549.9549   -41927.573     60.70855 
   20000    216.24785    40.640257    121666.22   -39403.371    2550.6575   -41954.028    60.762296 
   20050    214.32205   -133.44105     121864.5   -39419.506    2527.9426   -41947.448    60.821068 
   20100    213.38335   -46.415969    121769.25   -39432.791    2516.8706   -41949.662    61.067525 
   20150    214.42067    9.5279267    121728.79   -39444.806    2529.1058   -41973.912    61.356172 
   20200    216.18226    18.272881    121675.33   -39436.009    2549.8839   -41985.893    61.495558 
   20250    217.56467   -69.957854    121640.28   -39443.073    2566.1894   -42009.262    61.580449 
   20300    214.44548   -40.900198    121547.65   -39417.417    2529.3985   -41946.816    61.787141 
   20350     218.9584    6.1797761    121545.51    -39379.73    2582.6287   -41962.359    62.124697 
   20400    216.89665    64.277826    121524.12   -39422.472    2558.3101   -41980.783    62.171894 
   20450    214.40118   -23.652495    121550.31   -39434.579     2528.876   -41963.455    62.374662 
   20500    208.36725   -19.851868    121483.56   -39462.906    2457.7053   -41920.611    62.465456 
   20550     212.4614    39.088595     121473.6    -39495.73    2505.9961   -42001.726    62.359831 
   20600    214.21466   -62.054973    121445.25   -39471.969    2526.6759   -41998.644    62.482027 
   20650    213.82691    188.28216    121535.92   -39478.257    2522.1024   -42000.359    62.568047 
   20700    218.82527     20.68633    121550.75   -39438.679    2581.0584   -42019.738    62.520984 
   20750    219.14581   -106.24523     121478.6   -39436.179    2584.8392   -42021.018    62.747387 
   20800    213.21829   -43.989425    121444.81   -39404.535    2514.9237   -41919.459    63.021449 
   20850    214.57544   -72.533105    121358.41   -39397.239    2530.9313    -41928.17    63.241534 
   20900    217.92474     20.06863    121370.44   -39416.587    2570.4366   -41987.024      63.3608 
   20950    213.72479    10.085232    121358.01   -39425.898    2520.8978   -41946.796    63.522498 
   21000    215.06167    71.320041    121343.14   -39438.896    2536.6665   -41975.563    63.466623 
   21050    214.51124    68.255444    121327.85   -39393.166    2530.1741    -41923.34     63.61037 
   21100    216.34884    24.509289    121313.25   -39402.458    2551.8487   -41954.307    63.888268 
   21150    217.58821   -36.047574    121341.45   -39397.939    2566.4671   -41964.406    63.918855 
   21200     212.8079    -79.29909    121260.82   -39382.994    2510.0831   -41893.077    64.095291 
   21250    216.93041    43.830965     121343.8   -39349.844    2558.7083   -41908.552    64.193626 
   21300    212.59863   -3.3450127    121453.58    -39342.44    2507.6147   -41850.055    64.517077 
   21350    214.88722    32.256704    121401.81   -39379.224    2534.6088   -41913.833    64.602574 
   21400      213.913    77.728798    121405.86   -39376.049    2523.1178   -41899.167      64.7625 
   21450     215.3431   -54.498226     121445.5   -39333.138    2539.9859   -41873.124    64.866524 
   21500    216.76848    106.79285    121405.88   -39336.096    2556.7983   -41892.895    64.963736 
   21550    220.27794    36.835972    121533.08   -39311.001    2598.1927   -41909.194    65.206171 
   21600    219.53489   -42.708985    121544.36    -39289.44    2589.4284   -41878.868    65.241977 
   21650    213.60324    64.014339    121462.91   -39324.223    2519.4642   -41843.687    65.320761 
   21700    216.70567   -24.083369    121464.42   -39376.831    2556.0575   -41932.889    65.386742 
   21750    219.77337    195.88735    121394.85   -39378.918    2592.2412   -41971.159    65.544895 
   21800    217.66582   -2.1229576    121390.22   -39405.194    2567.3826   -41972.577    65.612874 
   21850    213.69578    54.923802    121357.67   -39431.082    2520.5557   -41951.637    65.919909 
   21900    218.57899    -147.4876    121298.71   -39413.361    2578.1535   -41991.514    65.920845 
   21950     215.3785    178.86843    121314.81   -39441.647    2540.4034    -41982.05    66.058136 
   22000     213.2778   -26.280188    121380.76   -39454.464    2515.6256    -41970.09    66.271001 
   22050    217.18592   -57.648903    121306.93   -39433.549    2561.7221   -41995.271    66.367893 
   22100     212.2234    189.01812    121382.28   -39468.911    2503.1889     -41972.1    66.722916 
   22150     211.4156    -96.77879    121452.63   -39519.398    2493.6608   -42013.059     66.79019 
   22200    215.15328    47.065701    121534.79   -39534.528     2537.747   -42072.275    66.913152 
   22250    214.44223    34.919246    121540.19    -39505.11    2529.3602    -42034.47    67.161865 
   22300     214.7085  -0.63397357    121463.19   -39498.532    2532.5008   -42031.033    67.284358 
   22350    215.76515    31.414997    121424.66   -39437.459    2544.9641   -41982.423    67.485726 
   22400    216.05283   -96.641992    121307.05    -39432.78    2548.3572   -41981.137    67.742149 
   22450    215.81422   -114.35118    121178.22   -39437.382    2545.5429   -41982.925    67.886099 
   22500    216.09699    24.259997    121202.56   -39423.142    2548.8781    -41972.02    67.934268 
   22550    215.03375    121.98253    121287.68   -39455.124    2536.3371   -41991.461    68.149208 
   22600    212.30078     245.7359    121435.45   -39452.408    2504.1016    -41956.51    68.289651 
   22650    213.09482   -4.3139152    121649.21   -39503.139    2513.4674   -42016.607    68.427458 
   22700    219.51857   -57.043626    121838.57   -39492.078    2589.2359   -42081.314    68.622479 
   22750    215.26089    99.183405    121892.69   -39484.575    2539.0162   -42023.592    68.750189 
   22800    221.75904    69.878068    122040.82   -39445.418    2615.6624    -42061.08    68.839145 
   22850    212.13542      60.9008     122105.3   -39491.924    2502.1511   -41994.075    68.905979 
   22900    215.28008   -6.8185916     122103.2   -39492.729    2539.2426   -42031.972    69.210718 
   22950    214.21474    -197.5556    121922.68   -39529.845    2526.6769   -42056.522    69.537072 
   23000    214.95388   -198.90229    121778.59   -39516.868    2535.3951   -42052.263    69.529926 
   23050    211.07986    47.426025    121647.38   -39544.155    2489.7008   -42033.856    69.461468 
   23100    214.79831    74.503079    121770.13    -39464.24    2533.5601     -41997.8    69.515043 
   23150    214.04786    136.74553    121786.48   -39491.416    2524.7086   -42016.125    69.720512 
   23200    213.31836    118.43609    121883.13   -39437.793     2516.104   -41953.897    69.972468 
   23250    219.68896    66.551312    121787.96   -39423.458    2591.2457   -42014.704    70.244479 
   23300    216.80984   -197.70062     121733.9    -39439.43    2557.2863   -41996.716    70.620832 
   23350    215.69543   -18.243231    121786.54   -39432.432    2544.1417   -41976.573    70.622189 
   23400    214.52998   -118.42523    121617.63   -39433.399    2530.3951   -41963.794    70.458567 
   23450     213.8787   -114.79109     121511.4   -39426.619    2522.7133   -41949.332    70.411696 
   23500    217.41938   -13.239877    121566.19   -39388.569    2564.4758   -41953.044    70.311375 
   23550    216.20919    113.53567    121628.55   -39363.319    2550.2015   -41913.521    70.204815 
   23600    219.76154   -148.22559    121739.31   -39366.834    2592.1017   -41958.936    70.407366 
   23650    219.32628   -72.260145     121666.7   -39391.469    2586.9679   -41978.437    70.786165 
   23700    217.30001   -107.27952    121507.26   -39397.292    2563.0678    -41960.36    70.955411 
   23750    220.42873   -7.4504502     121574.7   -39384.199    2599.9712    -41984.17    71.154972 
   23800     215.5533    102.62477     121685.9    -39419.33    2542.4652   -41961.795    71.267082 
   23850    215.75087   -171.22943    121742.73   -39423.188    2544.7956   -41967.983    71.571717 
   23900    215.41443    136.71385    121658.26   -39438.588    2540.8273   -41979.416    71.729398 
   23950    216.38088    192.97044    121793.27   -39430.073    2552.2267   -41982.299    71.713282 
   24000    216.00966    44.564247    121900.73   -39438.939    2547.8481   -41986.787    71.882759 
   24050    218.37033    18.350998    121911.97   -39424.242    2575.6924   -41999.934    71.953176 
   24100    215.16823    101.11683    121908.01   -39388.401    2537.9233   -41926.324    72.056662 
   24150    217.28659    28.239716    122055.71   -39433.306    2562.9095   -41996.216    72.051404 
   24200    211.09491   -85.725007    122108.58   -39475.673    2489.8783   -41965.551    72.213078 
   24250    213.53346   -39.384322    121990.37   -39482.959    2518.6412   -42001.601    72.316851 
   24300    216.71936    249.32943    122243.78   -39507.636     2556.219   -42063.855    72.503863 
   24350    214.03179   -20.422741     122408.2   -39516.992    2524.5189   -42041.511    72.666563 
   24400    215.21751    32.157815    122322.31   -39554.019    2538.5046   -42092.523    72.814824 
   24450    209.62835    59.450544    122367.32   -39530.748    2472.5801   -42003.328    73.057786 
   24500    213.41144   -184.25578    122322.96   -39530.817    2517.2019   -42048.019    73.054326 
   24550    218.82892    69.417581    122386.62   -39563.888    2581.1014   -42144.989    73.112164 
   24600    213.66022   -86.277007    122572.44   -39593.348    2520.1362   -42113.484     73.13903 
   24650    215.45307     48.19477    122417.63   -39615.136     2541.283   -42156.419    72.974813 
   24700    215.36895   -155.46601    122335.52   -39629.005    2540.2909   -42169.296    73.125695 
   24750    217.28268    -43.58253     122187.8   -39584.093    2562.8634   -42146.956    73.228908 
   24800    210.27949    4.7030266    122201.79   -39601.595    2480.2604   -42081.855    73.387872 
   24850    212.63841    72.281562    122277.07   -39568.223     2508.084   -42076.307    73.639413 
   24900    213.61692   -66.305961    122222.19   -39613.617    2519.6255   -42133.243    73.888487 
   24950    211.95477   -5.1958089    122176.61   -39636.229    2500.0204    -42136.25    74.107141 
   25000    212.33979    61.466171     122319.2   -39594.186    2504.5617   -42098.747    74.339959 
   25050    214.31741   -63.081247    122284.63   -39643.609    2527.8879   -42171.496    74.233217 
   25100    212.82115    55.473263    122277.33   -39645.092    2510.2394   -42155.331    74.412883 
   25150     210.6998    27.941799    122289.39   -39670.656    2485.2179   -42155.874    74.489491 
   25200    215.23113   -28.331387    122193.76   -39733.048    2538.6653   -42271.714     74.44023 
   25250    213.55265   -11.546837    122194.51   -39715.518    2518.8675   -42234.385    74.692584 
   25300    214.11045   -134.64973    122153.55   -39673.782    2525.4467   -42199.229    74.769212 
   25350     215.7317     103.8739    122110.36   -39628.342    2544.5695   -42172.911    75.009071 
   25400    213.60054    87.809716       122193   -39660.979    2519.4324   -42180.412    75.232702 
   25450    215.21074   -69.070376    122170.85   -39631.578    2538.4247   -42170.003    75.290713 
   25500    215.58716   -123.36113    122068.11   -39632.229    2542.8647   -42175.093    75.612961 
   25550    210.92195   -4.7192141    122029.59   -39572.135    2487.8382   -42059.973    75.649603 
   25600    220.69249   -160.36287    121967.74   -39536.254    2603.0824   -42139.336    75.675425 
   25650    213.43363    107.84824    121992.06   -39595.021    2517.4636   -42112.484    75.832742 
   25700    212.64848    82.471487    122018.64   -39597.872    2508.2027   -42106.074    75.893741 
   25750    214.28611   -111.84879     121927.2   -39622.711    2527.5187    -42150.23    75.916557 
   25800     219.3775    150.22988     121983.8   -39524.985     2587.572   -42112.557    75.949539 
   25850    220.03498    31.040334    122128.52   -39521.158    2595.3269   -42116.485    76.170421 
   25900    220.26063    104.90986    122091.28   -39546.047    2597.9885   -42144.036    76.237249 
   25950    212.14498    21.768321    122198.35   -39593.048    2502.2639   -42095.312    76.574406 
   26000    215.17094    48.269969    122226.57   -39565.713    2537.9553   -42103.668    76.493732 
   26050    215.56737    25.689336    122215.91   -39548.566    2542.6313   -42091.198    76.645528 
   26100    216.97422   -186.04708    122261.33   -39545.941    2559.2251   -42105.166     76.80156 
   26150    215.77349    47.358803    122212.59    -39546.97    2545.0624   -42092.032    76.939183 
   26200    209.90368   -21.945426    122228.83   -39580.398    2475.8277   -42056.226    77.151831 
   26250    216.12102   -237.04781    122170.71   -39604.768    2549.1616    -42153.93      77.2457 
   26300    212.48395    3.6234654    122165.92   -39596.431    2506.2621   -42102.693    77.378743 
   26350    216.19779    -28.68194    122117.47   -39621.389     2550.067   -42171.456    77.594063 
   26400    214.28001    29.883011    122076.21   -39629.588    2527.4468   -42157.035    77.623054 
   26450     216.1676    13.463997    122165.33   -39580.925     2549.711   -42130.636    77.707492 
   26500    221.08328     34.18471    122197.06   -39572.972    2607.6917   -42180.664    77.739375 
   26550    215.78754    49.609786    122240.54   -39561.081    2545.2281   -42106.309    77.962553 
   26600    214.54827   -80.500902    122200.43    -39556.83    2530.6109   -42087.441    78.068928 
   26650    214.55318   -12.529866    122090.08   -39529.287    2530.6688   -42059.956    77.995277 
   26700     215.6631    39.535798    122188.04    -39500.16    2543.7603    -42043.92    78.274414 
   26750    218.74729    74.431118    122198.56   -39501.469    2580.1386   -42081.607    78.431522 
   26800    213.59922   -45.468172     122195.8   -39549.557    2519.4168   -42068.973    78.572069 
   26850    216.63003    4.6021938    122265.21   -39564.572    2555.1653   -42119.737    79.021738 
   26900    216.36537   -30.857728    122340.91   -39527.184    2552.0436   -42079.227    79.065496 
   26950     214.9368    158.38999    122343.56    -39515.52    2535.1936   -42050.713    79.205864 
   27000    220.41195    109.79021    122560.02     -39509.1    2599.7733   -42108.873    79.260388 
   27050    217.68137    -40.25889    122599.56   -39530.282     2567.566   -42097.848    79.570958 
   27100    223.75693   -147.45276    122563.62   -39523.297    2639.2276   -42162.525     79.70252 
   27150    218.25962   -36.599348    122349.27   -39528.373    2574.3864    -42102.76    79.751083 
   27200    216.92088   -57.903443    122243.78   -39572.529     2558.596   -42131.125     79.99445 
   27250    217.88006   -38.326646    122176.95   -39559.606    2569.9096   -42129.515    80.024401 
   27300    218.12918   -49.934493    122141.22   -39506.131    2572.8479   -42078.979    80.030813 
   27350    217.94125   -14.706472    122145.59   -39503.396    2570.6313   -42074.027    79.993353 
   27400    218.69226    188.26125    122173.95   -39528.781    2579.4896    -42108.27    80.196548 
   27450    216.63732     64.97741    122217.76   -39546.247    2555.2514   -42101.498    80.483011 
   27500    213.83218   -198.82131     122183.4   -39597.446    2522.1646    -42119.61    80.344542 
   27550    214.88684   -82.746603    121973.29    -39626.44    2534.6043   -42161.045    80.490976 
   27600    212.00586    115.78492    122030.58   -39652.872     2500.623   -42153.495    80.720265 
   27650    212.50317    65.734718     122043.2   -39624.522    2506.4888   -42131.011    80.746023 
   27700    215.65529   -22.675089    121932.75   -39573.176    2543.6683   -42116.844    80.829422 
   27750    219.15247   -103.11081    121968.95   -39539.142    2584.9177    -42124.06    80.732463 
   27800    217.43945     71.97022    121856.19   -39545.171    2564.7125   -42109.883    81.002637 
   27850    216.69137    127.02714    122024.73   -39582.924    2555.8889   -42138.813    81.029341 
   27900    215.35289   -172.95906    121977.52   -39624.273    2540.1014   -42164.374    81.013873 
   27950    214.29168   -89.745823    121918.47   -39624.739    2527.5844   -42152.323     81.45329 
   28000    210.80412   -8.3032914    121810.03   -39651.729    2486.4484   -42138.178    81.351947 
   28050    210.68669    92.470795    121927.28   -39678.267    2485.0633   -42163.331    81.385339 
   28100    216.50066    26.552108       121963   -39634.978    2553.6394   -42188.618    81.641769 
   28150    212.84345   -23.600574    121904.71   -39617.678    2510.5024    -42128.18    81.490981 
   28200    212.94164    178.92095    122047.58   -39604.832    2511.6606   -42116.492     81.43175 
   28250      214.233    8.0351454    122016.67   -39610.204    2526.8923   -42137.097     81.62567 
   28300    210.73408    65.747877     122044.6   -39598.013    2485.6223   -42083.635     81.75018 
   28350    216.05046    14.049823     122058.7    -39586.43    2548.3293   -42134.759    81.978916 
   28400     218.1624    -121.6456    122005.81   -39573.809    2573.2398   -42147.048    82.099322 
   28450    211.20308    14.846285    121989.86   -39577.939    2491.1541   -42069.093     82.21867 
   28500    214.02781   -100.21746    121904.73   -39585.789    2524.4721   -42110.261    82.194888 
   28550    213.80416   -9.1655278     121829.2   -39590.414    2521.8341   -42112.248    82.276051 
   28600    212.98256   -50.086102    121783.68   -39602.646    2512.1432   -42114.789    82.310316 
   28650    218.58428   -91.736223    121774.67   -39586.685    2578.2159   -42164.901    82.379554 
   28700    211.87387   -54.241927    121856.21   -39589.028    2499.0661   -42088.094    82.600375 
   28750    212.44635    50.465693    121742.79   -39605.692    2505.8186   -42111.511    82.559688 
   28800    212.83136    133.87106    121788.44   -39611.861    2510.3598    -42122.22    82.568547 
   28850    217.76523    119.46903    121957.51   -39590.163    2568.5552   -42158.718    82.858344 
   28900    214.52042    174.53109    121956.95    -39599.53    2530.2824   -42129.812    83.092233 
   28950    214.95578   -124.80379    121877.18   -39578.969    2535.4175   -42114.386    83.087776 
   29000    215.05437    39.502548    121899.65   -39556.992    2536.5803   -42093.572    83.320171 
   29050    214.83481    47.146287    121910.14   -39562.801    2533.9907   -42096.792    83.570067 
   29100    214.71102    158.25912    121995.79   -39547.457    2532.5305   -42079.988    83.556188 
   29150    217.35276    61.010499    121999.37   -39507.985      2563.69   -42071.675    83.508772 
   29200    217.54103    22.270684    122071.88   -39494.364    2565.9106   -42060.275    83.553411 
   29250    216.13966    42.893835    122189.13   -39509.312    2549.3814   -42058.693    83.692091 
   29300    215.00835     186.7068    122231.72   -39490.044    2536.0375   -42026.081    84.001294 
   29350    216.69096    161.14967    122353.94   -39496.684     2555.884   -42052.568    84.260906 
   29400    214.95393   -1.0487508    122136.15   -39495.781    2535.3956   -42031.176    84.473161 
   29450     220.5837    58.835628    122192.06   -39474.471    2601.7992   -42076.271     84.56283 
   29500    216.30042    -61.81126    122312.35   -39509.043    2551.2776   -42060.321     84.68705 
   29550    216.41558   -21.669298    122246.21   -39487.378    2552.6359   -42040.014    84.828386 
   29600    216.01476   -17.411959    122114.78   -39471.968    2547.9082   -42019.876    84.967706 
   29650    215.25483    26.222158    122108.52   -39462.394    2538.9448   -42001.339    85.006646 
   29700    212.81882   -97.278455    122091.47   -39539.141    2510.2119   -42049.353    85.126004 
   29750      211.354   -13.979708    121991.88   -39577.409    2492.9343   -42070.343     85.23558 
   29800    209.72574   -118.39368    121901.91   -39588.014    2473.7288   -42061.742    85.346594 
   29850    214.31382   -9.5096308    121893.36   -39563.439    2527.8455   -42091.284    85.452967 
   29900    212.90142    112.71158    121942.43   -39569.028    2511.1861   -42080.214    85.537154 
   29950    211.71264    24.321319    121910.88   -39582.212    2497.1645   -42079.376     85.69982 
   30000    216.52988   -59.387539     121977.1   -39557.984    2553.9841   -42111.968     86.18932 
   30050    214.03075    -53.80119    121914.48   -39545.858    2524.5067   -42070.365    86.611576 
   30100     215.3306    20.246178    122002.25   -39525.053    2539.8385   -42064.892    86.904671 
   30150    211.84719    94.250478    122113.61    -39518.49    2498.7515   -42017.241    87.081778 
   30200    212.54285   -63.504191    122107.37    -39561.19    2506.9568   -42068.147    87.275889 
   30250    214.94026    91.659202       122058   -39535.403    2535.2344   -42070.637    87.436854 
   30300    210.37725     49.19134    121854.91   -39563.582    2481.4134   -42044.995     87.47332 
   30350    218.59495    30.033108    121946.84   -39508.611    2578.3417   -42086.952    87.499348 
   30400    214.94018    35.979241    122052.67   -39576.571    2535.2334   -42111.805    87.619234 
   30450    212.87572    11.425664    122030.17   -39627.227    2510.8831    -42138.11    87.828695 
   30500     210.7417   -80.534764    121995.29   -39617.708    2485.7121    -42103.42    87.903365 
   30550    211.92524   -67.384482    121914.22   -39620.779    2499.6721   -42120.451    87.959632 
   30600    214.20097    40.716782    121912.24   -39577.167    2526.5144   -42103.682    88.065903 
   30650    214.11809    23.352696    121995.85   -39563.519    2525.5369   -42089.056    88.186145 
   30700    214.63377   -118.99577    121928.42   -39594.468    2531.6193   -42126.087    88.384277 
   30750    215.15462    62.107871       122024   -39573.947    2537.7628    -42111.71    88.557867 
   30800    214.00563    22.317057    121968.75   -39556.816    2524.2104   -42081.026    88.656309 
   30850    217.36798   -109.51988    121840.04   -39499.753    2563.8695   -42063.623    88.803365 
   30900     218.4765   -60.615169    121795.24   -39495.422    2576.9446   -42072.366     88.91081 
   30950    215.94823   -35.122822    121758.86    -39484.68    2547.1235   -42031.803    88.946167 
   31000    216.47405    51.025399    121780.51   -39518.702    2553.3255   -42072.027    88.890121 
   31050    217.59242    -48.99024    121812.13   -39530.421    2566.5168   -42096.938    89.385542 
   31100    213.59478    9.7316065    121788.71   -39546.202    2519.3644   -42065.567    89.572122 
   31150    220.37842   -81.706521    121812.27   -39530.315    2599.3779   -42129.693    89.717497 
   31200    216.19397     63.96615    121853.79   -39519.937     2550.022   -42069.959    89.895334 
   31250    214.04489    -70.47977    121719.02   -39527.373    2524.6734   -42052.047    89.756757 
   31300    216.60066    135.18397    121795.46   -39464.048    2554.8189   -42018.867    89.722587 
   31350    214.46927   -61.339995    121981.51   -39475.485     2529.679   -42005.164    89.824863 
   31400    217.19306    35.341217    121892.08   -39516.182    2561.8064   -42077.989    89.879388 
   31450    218.62336   -79.742721    121858.59   -39537.859    2578.6768   -42116.536    89.834428 
   31500    218.75946    38.725529     121890.7   -39484.123    2580.2822   -42064.405    89.912575 
   31550    212.04848    28.388997    122014.11   -39536.815    2501.1256    -42037.94     89.95628 
   31600    214.40311    58.360777    122045.87    -39527.66    2528.8987   -42056.559    90.219495 
   31650    213.28677   -95.419358    121957.24   -39536.057    2515.7314   -42051.788    90.246723 
   31700    214.15622    -43.07065    121952.15    -39506.32    2525.9867   -42032.306    90.278879 
   31750    217.32383   -5.6416223    121987.77   -39462.547    2563.3488   -42025.896    90.712519 
   31800    215.79959    116.09954    122047.81   -39535.897    2545.3703   -42081.267     91.00335 
   31850    215.29688   -74.835998    121999.89   -39556.039    2539.4408    -42095.48    91.159881 
   31900    215.22843   -49.597047    121971.17   -39548.242    2538.6334   -42086.876    91.375904 
   31950    215.73329     106.7173    122094.39   -39546.591    2544.5883    -42091.18    91.552732 
   32000     215.0304    47.166293    122170.13   -39546.175    2536.2976   -42082.472    91.785966 
   32050     214.5408   -97.234454    122154.62    -39543.53    2530.5227   -42074.053    91.692825 
   32100    216.09181    150.15352    122150.18   -39545.422    2548.8171   -42094.239    91.757659 
   32150    216.28753    46.553327    122171.99   -39583.274    2551.1255     -42134.4    91.795604 
   32200    213.93296   -124.63649    122024.09   -39644.148    2523.3532   -42167.501    91.686301 
   32250    209.58026    43.848974    122090.89   -39636.375    2472.0128   -42108.388     91.89687 
   32300    214.77633   -26.493335    122017.89   -39619.861    2533.3008   -42153.162     92.08282 
   32350    214.41897    146.56449    121970.59   -39617.959    2529.0858   -42147.044     92.10977 
   32400    212.50248   -16.819786    122122.88   -39622.549    2506.4807    -42129.03    92.191153 
   32450     211.3922   -51.349265    122130.15   -39584.592    2493.3848   -42077.977    92.366734 
   32500    210.94584    100.01633    122087.44   -39569.536      2488.12   -42057.656     92.60464 
   32550    216.95458    108.88043    122090.02   -39537.483    2558.9934   -42096.477    92.761469 
   32600    214.57261   -11.083183    122046.39   -39510.668     2530.898   -42041.566    92.918248 
   32650    216.65534    16.772367    121890.66   -39493.656    2555.4638    -42049.12    92.862183 
   32700    211.84032     46.14605     121894.6   -39539.049    2498.6705   -42037.719    92.892503 
   32750    216.63719    6.1223243    121965.26    -39517.65    2555.2498     -42072.9    93.209521 
   32800    220.78069     63.90374    122022.47   -39438.698    2604.1227   -42042.821    93.410606 
   32850    215.68465    13.972173    122074.62    -39466.29    2544.0145   -42010.305    93.464788 
   32900    212.93584   -3.2409101     122071.8    -39516.84    2511.5922   -42028.433    93.744661 
   32950    217.83627    97.206187    122014.53   -39507.717     2569.393    -42077.11    94.052801 
   33000    217.99872     120.8745    122113.31    -39508.43    2571.3091   -42079.739    94.300448 
   33050    219.44722   -134.57575     122010.7   -39536.458    2588.3943   -42124.852    94.260718 
   33100    214.01655   -79.566551    121971.01   -39550.267    2524.3391   -42074.606    94.315189 
   33150    215.95391   -68.326142    122054.57   -39533.116    2547.1905   -42080.307    94.717626 
   33200    219.45387    19.618703    122152.35   -39552.015    2588.4727   -42140.488    94.799872 
   33250    216.65635    11.557177    122203.94   -39557.654    2555.4758    -42113.13     94.97709 
   33300    215.79602    -19.26162     122272.8   -39537.011    2545.3281   -42082.339    95.194027 
   33350    215.89561   -30.980507    122278.96   -39568.699    2546.5029   -42115.202    95.313328 
   33400    212.99844    109.49468     122265.3   -39579.281    2512.3305   -42091.611    95.330196 
   33450    210.59297   -31.923887    122356.75   -39631.105    2483.9578   -42115.063      95.4372 
   33500    210.00434   -30.331896    122276.66   -39600.855    2477.0149    -42077.87    95.315166 
   33550    209.30375    31.732493    122287.52    -39610.56    2468.7514   -42079.311     95.49369 
   33600    213.36674    129.21071    122390.42   -39608.864    2516.6747   -42125.539    95.802028 
   33650    215.50177    131.20668    122453.25   -39571.348    2541.8574   -42113.205    95.897665 
   33700    217.33099    36.354764     122468.3   -39589.464    2563.4333   -42152.898    95.889884 
   33750    218.99495    -21.09063    122442.63   -39522.621    2583.0598   -42105.681    95.920949 
   33800    219.28401   -75.629844    122452.87   -39475.963    2586.4692   -42062.432    96.096366 
   33850    218.07683    24.565852    122378.68   -39485.326    2572.2305   -42057.556    96.167376 
   33900    217.83422   -58.566024    122424.18   -39482.177    2569.3689   -42051.546    96.406042 
   33950    213.18207   -62.805034    122246.04   -39526.302    2514.4964   -42040.799    96.486481 
   34000    215.14392    125.56316     122387.4   -39584.313    2537.6366   -42121.949    96.500462 
   34050    213.79187   -152.66431     122437.3    -39571.59    2521.6891   -42093.279    96.478702 
   34100    214.70887   -108.71284    122318.87   -39581.609    2532.5052   -42114.114     96.82422 
   34150    214.90196      105.246    122362.64   -39590.724    2534.7827   -42125.506    96.917642 
   34200    217.83134   -188.54596    122302.36   -39584.803    2569.3349   -42154.138    97.026104 
   34250    212.15487    1.0629328    122304.03   -39577.924    2502.3806   -42080.304    97.077805 
   34300    212.56687    3.3156443    122270.87   -39638.875    2507.2402   -42146.115    97.299706 
   34350    211.62082     19.14108    122354.78   -39618.806    2496.0814   -42114.887    97.683471 
   34400    214.88235   -6.3806915    122450.24   -39590.903    2534.5513   -42125.454    98.050782 
   34450    212.03703   -136.04401    122444.61   -39576.267    2500.9906   -42077.258    98.347717 
   34500    217.05476     100.1255    122449.13   -39503.977    2560.1751   -42064.152    98.573548 
   34550    220.06795    8.6899057    122447.51   -39434.423    2595.7158   -42030.139    98.626449 
   34600    218.06749   -174.67285    122407.81    -39466.57    2572.1202    -42038.69    98.781209 
   34650    213.41664    5.4467081    122271.14   -39501.319    2517.2633   -42018.582    98.900789 
   34700    215.10867   -50.858024    122300.75   -39541.435    2537.2209   -42078.655    99.125342 
   34750    216.50282   -33.138246    122355.11   -39562.427    2553.6649   -42116.092     99.23025 
   34800    211.78179   -62.389679    122238.07   -39549.871      2497.98   -42047.851    99.202831 
   34850     218.5438   -48.670367    122194.76   -39536.355    2577.7384   -42114.093    98.908568 
   34900     218.8291    139.33279    122280.16   -39523.314    2581.1035   -42104.417    98.994859 
   34950    216.58689    53.825349    122290.68   -39562.207    2554.6565   -42116.864    99.247143 
   35000    220.68608    175.78539    122492.37   -39544.011    2603.0067   -42147.018    99.501791 
   35050     214.3263    139.18886    122657.29   -39538.619    2527.9928   -42066.612    100.08695 
   35100    216.97137   -57.413948    122806.23   -39553.633    2559.1914   -42112.825    100.28892 
   35150    213.61926   -20.995567     122697.6   -39551.683    2519.6532   -42071.336    100.10755 
   35200    216.37287   -49.459361    122737.24   -39524.192    2552.1321   -42076.324    100.25036 
   35250    216.55241   -28.181402    122618.77   -39538.392    2554.2498   -42092.642    100.06598 
   35300    217.57192   -65.723312    122628.15    -39570.71     2566.275   -42136.985    100.11178 
   35350    218.12323   -109.73433    122567.17   -39548.843    2572.7778    -42121.62    100.11801 
   35400    210.65172      127.099    122439.69   -39587.631    2484.6509   -42072.282    100.21486 
   35450    212.15895   -87.971171     122421.3   -39581.185    2502.4286   -42083.614    100.20136 
   35500    212.55875   -14.358943    122379.61   -39567.766    2507.1444   -42074.911    100.10567 
   35550    216.82853   -13.789029    122378.07   -39532.278    2557.5067   -42089.785    100.01209 
   35600    214.12508     168.6552    122377.38   -39547.037    2525.6193   -42072.656    100.10934 
   35650    212.22791   -19.594086    122317.69   -39547.919    2503.2421   -42051.161    100.29447 
   35700    212.86489    211.59287    122298.56    -39540.65    2510.7552   -42051.405    100.72888 
   35750    220.84727    65.809684    122359.81   -39445.147     2604.908   -42050.055    101.24359 
   35800    220.02023    89.719302     122411.8   -39417.962     2595.153   -42013.115    101.45567 
   35850     220.1725    53.078758    122511.98   -39434.234     2596.949   -42031.183    101.98905 
   35900    214.13258   -2.3424074    122525.71   -39503.318    2525.7078   -42029.026    102.13937 
   35950    213.20259    91.815685    122462.82   -39527.752    2514.7385   -42042.491    102.32821 
   36000    218.34263    64.912424    122459.02   -39541.215    2575.3656   -42116.581    102.68478 
   36050    212.86372   -45.349427    122433.53   -39556.822    2510.7415   -42067.564    102.85974 
   36100    215.89689    -151.3619    122380.74    -39567.98    2546.5179   -42114.498    102.85215 
   36150    214.13013    53.789497    122397.53   -39562.813    2525.6789   -42088.492    103.06773 
   36200      208.184   -21.142764    122333.65   -39572.313    2455.5439   -42027.857    103.13053 
   36250    212.67284    80.467165    122259.56   -39605.586    2508.4901   -42114.076    103.07614 
   36300    218.29201    57.791281    122241.32   -39537.313    2574.7686   -42112.082    103.06638 
   36350    216.80643   -29.946592    122302.69   -39583.563     2557.246   -42140.809    103.35901 
   36400     214.9578   -108.66215    122308.72   -39606.249    2535.4413    -42141.69    103.41792 
   36450    216.47846  -0.67626388    122274.68   -39613.843    2553.3775   -42167.221    103.58483 
   36500    218.06354     37.29788    122311.23   -39585.264    2572.0738   -42157.338    103.90522 
   36550    215.31407    127.22385    122351.83   -39587.127    2539.6435   -42126.771    104.17441 
   36600    215.06357   -127.32773    122287.06   -39579.215    2536.6889   -42115.904    104.18918 
   36650    214.70268    14.505745    122327.91   -39590.938    2532.4321    -42123.37    104.44017 
   36700    213.88752    18.501013    122574.33   -39623.691    2522.8173   -42146.508    104.85614 
   36750    215.58088    34.552933    122594.99   -39621.968    2542.7906   -42164.758    104.71485 
   36800    209.95598    -19.98892    122693.76   -39659.107    2476.4445   -42135.551    105.07709 
   36850    215.03161   -33.219571     122632.1   -39642.497    2536.3119   -42178.809    105.27731 
   36900    216.91393    106.50766    122615.44   -39635.396     2558.514    -42193.91    105.25968 
   36950     214.2474    122.16836    122716.75   -39646.582    2527.0621   -42173.644    105.46782 
   37000    215.05172    22.607482    122626.75   -39622.632     2536.549   -42159.181     105.4971 
   37050    214.15272    48.134808    122609.26   -39675.049    2525.9453   -42200.994     105.4025 
   37100    212.69489    65.365917    122581.04   -39647.181    2508.7501   -42155.932     105.5377 
   37150    213.91351    60.229274    122721.88   -39655.101    2523.1238   -42178.224    105.74865 
   37200    212.35462   -219.08521    122577.62   -39668.438    2504.7366   -42173.175    105.35446 
   37250    212.07119    46.086499     122581.3   -39669.133    2501.3935   -42170.526    105.41708 
   37300    212.14329    13.501265    122594.31   -39680.806    2502.2439    -42183.05    105.80379 
   37350    218.63713    112.22292    122671.16   -39649.943    2578.8392   -42228.783    106.12366 
   37400    214.89903   -127.18096    122620.93   -39685.586    2534.7481   -42220.334    106.16053 
   37450    214.55334   -108.64352    122557.52   -39656.524    2530.6707   -42187.194    106.23683 
[...]
  191000    214.79245   -53.491636    121692.08   -39401.153    2533.4909   -41934.644    524.08844 
  191050    218.67141   -101.18889    121632.16   -39417.508    2579.2436   -41996.752    524.09988 
  191100    211.60619    20.659085    121637.89   -39455.955    2495.9088   -41951.864    523.80408 
  191150    210.23935    66.871215    121628.43   -39468.687    2479.7869   -41948.474    524.10016 
  191200    215.24019    43.899512    121729.14   -39452.432    2538.7721   -41991.204    524.49853 
  191250    211.20657    211.37753    121828.13   -39485.531    2491.1952   -41976.727    524.96098 
  191300    214.37608   -42.406183     121843.1   -39465.428    2528.5798   -41994.007    524.91538 
  191350    215.97324     50.76749    121928.87   -39464.855    2547.4184   -42012.274    525.45459 
  191400    214.84489    12.435955     121928.6   -39439.877    2534.1095   -41973.987    526.24752 
  191450    215.75594    70.985181    121982.37   -39398.747    2544.8555   -41943.602    526.44567 
  191500    217.03095   -18.927813    121999.86   -39430.906    2559.8942   -41990.801    526.63903 
  191550       215.68    116.55982    121946.57   -39382.703    2543.9597   -41926.663     526.2801 
  191600    215.10168     35.81295    122098.92   -39356.082    2537.1384    -41893.22    526.36653 
  191650    217.37742    124.71522    122116.22   -39401.062    2563.9809   -41965.042    526.96395 
  191700    216.20742    30.912445    122100.91   -39378.221    2550.1806   -41928.401    527.34455 
  191750    216.34789   -199.90344    121948.89   -39397.037    2551.8375   -41948.875    527.06574 
  191800    214.01198   -27.798645     121848.9   -39405.727    2524.2853   -41930.012    526.99047 
  191850    216.14003    106.73131    121828.02   -39426.682    2549.3858   -41976.067     526.6682 
  191900    211.36121    192.77008    121961.36   -39531.539    2493.0192   -42024.559    526.90622 
  191950    214.81542     42.35333    122138.75   -39446.757    2533.7619   -41980.519    527.76058 
  192000    216.08353    22.374128    122130.93   -39473.224    2548.7194   -42021.944      528.133 
  192050    221.05702    55.172957    122096.44   -39424.908     2607.382    -42032.29     528.1918 
  192100    216.77648    111.16018    122167.05    -39454.36    2556.8928   -42011.253    528.58785 
  192150    214.57312   -181.02364    122308.53   -39487.234     2530.904   -42018.138    528.94454 
  192200    221.05015   -6.5414022    122386.01   -39448.024    2607.3009   -42055.325    529.26766 
  192250    215.94202   -127.61308    122136.88   -39457.127    2547.0502   -42004.177    528.79396 
  192300     216.4001   -159.74384    122011.64   -39472.198    2552.4533   -42024.652    528.98349 
  192350    214.10922    6.3307089     122022.6   -39501.457    2525.4322   -42026.889     528.9439 
  192400    216.40469    38.589887    122034.45   -39499.738    2552.5075   -42052.245    528.74803 
  192450    213.48493    198.23018    122108.31   -39502.003    2518.0687   -42020.072    528.68999 
  192500    211.65315    83.539416     122257.4    -39473.83    2496.4627   -41970.292    529.59664 
  192550    211.31083   -7.0357545     122257.9   -39479.264    2492.4251   -41971.689    529.73892 
  192600    213.81196   -23.496237    122318.28   -39479.992     2521.926   -42001.918    530.07043 
  192650    213.06496   -60.386081    122277.68   -39440.867    2513.1151   -41953.982    530.13811 
  192700    218.93389    93.985915    122309.52   -39419.119    2582.3396   -42001.458    530.65015 
  192750    214.33078   -30.127087     122330.7   -39456.896    2528.0456   -41984.941      530.532 
  192800    211.79685   -16.196171    122173.38    -39482.94    2498.1577   -41981.098    531.10505 
  192850    213.60803   -9.8831943    122114.61   -39476.128    2519.5206   -41995.648       530.78 
  192900    213.14509    54.578826    122217.63   -39442.864    2514.0602   -41956.924    531.08749 
  192950    215.92038    101.63952    122238.64   -39446.989    2546.7951   -41993.784    531.41288 
  193000    218.61874   -99.583187    122274.18   -39451.137    2578.6224   -42029.759    531.86709 
  193050    216.77226    55.611494    122263.11    -39423.95     2556.843   -41980.793    532.18601 
  193100    219.03638   -42.135382    122253.78     -39404.6    2583.5484   -41988.148    531.92292 
  193150    217.21466   -18.492426     122163.7   -39417.757    2562.0611   -41979.818    531.68248 
  193200    217.98327    131.96724    122100.48   -39420.213    2571.1269   -41991.339     531.5765 
  193250    217.14156    65.812065    122315.73   -39386.604    2561.1989   -41947.803    532.38708 
  193300    216.81373    76.995267    122379.78   -39377.079    2557.3321   -41934.411    533.03304 
  193350    220.38514   -89.691262    122387.09   -39430.444    2599.4572   -42029.901    533.31893 
  193400    215.81551   -294.49438    122319.78   -39444.695    2545.5581   -41990.254    533.28462 
  193450    213.88779   -94.070606    122048.92   -39460.747    2522.8204   -41983.568    532.47589 
  193500    214.89109    198.69117    122028.56    -39480.94    2534.6544   -42015.595    532.79777 
  193550    214.62889   -140.52563    121994.63   -39482.266    2531.5618   -42013.827    533.02085 
  193600    214.28249     62.66649    121879.75   -39497.657     2527.476   -42025.133    533.00625 
  193650    211.91455   -222.84283    121868.92   -39497.018     2499.546   -41996.564    533.52111 
  193700    210.59673   -23.027232    121755.72   -39522.605    2484.0022   -42006.608    533.01175 
  193750    210.18279   -7.0141918    121721.54   -39512.219    2479.1197   -41991.339    533.32574 
  193800    214.08328    55.135164    121618.31    -39505.22    2525.1263   -42030.347    533.56598 
  193850     211.2148   -182.46973    121633.36   -39530.148    2491.2924   -42021.441    533.81952 
  193900     214.5212    -22.83175    121560.13    -39494.13    2530.2915   -42024.421    533.84441 
  193950    209.52146   -76.983121    121533.61    -39515.08    2471.3193   -41986.399    533.79389 
  194000    211.80837    152.82448    121553.88   -39494.319    2498.2936   -41992.612    533.99866 
  194050    211.19095    124.29251    121667.85   -39527.427    2491.0111   -42018.438    534.40419 
  194100    214.37633   -63.489357     121597.8   -39539.904    2528.5828   -42068.487    534.83351 
  194150    215.38628   -46.103225    121596.56   -39474.613    2540.4953   -42015.109    534.54413 
  194200    214.37966   -231.27613    121354.52   -39491.901    2528.6221   -42020.523    534.00087 
  194250     209.8483   -28.924879    121206.96   -39507.783    2475.1745   -41982.957    533.46015 
  194300    211.55039   -50.918342    121128.16   -39507.922    2495.2507   -42003.173    533.53771 
  194350    212.61054   -17.167018    121002.17   -39508.201    2507.7552   -42015.956    533.50811 
  194400    209.28627    288.05296    120926.22    -39521.19    2468.5452   -41989.735    533.64894 
  194450    210.38108    15.846634    121140.03    -39535.48    2481.4586   -42016.939    533.96682 
  194500    209.53381    41.675643    121111.62    -39479.68     2471.465   -41951.145    533.72876 
  194550    216.11938    120.55929    121146.18   -39535.607    2549.1422   -42084.749    534.05925 
  194600    214.26575    206.65358     121220.1   -39441.622    2527.2786   -41968.901    534.63392 
  194650     214.7788   -154.82716    121314.62    -39430.25      2533.33    -41963.58     535.6797 
  194700    217.40135    13.526326    121301.52   -39407.865    2564.2631   -41972.128    535.79888 
  194750    217.71793    43.857526    121293.07    -39425.62    2567.9972   -41993.618    536.33102 
  194800     216.5552    170.92346    121310.76   -39427.654    2554.2828   -41981.937    537.00096 
  194850    217.25044   -32.090941    121378.46   -39402.664    2562.4832   -41965.147    537.64959 
  194900    215.89107    77.756797     121464.6   -39372.329    2546.4493   -41918.778    538.37721 
  194950    213.00689   -78.236485    121410.99   -39377.114    2512.4301   -41889.544    538.68778 
  195000    209.97956    212.95141    121405.34   -39410.413    2476.7226   -41887.135    538.79895 
  195050    218.82902    65.283491    121529.67   -39345.227    2581.1025   -41926.329    538.90809 
  195100    217.16309    37.457834    121619.48   -39349.592    2561.4528   -41911.045    539.98181 
  195150    219.15309   -26.906514    121767.83   -39386.455     2584.925    -41971.38    540.51224 
  195200    211.47059   -106.34571    121793.57   -39403.311    2494.3095   -41897.621    540.35016 
  195250    216.66579    56.351491    121758.78   -39379.014    2555.5872   -41934.602    540.02237 
  195300    215.94208   -73.946883    121861.62   -39374.087    2547.0509   -41921.138    540.74403 
  195350    216.80366   -63.144258    121845.32    -39404.85    2557.2133   -41962.064    541.02084 
  195400    212.45311   -159.42673    121762.66   -39421.178    2505.8983   -41927.077     540.9485 
  195450    213.34969   -39.310072    121566.63   -39401.669    2516.4735   -41918.143    540.77396 
  195500    213.19428   -55.184608    121500.46   -39445.695    2514.6405   -41960.336    540.89762 
  195550     213.5905   -14.634022    121416.11   -39403.213     2519.314   -41922.527    540.95464 
  195600    214.05396   -138.25888     121286.4   -39438.976    2524.7805   -41963.757    540.03551 
  195650    215.45194   -126.28405    121263.92   -39414.877    2541.2698   -41956.146    540.53821 
  195700    216.27126    180.71717     121288.5   -39426.965    2550.9337   -41977.899    541.14362 
  195750    215.57161   -117.17357    121234.74   -39395.435    2542.6813   -41938.116    541.04328 
  195800    217.62597   -175.11946    121293.56   -39358.473    2566.9126   -41925.386    542.15309 
  195850    212.21955    -45.07088    121357.78   -39374.931    2503.1434   -41878.075    542.57886 
  195900    213.66396    97.556116    121483.53   -39354.453    2520.1803   -41874.633     543.2421 
  195950    218.04863   -11.305607    121616.33   -39320.349    2571.8978   -41892.247    544.10034 
  196000    220.64489   -54.661781    121672.08   -39293.588     2602.521   -41896.109    544.10164 
  196050      213.262    4.5013914     121616.7   -39350.633    2515.4392   -41866.072    544.12171 
  196100    212.60512   -102.64735     121469.4   -39424.311    2507.6913   -41932.003    543.77602 
  196150    210.39393    28.949164    121457.21   -39474.884    2481.6102   -41956.494    543.86724 
  196200    212.45916    8.0423447    121607.42   -39452.229    2505.9697   -41958.199    543.91371 
  196250    210.15068   -199.63726    121477.35   -39444.168     2478.741   -41922.909     543.5254 
  196300    213.68956   -9.7225457    121360.56   -39403.513    2520.4823   -41923.995    543.20365 
  196350    219.55444   -61.861865     121303.5   -39425.698     2589.659   -42015.357    543.22717 
  196400     213.7821    12.686121    121389.64   -39399.773    2521.5739   -41921.346    543.38393 
  196450    213.50886    66.600835    121424.18   -39400.823     2518.351   -41919.174    543.93416 
  196500    216.47972    8.3411869    121467.88   -39434.035    2553.3925   -41987.427    544.35587 
  196550    217.37102   -112.73093    121402.14   -39385.485    2563.9054   -41949.391    544.53431 
  196600    214.78029   -14.083122    121454.69   -39406.246    2533.3476   -41939.594    544.78324 
  196650    212.82735     49.43428    121414.75   -39406.657    2510.3125    -41916.97    545.10607 
  196700    211.42178     -1.66702    121486.82   -39428.855    2493.7337   -41922.588    545.39089 
  196750     215.6586   -66.020046    121427.79   -39401.573    2543.7073    -41945.28    545.36246 
  196800    210.98518     17.72503    121353.99   -39378.631     2488.584   -41867.215    545.62537 
  196850    216.00651     76.82889    121379.52   -39360.582    2547.8109   -41908.393    545.61444 
  196900    213.04024    45.270113     121309.4   -39386.044    2512.8236   -41898.867     545.2686 
  196950    212.10263   -42.471831    121304.81   -39419.157    2501.7644   -41920.921    545.10276 
  197000    216.24346    49.329222    121291.18   -39410.154    2550.6057   -41960.759    544.63488 
  197050    212.59589   -73.854119    121115.56   -39457.831    2507.5825   -41965.413    544.52552 
  197100    213.60082   -59.436522    121039.27   -39480.083    2519.4356   -41999.518    544.18477 
  197150    212.08213    39.137407    120987.89   -39472.854    2501.5225   -41974.376    544.26972 
  197200    212.95838     88.49393    121051.13   -39469.033     2511.858   -41980.891    544.91777 
  197250    212.88614   -114.74437    121081.46   -39447.196    2511.0059   -41958.202    545.06927 
  197300    211.67915   -46.906785    121020.13    -39479.62    2496.7694    -41976.39     544.9816 
  197350    219.44194    80.305607    121074.28   -39463.452     2588.332   -42051.784    545.52265 
  197400    212.51451   -45.388899    121135.86   -39453.885    2506.6225   -41960.507    545.92999 
  197450    209.99469    150.32513    121138.64   -39476.601    2476.9011   -41953.502    546.13813 
  197500    216.13511    173.54074     121229.8   -39453.563    2549.3277    -42002.89    546.68187 
  197550    213.04954    35.948056     121325.2   -39389.432    2512.9332   -41902.365    546.75259 
  197600       215.82    41.704972    121310.46   -39376.429    2545.6111    -41922.04    546.55062 
  197650    216.94343     75.71332    121391.49   -39343.135    2558.8619   -41901.997    546.96641 
  197700    216.57848     17.86995    121504.53    -39350.77    2554.5573   -41905.327     546.9928 
  197750    217.55331   -15.799668    121511.06   -39368.182    2566.0555   -41934.238    547.41628 
  197800    216.41741   -12.157332    121625.56   -39412.661    2552.6575   -41965.318    547.87321 
  197850    212.82307   -99.876899    121657.23   -39440.302     2510.262   -41950.564    547.89949 
  197900    215.23624   -75.005692    121572.46   -39430.792    2538.7255   -41969.517    547.66868 
  197950    215.73458   -76.843262    121502.86   -39420.641    2544.6035   -41965.245    547.87036 
  198000    215.65225    97.198238    121526.21   -39446.999    2543.6324   -41990.632    548.04926 
  198050     217.5439   -29.503228    121575.75   -39424.997    2565.9445   -41990.942    548.21965 
  198100     216.4908    124.80788    121605.82   -39447.842    2553.5231   -42001.365    548.85461 
  198150    213.54109  -0.42103528    121701.52   -39471.693    2518.7311   -41990.424    548.78356 
  198200    214.13008   -71.373139    121632.01   -39451.751    2525.6783    -41977.43     548.7602 
  198250    213.29538    303.51333    121661.47   -39464.612    2515.8329   -41980.445    549.12364 
  198300    216.44274   -11.400286     121746.3   -39486.104    2552.9562    -42039.06    549.04769 
  198350    216.06346    1.5920163    121800.63   -39535.708    2548.4827    -42084.19    549.85575 
  198400    213.60833    13.391654    121767.37   -39598.176    2519.5242   -42117.701    550.00498 
  198450    215.48309   -67.083827    121685.44   -39565.968    2541.6371   -42107.605    550.06857 
  198500    210.48717    12.161819     121736.3   -39587.354      2482.71   -42070.064    549.87693 
  198550    213.35943   -19.752486    121793.48   -39533.145    2516.5884   -42049.733    550.08246 
  198600    216.63716    54.536982    121761.35   -39543.249    2555.2494   -42098.498    550.40807 
  198650    218.76264    24.471212    121822.98   -39529.363    2580.3197   -42109.682    550.61974 
  198700    210.99891    65.176112    121864.25   -39522.414    2488.7459   -42011.159     550.8477 
  198750    213.35175   -84.020929    121813.07    -39514.25    2516.4979   -42030.748    550.42289 
  198800    214.62493    69.124897    121848.57   -39489.434    2531.5151   -42020.949    550.59921 
  198850    217.44928    72.313003    121780.95    -39518.64    2564.8285   -42083.468    550.88946 
  198900    216.62496    13.615692    121879.95   -39528.885    2555.1055   -42083.991    551.62739 
  198950    211.70415    108.78839    121841.33   -39513.269    2497.0643   -42010.333    551.80664 
  199000    214.11708    161.16147    121982.17   -39507.467    2525.5249   -42032.991    552.07588 
  199050    218.18706    65.439657    122191.77   -39516.771    2573.5306   -42090.302     552.3127 
  199100    213.76557   -106.36877    122187.41   -39514.869    2521.3788   -42036.248     552.1617 
  199150     212.0731   -90.822111    122131.74   -39544.295    2501.4161   -42045.711    552.52633 
  199200    212.61976    29.842626    122080.11   -39570.335     2507.864   -42078.199    552.27331 
  199250    214.45606   -52.375966    122021.86   -39549.717    2529.5233    -42079.24    552.40665 
  199300     214.6519    31.058488    121939.76   -39558.423    2531.8332   -42090.256    551.94281 
  199350    217.78075   -67.230899    121893.18   -39480.571    2568.7382   -42049.309    551.95077 
  199400    216.51427   -66.096038    121900.14   -39449.652       2553.8   -42003.452    551.86616 
  199450    214.41981    34.763851    121966.65   -39472.145    2529.0957   -42001.241    552.58481 
  199500    217.87459    172.22912    122140.85   -39448.374     2569.845   -42018.219    553.23178 
  199550    213.10418   -18.845818    122187.23   -39499.935    2513.5777   -42013.513    553.72887 
  199600    217.20135    188.60885     122133.4   -39479.303    2561.9041   -42041.207    553.86053 
  199650    214.62749    -150.1338     122255.8   -39463.169    2531.5453   -41994.714    554.75765 
  199700    217.19006   -98.053613    122047.74   -39444.122     2561.771   -42005.893     553.3544 
  199750    218.57447    113.89495    122019.65   -39431.523    2578.1001   -42009.623    553.23204 
  199800    217.39199    135.94031    122116.67   -39408.843    2564.1527   -41972.996    553.91023 
  199850    217.97197    129.96137     122206.4   -39434.702    2570.9937   -42005.696    554.87521 
  199900     210.9595   -56.130784    122111.05   -39494.727    2488.2811   -41983.008    554.44537 
  199950    214.09281   -45.435012    122101.08   -39488.382    2525.2387   -42013.621    554.44177 
  200000    217.06505    62.559908    122199.95   -39442.691    2560.2965   -42002.988    554.77594 
Loop time of 367.183 on 12 procs for 200000 steps with 3958 atoms

Performance: 235.305 ns/day, 0.102 hours/ns, 544.687 timesteps/s
97.8% CPU use with 12 MPI tasks x no OpenMP threads

MPI task timing breakdown:
Section |  min time  |  avg time  |  max time  |%varavg| %total
---------------------------------------------------------------
Pair    | 260.71     | 281.68     | 295.53     |  78.3 | 76.71
Neigh   | 7.2263     | 7.7337     | 8.0919     |  12.6 |  2.11
Comm    | 47.869     | 62.072     | 83.431     | 169.5 | 16.91
Output  | 0.24568    | 0.27484    | 0.50574    |  13.3 |  0.07
Modify  | 12.816     | 13.285     | 13.656     |   6.5 |  3.62
Other   |            | 2.136      |            |       |  0.58

Nlocal:    329.833 ave 344 max 310 min
Histogram: 2 1 1 0 1 0 1 0 2 4
Nghost:    976.75 ave 1002 max 951 min
Histogram: 3 0 1 1 0 2 1 1 1 2
Neighs:    0 ave 0 max 0 min
Histogram: 12 0 0 0 0 0 0 0 0 0
FullNghs:  10827.3 ave 11403 max 10085 min
Histogram: 3 1 0 1 0 0 0 1 3 3

Total # of neighbors = 129928
Ave neighs/atom = 32.8267
Neighbor list builds = 11766
Dangerous builds = 0

write_data		${DIR}/data.eq-${NAME}-${TEMP}
write_data		1nm/run_0/data.eq-${NAME}-${TEMP}
write_data		1nm/run_0/data.eq-1nm_bubble_0-${TEMP}
write_data		1nm/run_0/data.eq-1nm_bubble_0-215
undump          1

reset_timestep  0

unfix           2
unfix           3
unfix           4


################################################
#######         Run Simulation         #########
################################################

log				${DIR}/log.run_${NAME}
log				1nm/run_0/log.run_${NAME}
log				1nm/run_0/log.run_1nm_bubble_0
