
# Set production fixes - Nose/Hoover
#
fix                 4 water temp/csvr ${START_TEMP} ${END_TEMP} 500.0 928347
fix                 4 water temp/csvr 240 ${END_TEMP} 500.0 928347
fix                 4 water temp/csvr 240 227 500.0 928347


## divide "droplet" into core and surface
#region		core_reg cylinder z 135 135 44.6 20 INF units box
#region		surface_reg cylinder z 135 135 44.6 20 INF units box side out
#group		core dynamic all region core_reg
#group		surface dynamic all region surface_reg

## compute pressure core
#compute        peratom_core core stress/atom NULL
#compute        p_core core reduce sum c_peratom_core[1] c_peratom_core[2] c_peratom_core[3]
#variable       press_core equal -(c_p_core[1]+c_p_core[2]+c_p_core[3])/(3*1249982.5)


## compute pressure surface
#compute        peratom_surf surface stress/atom NULL
#compute        p_surf surface reduce sum c_peratom_surf[1] c_peratom_surf[2] #c_peratom_surf[3]
#variable       press_surf equal -(c_p_surf[1]+c_p_surf[2]+c_p_surf[3])/(3*42395)

## compute total pressure of drop
compute        peratom water stress/atom NULL
compute        p water reduce sum c_peratom[1] c_peratom[2] c_peratom[3]
variable       press equal -(c_p[1]+c_p[2]+c_p[3])/(3*58301)


# compute order parameter
compute        3 all orientorder/atom nnn NULL cutoff 3.5

# compute center of mass of bridge
compute 	4 water com

# Run simulation
thermo_style        custom step c_2 press vol etotal ke pe v_press c_1[4] c_4[*]
thermo              200
dump		     1 water custom 400 ${DIR}/prod.${NAME}.dump id type x y z vx vy vz c_3[*] c_peratom[*]
dump		     1 water custom 400 run_17/prod.${NAME}.dump id type x y z vx vy vz c_3[*] c_peratom[*]
dump		     1 water custom 400 run_17/prod.ibeam_cooling_17.dump id type x y z vx vy vz c_3[*] c_peratom[*]
run                 ${STEPS}
run                 5200000
Neighbor list info ...
  update every 1 steps, delay 0 steps, check yes
  max neighbors/atom: 2000, page size: 100000
  master list distance cutoff = 6.6747184
  ghost atom cutoff = 6.6747184
  binsize = 3.3373592, bins = 48 11 14
  2 neighbor lists, perpetual/occasional/extra = 1 1 0
  (1) pair sw, perpetual
      attributes: full, newton on
      pair build: full/bin/atomonly
      stencil: full/bin/3d
      bin: standard
  (2) compute orientorder/atom, occasional, copy from (1)
      attributes: full, newton on
      pair build: copy
      stencil: none
      bin: none
Per MPI rank memory allocation (min/avg/max) = 6.106 | 6.802 | 7.323 Mbytes
Step c_2 Press Volume TotEng KinEng PotEng v_press c_1[4] c_4[1] c_4[2] c_4[3] 
       0    239.24359   -321.39321    263624.46   -25785.871    1936.1743   -27722.045   -929.95211    38.891489    78.605465      18.3707    27.378302 
     200    233.18545   -260.36442    263624.46   -25812.138    1887.1464   -27699.284   -714.33118    39.564774    78.605486    18.370399    27.394825 
     400    236.81642    -267.7301    263624.46   -25768.348    1916.5314    -27684.88   -712.26942    41.444253    78.605337    18.372561    27.398875 
     600    246.00715   -377.61814    263624.46   -25631.948    1990.9111   -27622.859   -1193.1012    43.682409    78.603922    18.373965    27.394233 
     800    244.90111   -366.61675    263624.46   -25651.143      1981.96   -27633.103   -1156.1018     45.00671    78.604187    18.374172    27.380298 
    1000    244.88393   -230.87711    263624.46   -25708.836     1981.821   -27690.657   -504.26853     47.14082    78.602753    18.375307    27.374593 
    1200    238.84857   -297.14901    263624.46   -25689.212    1932.9774   -27622.189   -805.68466    48.757722    78.603132    18.376116    27.348585 
    1400    243.49014   -324.79312    263624.46   -25704.393    1970.5412   -27674.934   -914.03333    50.031446    78.605405    18.378258    27.338176 
    1600     244.5417   -337.28892    263624.46   -25720.665    1979.0513   -27699.717    -988.2399    51.519977    78.605793    18.380394    27.349915 
    1800    244.34808   -170.67305    263624.46   -25684.583    1977.4844   -27662.068   -243.10774    53.025625    78.604938     18.38325    27.340461 
    2000     240.5446   -235.22952    263624.46   -25613.194    1946.7032   -27559.898   -545.31535     55.15036    78.607552    18.384719    27.328824 
    2200    242.88498   -187.97171    263624.46   -25671.249    1965.6437   -27636.892   -342.99208       55.128     78.60936    18.385871    27.324723 
    2400    243.37052   -383.21615    263624.46   -25650.743    1969.5731   -27620.316   -1210.7335    56.559776    78.610626    18.385143    27.324208 
    2600    234.91867   -258.26274    263624.46    -25726.46    1901.1731   -27627.633   -659.17139    57.795673    78.612066    18.386088    27.328933 
    2800    242.62842    -333.1954    263624.46   -25625.704    1963.5674   -27589.271   -961.36035     58.99748    78.612597    18.386086    27.319553 
    3000    246.27458   -225.58689    263624.46   -25615.043    1993.0754   -27608.118   -455.90595    60.700426    78.613633    18.388181    27.305154 
    3200    237.42377   -370.57088    263624.46   -25712.002    1921.4466   -27633.449   -1173.1228    61.908475    78.615255    18.389357    27.285054 
    3400    236.02317    -357.6809    263624.46   -25713.097    1910.1118   -27623.209   -1095.9546     63.18725    78.616172    18.389544    27.271745 
    3600    234.46716    -272.5884    263624.46   -25685.537    1897.5191   -27583.056   -733.10065    64.400992    78.616565    18.388747    27.262829 
    3800    241.58509   -365.41077    263624.46   -25627.538    1955.1238   -27582.662   -1098.2658    65.956525    78.617182    18.388828    27.256993 
    4000    244.48569   -338.80641    263624.46   -25712.314    1978.5981   -27690.912   -1003.5864    67.808308    78.616642    18.388462    27.259729 
    4200    236.96755   -292.50171    263624.46   -25638.495    1917.7545   -27556.249   -787.93799    70.601705    78.616272    18.388937    27.241531 
    4400    240.12562   -169.05076    263624.46   -25674.224    1943.3125   -27617.537   -222.40025    72.568042    78.615605    18.389929    27.246667 
    4600    236.14547   -327.50322    263624.46   -25781.577    1911.1015   -27692.678   -951.14378    74.963266    78.614389    18.390876    27.235801 
    4800    244.44268    -256.6697    263624.46   -25666.804      1978.25   -27645.054   -619.95792    78.084475    78.613767    18.394149    27.235607 
    5000     240.8872   -211.87982    263624.46   -25719.989    1949.4759   -27669.465   -470.66213    80.369203    78.613322    18.396026    27.247934 
    5200    241.21034   -168.61899    263624.46   -25710.865     1952.091   -27662.956   -249.72099    83.097403    78.612708    18.396047    27.268695 
    5400    240.82978    -67.91017    263624.46   -25729.788    1949.0112   -27678.799    209.10799    84.337474    78.613301    18.395927    27.256301 
    5600    237.01925   -448.21483    263624.46   -25716.498    1918.1729   -27634.671   -1492.5606    85.967076    78.612318    18.395035    27.236814 
    5800    239.98945    -240.3504    263624.46   -25669.671    1942.2104   -27611.882   -563.79726    87.311574    78.613884    18.393327    27.252162 
    6000    242.30541       -184.8    263624.46   -25727.621    1960.9533   -27688.574    -260.3548    88.191185    78.615812    18.391948    27.256407 
    6200     242.7885   -197.27083    263624.46   -25735.764    1964.8629   -27700.626   -363.79428    88.053117    78.614655    18.390268    27.258797 
    6400    233.15909   -325.48631    263624.46   -25705.422     1886.933   -27592.355   -925.10491    88.859107    78.615226    18.392614    27.276381 
    6600    234.14757   -202.41452    263624.46   -25730.704    1894.9327   -27625.637   -391.16574     90.85546    78.615891    18.393434    27.286277 
    6800    239.98162    -209.8387    263624.46   -25735.357    1942.1471   -27677.504   -443.14892    92.251732    78.616279    18.394584    27.300374 
    7000    243.85036   -165.41875    263624.46   -25663.967    1973.4564   -27637.423   -188.56867    93.528051    78.616171    18.394767    27.305449 
    7200    233.96199   -298.65589    263624.46   -25804.822    1893.4308   -27698.253   -829.83875    96.268981    78.617171    18.392873    27.300663 
    7400    231.49817   -494.10523    263624.46   -25723.691    1873.4914   -27597.182   -1652.1643    99.452583    78.614298     18.39143    27.298557 
    7600    250.90975   -180.53206    263624.46   -25649.974    2030.5873   -27680.561   -282.31289    100.83213    78.612315    18.390747    27.326016 
    7800    237.16467   -160.00146    263624.46   -25822.955    1919.3498   -27742.305   -181.68946    102.46347    78.614424    18.391549    27.328473 
    8000    241.49655   -243.41776    263624.46   -25688.323    1954.4073    -27642.73   -555.69429    105.64659    78.614704    18.393708    27.317989 
    8200     242.8046   -315.88116    263624.46   -25693.132    1964.9932   -27658.125   -902.36605     107.8233    78.614395    18.395379    27.288956 
    8400    242.32476   -417.69818    263624.46   -25651.325    1961.1099   -27612.435   -1324.8178    110.69019    78.616169    18.393859    27.289024 
    8600    242.67053   -180.34113    263624.46   -25726.538    1963.9082   -27690.446   -310.38201    110.85863    78.616216    18.394085    27.292119 
    8800    243.53362   -390.37861    263624.46    -25742.16    1970.8931   -27713.053   -1249.9351    111.83265    78.614498    18.395483    27.309865 
    9000      246.179   -438.44442    263624.46   -25725.686    1992.3018   -27717.987   -1457.4032    113.34865    78.614568    18.395901    27.304791 
    9200    246.08091   -180.77581    263624.46   -25699.177     1991.508   -27690.685    -277.1727     114.7948    78.614057    18.397292    27.312647 
    9400    242.41401   -248.05584    263624.46   -25739.197    1961.8321   -27701.029   -595.43473    116.14759    78.615252    18.399021    27.323561 
    9600    237.18808     -43.9591    263624.46   -25764.497    1919.5392   -27684.036    345.04645    116.19044    78.617439      18.4006    27.310576 
    9800     240.9582   -310.31954    263624.46   -25653.684    1950.0505   -27603.734   -876.38797    116.89849    78.618369    18.399687    27.326898 
   10000      237.378   -237.64665    263624.46     -25734.5    1921.0762   -27655.576   -545.18979    117.03651     78.61722     18.40035    27.315632 
   10200    246.44306   -322.66762    263624.46   -25642.289    1994.4389   -27636.728   -927.20708    118.89261    78.615868    18.401338    27.304225 
   10400    244.96423   -284.60048    263624.46   -25636.273    1982.4709   -27618.744    -767.6738    119.67062    78.615357    18.403266    27.292645 
   10600    237.19859   -274.60082    263624.46   -25697.131    1919.6243   -27616.755   -707.11799    120.59249      78.6152    18.401786    27.299133 
   10800    235.89891   -360.81403    263624.46   -25764.752    1909.1061   -27673.858   -1110.3789    121.55191    78.614991    18.400718    27.304027 
   11000    241.90228   -302.32373    263624.46   -25757.391    1957.6908   -27715.082    -841.8494    122.35957    78.615671    18.402549    27.306448 
   11200    232.11737   -178.70496    263624.46   -25752.775    1878.5025   -27631.278   -287.45238    123.99354     78.61881    18.405777    27.319129 
   11400    243.26383   -241.86454    263624.46   -25704.203    1968.7097   -27672.912   -553.51715    125.39564    78.619735     18.40775     27.31102 
   11600    243.62904   -97.325605    263624.46   -25650.533    1971.6653   -27622.198    88.723683    127.61003    78.621685    18.409462    27.310155 
   11800    242.57849   -459.70086    263624.46   -25610.819    1963.1633   -27573.983   -1571.6143    130.16407    78.621877    18.408637     27.30657 
   12000    243.46932   -248.99479    263624.46   -25648.292    1970.3727   -27618.665   -594.35749    130.40415    78.622534    18.406711    27.314323 
   12200    243.25359   -406.93837    263624.46   -25664.168    1968.6268   -27632.795   -1296.4164    131.21757    78.622385    18.406329    27.296791 
   12400    238.90911   -287.10448    263624.46   -25720.216    1933.4673   -27653.683   -781.23285    133.10153    78.621577    18.405552    27.287958 
   12600    242.05899   -315.74644    263624.46   -25635.926     1958.959   -27594.885   -921.07596    135.03854    78.621612    18.405827    27.301913 
   12800    237.87213   -143.02668    263624.46   -25661.982    1925.0752   -27587.058   -149.60879    136.46672    78.621407    18.405184    27.290265 
   13000    238.99878   -237.49121    263624.46   -25687.205    1934.1931   -27621.398   -589.10769    136.56993    78.621113    18.407821    27.289319 
   13200    238.30539   -265.13413    263624.46   -25695.768    1928.5815   -27624.349   -691.32714    136.27532     78.62126    18.405706    27.305362 
   13400    235.44682   -322.47668    263624.46   -25759.073    1905.4474    -27664.52   -928.05495    136.98902    78.621852    18.406265     27.29593 
   13600    234.06779   -260.94642    263624.46   -25742.761    1894.2871   -27637.048   -702.98014    138.60656    78.620452    18.406298    27.285868 
   13800    242.80746   -292.81508    263624.46   -25694.671    1965.0163   -27659.687   -808.83474    140.68148     78.61934    18.407116    27.292283 
   14000    243.41206   -187.95477    263624.46   -25643.808    1969.9093   -27613.717   -330.15666    142.90262    78.621537    18.406548    27.302321 
   14200    237.06115   -90.408463    263624.46   -25710.177     1918.512   -27628.689    79.902439    144.20961     78.62164    18.406183    27.304457 
   14400    243.39231   -304.87003    263624.46   -25706.469    1969.7494   -27676.219    -836.1809    145.70448     78.62001    18.405733    27.293349 
   14600    237.71152   -333.10065    263624.46   -25734.621    1923.7754   -27658.396   -993.82867     146.6867    78.620448    18.405812     27.29072 
   14800    238.81751   -469.76605    263624.46    -25714.78    1932.7261   -27647.506    -1591.878    148.15501      78.6205    18.408636    27.307825 
   15000    242.11234   -232.86646    263624.46   -25711.732    1959.3908   -27671.123    -506.9716    148.22889    78.620521    18.409664    27.314553 
   15200    237.45278    -115.8571    263624.46   -25674.797    1921.6814   -27596.479    4.4048894     149.3864    78.619876    18.408105     27.33449 
   15400    236.38917   -277.87012    263624.46   -25727.775    1913.0737   -27640.849   -753.87752     150.3198    78.618679    18.406428    27.338572 
   15600    246.02006   -468.48804    263624.46   -25602.661    1991.0156   -27593.676   -1624.0353    152.08367    78.618516      18.4056    27.333259 
   15800    240.61608   -282.29111    263624.46   -25626.403    1947.2817   -27573.685   -762.98006    153.43329    78.616993    18.405227     27.33261 
   16000    242.11818   -277.44506    263624.46   -25673.834     1959.438   -27633.272   -728.89547    155.34855    78.617204    18.404491    27.324511 
   16200    239.68516   -308.45787    263624.46       -25678    1939.7478   -27617.748   -867.93211    156.91368    78.615176    18.404208    27.319031 
   16400    239.18431   -361.94867    263624.46   -25728.378    1935.6945   -27664.073   -1076.5505    158.18277    78.615219    18.404524    27.323803 
   16600    241.27591   -312.74508    263624.46   -25652.438    1952.6217    -27605.06   -942.79121     160.3837    78.616337    18.403289     27.30372 
   16800    243.01675   -350.40192    263624.46   -25681.014    1966.7101   -27647.724    -1018.703    161.65121    78.617152    18.401559    27.291483 
   17000    239.12676   -346.19598    263624.46   -25714.304    1935.2288   -27649.533   -1066.1793    162.74253    78.618688    18.403494    27.283541 
   17200    234.82913   -367.05101    263624.46   -25703.472    1900.4485    -27603.92   -1136.9088    163.50743    78.617893    18.403795    27.265468 
   17400    235.48488   -285.47147    263624.46   -25774.884    1905.7554   -27680.639   -776.57053    165.36986    78.619107    18.403686    27.249759 
   17600    239.49292   -152.59119    263624.46   -25721.177    1938.1921   -27659.369   -155.89095    166.98878    78.619008    18.403766    27.264379 
   17800    236.38081   -243.70795    263624.46   -25731.773    1913.0061    -27644.78   -595.66359    168.93313    78.618389    18.403045    27.236157 
   18000    238.90339   -270.53688    263624.46   -25681.816     1933.421   -27615.237   -703.23284    169.64238      78.6182    18.403609    27.266417 
   18200    233.57656    -123.9043    263624.46   -25699.942    1890.3116   -27590.253   -10.087028    170.42832    78.619137    18.403213     27.27053 
   18400    240.24428   -485.72543    263624.46    -25689.25    1944.2728   -27633.522   -1703.6147    171.95376    78.620151    18.400728    27.296031 
   18600    240.01819   -83.911772    263624.46   -25661.017    1942.4431    -27603.46    105.17118     171.7636     78.61995     18.40037    27.307314 
   18800    233.42873   -207.15458    263624.46   -25743.664    1889.1152   -27632.779   -437.64929    173.51161    78.619713    18.401087    27.307555 
   19000    242.03152   -406.22948    263624.46    -25639.01    1958.7367   -27597.747   -1304.9207     175.3417    78.619101    18.403152    27.328634 
   19200     242.4652   -263.59335    263624.46   -25699.017    1962.2464   -27661.263   -689.54977    176.00255    78.618555    18.405809    27.333203 
   19400    245.56402   -134.32945    263624.46   -25643.039    1987.3249   -27630.364   -85.262745    177.53577    78.618594     18.40506     27.33983 
   19600    239.30565   -365.82439    263624.46   -25640.143    1936.6765   -27576.819   -1127.8929    179.24468    78.617877    18.404766     27.35481 
   19800    239.70768   -179.31977    263624.46   -25697.447    1939.9301   -27637.377   -315.85787    180.91618    78.619435    18.403048    27.351285 
   20000    243.98779   -143.87931    263624.46   -25677.683    1974.5686   -27652.252   -154.52029    182.82182    78.620502    18.402659    27.374483 
   20200    235.63473   -352.40826    263624.46   -25720.443    1906.9682   -27627.411   -1080.4511    185.78298    78.621909     18.40421    27.392383 
   20400     240.1695    -517.4902    263624.46    -25631.74    1943.6676   -27575.408   -1812.6805    187.84942    78.624618    18.403082    27.381155 
   20600    237.64543   -214.85237    263624.46    -25761.87    1923.2406    -27685.11   -495.36276    188.04478    78.626189    18.403791     27.39537 
   20800    239.02408   -185.85976    263624.46   -25646.853    1934.3978   -27581.251   -299.09601    189.69156    78.623509    18.402843    27.392855 
   21000     243.4464    -245.5644    263624.46   -25708.637    1970.1872   -27678.824   -562.83625    190.99516    78.623636    18.401931     27.40554 
   21200    245.71024    -303.0523    263624.46   -25680.074    1988.5082   -27668.582   -812.73976    191.35746    78.624283    18.400822    27.418242 
   21400    240.78159   -294.73874    263624.46   -25719.568    1948.6211   -27668.189   -804.73657    191.95347    78.625039    18.401215    27.413347 
   21600    243.76638   -228.80777    263624.46   -25623.205    1972.7767   -27595.982   -526.79646    192.42092    78.626273    18.401044    27.416953 
   21800     236.9507   -240.50835    263624.46   -25733.649    1917.6182   -27651.267   -554.91474    194.21291     78.62716    18.399991    27.430753 
   22000    230.81061   -208.99112    263624.46   -25795.309     1867.927   -27663.236   -391.15951     194.8663    78.628493    18.397792     27.42603 
   22200     237.5098   -285.11034    263624.46   -25843.052    1922.1429   -27765.195   -779.42188    196.43291    78.628608    18.397429    27.421174 
   22400    243.71723   -310.22157    263624.46   -25700.488     1972.379   -27672.867   -867.02448    198.51221    78.629374    18.396594    27.393453 
   22600    236.83206   -246.75615    263624.46   -25724.113     1916.658   -27640.771   -634.43478     199.7089    78.630349    18.397873      27.4059 
   22800    237.27056   -298.71098    263624.46   -25735.295    1920.2068   -27655.502   -811.75092    201.70434    78.630413    18.397815    27.411403 
   23000    241.10356   -144.39803    263624.46   -25754.312    1951.2268   -27705.539   -147.96618    202.31202    78.629703    18.399129     27.40502 
   23200    236.50291   -213.13159    263624.46   -25690.265    1913.9943   -27604.259   -452.61898    202.62521    78.629177    18.400717     27.40851 
   23400    241.41318   -368.56444    263624.46   -25685.125    1953.7325   -27638.858   -1171.3869    204.37382    78.629203     18.40121    27.390748 
   23600    244.15228    -363.0953    263624.46   -25585.881    1975.8998   -27561.781   -1073.7768     204.5794    78.629121    18.399036    27.391149 
   23800     246.0265    -305.0651    263624.46   -25639.013    1991.0677    -27630.08   -887.30621    205.57052    78.627843     18.39733    27.378256 
   24000    240.07358   -99.537224    263624.46   -25650.467    1942.8913   -27593.358    52.631676    206.78052    78.627287    18.396423    27.379911 
   24200    240.51854   -224.20674    263624.46   -25650.846    1946.4923   -27597.338   -502.14275    207.70647    78.627744     18.39734    27.377852 
   24400    238.75101   -210.24114    263624.46     -25714.9    1932.1879   -27647.088   -451.77889    209.29179    78.626513    18.397957    27.363924 
   24600    234.13303   -333.75372    263624.46   -25748.706     1894.815   -27643.521   -988.26819     212.0627    78.624833    18.399213    27.362533 
   24800    239.40176   -230.96109    263624.46   -25730.419    1937.4543   -27667.874   -477.29024    213.44704    78.626063    18.399516    27.358817 
   25000    237.45804   -175.86101    263624.46   -25715.137     1921.724   -27636.861   -264.85375    215.45447    78.625577    18.400096    27.363206 
   25200    237.30876   -382.26664    263624.46   -25868.242    1920.5159   -27788.758    -1204.769    216.84637    78.628868    18.399451    27.363452 
   25400    237.04658   -145.70149    263624.46   -25778.064    1918.3941   -27696.458    -130.4159    217.61604    78.630383    18.397874    27.351124 
   25600    250.29893   -393.89586    263624.46    -25660.97    2025.6441   -27686.614   -1294.5374    219.21435    78.631147    18.399798    27.339635 
   25800     241.5818   -129.06861    263624.46    -25679.54    1955.0971   -27634.638   -65.515807    220.03755    78.632362     18.40149    27.326845 
   26000    245.15849   -241.34588    263624.46   -25721.827     1984.043    -27705.87   -591.39198    221.48771    78.632658    18.402108    27.345349 
   26200    238.03527   -303.70963    263624.46   -25752.059    1926.3955   -27678.454   -863.14332    221.67192    78.633827    18.400912    27.342623 
   26400     234.3774   -290.77017    263624.46   -25779.164    1896.7927   -27675.957   -782.04916    223.43638    78.634546    18.400835    27.345857 
   26600    240.40131   -213.57751    263624.46    -25642.03    1945.5436   -27587.573   -476.68643     223.6911    78.635071    18.401064     27.35419 
   26800    237.69905   -261.94825    263624.46   -25653.029    1923.6745   -27576.703   -658.64095    226.49192    78.632809     18.40041    27.364988 
   27000    239.20313   -286.96246    263624.46   -25676.511    1935.8468   -27612.358   -772.10511    226.86128    78.633885    18.400919    27.375156 
   27200    244.79815   -180.33231    263624.46   -25704.012    1981.1268   -27685.139   -279.18675    229.49947    78.633847    18.401315    27.371461 
   27400     240.1007   -348.93485    263624.46   -25693.658    1943.1107   -27636.768   -1085.9486    230.91708    78.633359    18.400864    27.372076 
   27600    227.26578   -417.83241    263624.46   -25830.096    1839.2391   -27669.335    -1381.545    231.87215    78.632551    18.400181    27.397852 
   27800    244.73502   -273.97048    263624.46    -25698.58    1980.6159   -27679.196   -721.88561    232.98943    78.633218    18.400558    27.397072 
   28000    239.19445   -231.83409    263624.46    -25826.21    1935.7766   -27761.987   -573.70338     235.5033    78.633571    18.400519    27.388505 
   28200    235.54275   -220.06079    263624.46   -25772.243    1906.2238   -27678.467   -492.59045    235.61386    78.635098    18.397503    27.396303 
   28400    242.99587   -245.42619    263624.46   -25741.025    1966.5411   -27707.566    -614.0624    235.91481    78.635251    18.394598    27.400351 
   28600    235.78955   -360.53368    263624.46   -25753.417    1908.2211   -27661.638   -1145.1322    237.97651    78.634882    18.395319    27.408533 
   28800    239.75857   -245.22158    263624.46   -25746.326     1940.342   -27686.668   -546.66395    239.97766    78.634658    18.395298    27.394272 
   29000    239.96699   -209.46622    263624.46   -25691.397    1942.0287   -27633.425   -402.06299    241.64931    78.632742    18.395978    27.393146 
   29200    247.93054   -183.66206    263624.46   -25671.984    2006.4769   -27678.461   -325.26518    243.62833      78.6346    18.395039    27.397563 
   29400    245.07389   -352.03105    263624.46   -25711.605    1983.3583   -27694.963   -1061.1027    245.81063     78.63512    18.392978    27.397774 
   29600    242.52448   -359.05319    263624.46   -25696.501    1962.7262   -27659.227   -1119.7326    247.60567    78.635149    18.392239    27.404129 
   29800    234.63426    -413.5188    263624.46   -25808.786    1898.8714   -27707.657   -1351.3478    248.30372    78.636043    18.395725    27.417487 
   30000    233.91376   -327.12354    263624.46   -25812.532    1893.0405   -27705.572   -952.31881     250.4166    78.636592     18.39559    27.424241 
   30200    238.52689   -254.52308    263624.46   -25784.992    1930.3741   -27715.366   -636.49809    251.13692    78.636173    18.395367    27.430277 
   30400    242.19451   -211.33164    263624.46   -25757.561    1960.0557   -27717.617   -449.43288    253.95515    78.637554    18.394594    27.427588 
   30600    240.92634   -176.44319    263624.46    -25835.55    1949.7926   -27785.343   -288.28831    254.76928    78.636658    18.393426    27.456976 
   30800    234.49996   -69.045715    263624.46   -25828.449    1897.7845   -27726.234    192.55822    254.75008    78.637098    18.391855    27.468564 
   31000    242.57127   -202.52517    263624.46    -25772.03    1963.1049   -27735.135   -398.20134    256.20158    78.636298    18.388573    27.469301 
   31200    243.06265   -377.30137    263624.46   -25759.351    1967.0815   -27726.433   -1154.6133    259.00056    78.633614    18.389873    27.460346 
   31400    237.67439   -221.58044    263624.46   -25774.038    1923.4749   -27697.513   -466.22799     259.9637    78.633281    18.389687    27.460263 
   31600    244.06778    -257.8968    263624.46   -25759.795     1975.216   -27735.011   -635.66359    261.67338    78.632358    18.390244     27.44557 
   31800    240.37491   -231.19165    263624.46   -25689.617    1945.3299   -27634.947   -539.20608    263.82068    78.632462    18.391133    27.450833 
   32000    240.45345    -257.0117    263624.46   -25750.109    1945.9656   -27696.075   -628.07484     265.8982    78.633287      18.3925    27.455626 
   32200    237.88908   -371.55335    263624.46   -25814.432    1925.2124   -27739.644   -1141.8669    268.22449    78.633302    18.393663    27.445811 
   32400    236.69224   -248.45761    263624.46   -25760.186    1915.5265   -27675.713   -572.22098    269.57271    78.632389    18.395414    27.440968 
   32600    240.81033   -290.84938    263624.46   -25632.486    1948.8537    -27581.34   -816.94935    270.52567    78.631412    18.397542    27.440373 
   32800    249.92926   -279.19944    263624.46   -25652.467    2022.6524   -27675.119   -742.79466    271.66049    78.630479     18.39879    27.430004 
   33000    239.99446   -238.03592    263624.46    -25670.76     1942.251   -27613.011   -569.56352     272.7019    78.630934    18.398739    27.423717 
   33200    239.08941   -380.83109    263624.46       -25737    1934.9265   -27671.926   -1184.7313    274.12294    78.631196    18.401017    27.414428 
   33400    239.45765   -259.86843    263624.46   -25732.295    1937.9067   -27670.202   -680.37405    274.85229    78.633418    18.401494     27.42065 
   33600    237.05466   -247.89547    263624.46   -25784.859    1918.4595   -27703.318   -572.55673    274.07755    78.634906      18.4036    27.432342 
   33800    243.91358    -302.1292    263624.46   -25614.382    1973.9681    -27588.35   -852.98046    276.41564    78.636935    18.402875    27.433183 
   34000    237.86435   -229.42204    263624.46   -25732.759    1925.0122   -27657.772   -533.99694    279.38922    78.637063    18.400434    27.432483 
   34200    241.56198   -258.60019    263624.46   -25709.281    1954.9368   -27664.218   -642.05595    279.75336    78.637296    18.399663     27.43846 
   34400    238.18815    -272.2661    263624.46   -25724.759    1927.6327   -27652.391   -718.70971    278.60936    78.638565    18.400173    27.439147 
   34600    245.57969   -96.450468    263624.46   -25613.339    1987.4517   -27600.791    45.641933    279.28361    78.638698    18.400562    27.449089 
   34800    236.98741   -284.10315    263624.46   -25672.324    1917.9153    -27590.24   -773.65579    280.48329    78.640671    18.401654     27.43915 
   35000    241.61159   -306.39729    263624.46   -25679.485    1955.3382   -27634.823   -874.75697    280.35067    78.640934    18.402279    27.441315 
   35200    244.85906   -346.22978    263624.46   -25667.119    1981.6197   -27648.738   -1029.1782    282.92627    78.641119    18.401874    27.446142 
   35400    236.30635   -281.77849    263624.46   -25746.323    1912.4035   -27658.726   -758.95496    285.44867    78.641487    18.403151    27.446296 
   35600    239.31138   -410.84485    263624.46   -25736.506    1936.7229   -27673.229   -1300.3289    288.74383    78.641472     18.40529     27.42488 
   35800    244.03009   -72.655913    263624.46   -25588.652    1974.9109   -27563.563    177.93017    291.73872    78.642643    18.404226    27.428386 
   36000    238.56223   -377.36282    263624.46   -25730.654    1930.6601   -27661.314   -1166.9738    294.17309    78.642183    18.404089    27.441985 
   36200    236.58576   -200.91481    263624.46   -25720.262    1914.6647   -27634.927   -421.48992     295.2519    78.643449    18.404639    27.434672 
   36400    239.13196   -170.63223    263624.46   -25717.428    1935.2708   -27652.699   -300.89009    294.58944    78.644322    18.403374    27.430373 
   36600    239.41848   -195.23894    263624.46   -25705.277    1937.5896   -27642.867   -363.05368    295.70499     78.64526    18.402451    27.439638 
   36800    237.39868   -44.477015    263624.46    -25786.22    1921.2436   -27707.464    324.41628    295.55768    78.645472    18.403409     27.44137 
   37000    238.45152   -422.49236    263624.46   -25700.768    1929.7642   -27630.532   -1417.0398    298.41024    78.645472    18.403106    27.436051 
   37200    231.47542   -387.99596    263624.46   -25773.501    1873.3073   -27646.808   -1206.7885    299.60934    78.645046     18.40227    27.423878 
   37400     236.8423   -372.37766    263624.46   -25742.564    1916.7408   -27659.305    -1178.393    300.81266    78.642945    18.404115    27.408241 
   37600    244.89363   -249.97362    263624.46   -25744.943    1981.8995   -27726.843   -547.26434    300.91645    78.643099    18.403346    27.403783 
   37800     232.2134   -304.46937    263624.46   -25817.203    1879.2796   -27696.482   -892.37134    300.35879    78.642566    18.402398     27.40719 
   38000    238.71325   -274.92462    263624.46   -25698.837    1931.8823   -27630.719   -738.39527    301.70515    78.641834    18.399283    27.406541 
   38200    241.26075   -325.32349    263624.46   -25709.348     1952.499   -27661.847   -968.34835    303.68724    78.641505    18.396914    27.402897 
   38400    241.59782   -303.55727    263624.46   -25693.891    1955.2268   -27649.118   -875.25651    305.05639    78.643393    18.394192    27.406074 
   38600    243.49257   -295.50238    263624.46   -25704.399    1970.5609    -27674.96   -814.71158    304.65159    78.643908    18.393688     27.41179 
   38800     235.0125   -244.83609    263624.46   -25758.754    1901.9325   -27660.686   -574.02484    307.49008    78.643878    18.397812    27.396341 
   39000    240.00831   -282.40245    263624.46   -25632.068    1942.3631   -27574.431   -744.09671    310.70609    78.643098    18.398377    27.418344 
   39200    237.58232   -235.27551    263624.46   -25747.557    1922.7298   -27670.287   -500.30019    311.16889    78.641967    18.395737    27.436476 
   39400    244.43667   -247.48015    263624.46   -25668.739    1978.2013    -27646.94   -601.51354    314.14034    78.640089    18.394503     27.43998 
   39600    244.04374   -278.44027    263624.46    -25666.04    1975.0214   -27641.061   -717.72771    316.12645    78.638461    18.394294    27.423738 
   39800    237.10342   -415.47352    263624.46   -25743.574    1918.8541   -27662.428   -1365.1817    315.58498    78.637975    18.395199     27.41043 
   40000    237.83734   -269.42806    263624.46   -25748.692    1924.7937   -27673.486   -682.10714    315.65066    78.638281    18.397364    27.401962 
   40200    240.68614   -299.61223    263624.46   -25686.481    1947.8487    -27634.33   -853.76201    315.57165    78.638836    18.397375    27.380538 
   40400    239.08754   -285.85332    263624.46   -25736.506    1934.9114   -27671.418   -754.21012    316.98448    78.637937     18.39859    27.371362 
   40600    234.26271   -283.51825    263624.46    -25673.53    1895.8645   -27569.394   -769.97703    317.59405    78.636762    18.400277    27.390398 
   40800    240.62047   -382.28996    263624.46   -25693.269    1947.3172   -27640.586   -1259.2996    318.37863    78.634975    18.400952    27.380038 
   41000    233.05573   -242.43945    263624.46   -25733.339    1886.0966   -27619.435   -607.76803    320.21111    78.635482    18.402217    27.386599 
   41200    240.82929   -183.67727    263624.46   -25648.381    1949.0072   -27597.388   -356.58588    320.74121    78.635808    18.401608    27.395496 
   41400    238.14374   -389.09341    263624.46   -25726.337    1927.2733   -27653.611   -1262.4171    321.19411    78.636507    18.400471    27.409047 
   41600    241.38579   -267.72716    263624.46   -25724.485    1953.5109   -27677.995   -654.90329    322.14706    78.636788    18.399578    27.402991 
   41800    234.65593   -360.80222    263624.46   -25685.644    1899.0468   -27584.691   -1128.7662    322.02326    78.637007    18.399892    27.404349 
   42000    236.81514    -362.8647    263624.46   -25693.522    1916.5211   -27610.043   -1126.6937      322.476    78.636213    18.398801     27.40171 
   42200    239.07139   -255.60494    263624.46   -25670.915    1934.7806   -27605.696   -643.69756    323.22458     78.63517    18.398946    27.391456 
   42400     235.7389   -282.47779    263624.46   -25675.978    1907.8112   -27583.789   -778.25365    325.00769    78.635968    18.398274    27.381288 
   42600    234.12506   -289.40682    263624.46   -25657.712    1894.7505   -27552.463   -757.23823    326.11412    78.635527     18.39761    27.381761 
   42800    238.85391    -199.3766    263624.46   -25688.519    1933.0206    -27621.54   -394.80191    329.35162    78.635734    18.397728    27.372704 
   43000    235.77669   -325.72819    263624.46   -25672.533     1908.117    -27580.65   -930.52012     331.5827    78.635073    18.395565    27.364277 
   43200    247.16565   -236.49051    263624.46   -25669.065    2000.2867   -27669.351   -539.35081    333.83815    78.632549    18.395602    27.371539 
   43400    239.45094   -178.85075    263624.46   -25683.351    1937.8523   -27621.203   -293.92347    336.35661    78.632324    18.394801    27.387842 
   43600    242.31841   -371.93664    263624.46   -25718.656    1961.0585   -27679.714   -1133.8454    336.93322    78.631615    18.394734    27.387226 
   43800    235.17528   -324.20724    263624.46   -25791.324    1903.2499   -27694.574   -921.47372    338.07326    78.633274    18.393304     27.37523 
   44000    233.71548   -348.74188    263624.46   -25818.382    1891.4359   -27709.818   -979.20622    340.49691    78.633936    18.392253    27.377983 
   44200    243.01412   -214.50777    263624.46   -25741.169    1966.6888   -27707.858   -441.28936    340.14346    78.633414    18.389067    27.378427 
   44400    239.57638   -333.55407    263624.46   -25776.404    1938.8675   -27715.272   -947.27579    341.74238    78.633659    18.387737    27.373386 
   44600     232.8897   -238.98478    263624.46   -25774.049    1884.7529   -27658.802   -530.69593     341.6267    78.633491    18.385292    27.385488 
   44800    239.53102   -255.28011    263624.46   -25696.926    1938.5004   -27635.426   -636.39642    342.89834    78.634147    18.387121    27.386451 
   45000    243.35218   -190.02681    263624.46    -25679.19    1969.4247   -27648.615   -336.98303     345.0701    78.633894    18.389109    27.378809 
   45200    238.04385     -253.078    263624.46   -25665.454    1926.4649   -27591.919   -606.38344    346.50284    78.633289    18.386671    27.378772 
   45400    241.25157   -441.97688    263624.46   -25723.117    1952.4247   -27675.542   -1441.6204    347.98974    78.632715    18.388409    27.400245 
   45600    236.31133    -333.0814    263624.46   -25637.104    1912.4438   -27549.547   -983.83562    348.71621    78.632255    18.389413    27.426338 
   45800    242.42435   -417.88745    263624.46     -25650.6    1961.9159   -27612.516   -1361.0767    349.79887    78.631856    18.389548    27.417768 
   46000    240.30349   -203.70869    263624.46   -25661.136    1944.7519   -27605.888   -359.72621    350.06529    78.632546    18.387533    27.423442 
   46200     237.8057   -321.94769    263624.46   -25638.497    1924.5376   -27563.035   -940.81519    352.89527    78.630691    18.386222    27.436467 
   46400    240.78028   -282.04684    263624.46    -25698.11    1948.6105   -27646.721    -782.8111     353.5598    78.630651    18.387307    27.445303 
   46600    240.10834   -121.30571    263624.46   -25670.992    1943.1726   -27614.164   -23.624446    355.67596    78.632024    18.389188    27.440679 
   46800    241.46436   -146.27249    263624.46   -25652.933    1954.1467   -27607.079   -138.26403    356.18296     78.63223    18.390973    27.456878 
   47000    238.73716   -220.47789    263624.46   -25738.052    1932.0758   -27670.128   -457.06457    357.12416    78.630497    18.390864    27.442849 
   47200    238.68657   -231.19217    263624.46   -25775.014    1931.6664    -27706.68   -583.00272    360.31436    78.627762    18.391878    27.451827 
   47400    232.64074   -365.76995    263624.46   -25718.761    1882.7381     -27601.5   -1159.1326     361.3786    78.626173    18.391784    27.440956 
   47600    238.18111   -356.00003    263624.46   -25693.198    1927.5758   -27620.773   -1042.6784    362.90984    78.626236    18.390411    27.437871 
   47800     235.4218   -290.63165    263624.46   -25705.902    1905.2449   -27611.147   -791.13188    364.94346    78.626089    18.390759    27.442792 
   48000    236.29599   -297.50371    263624.46   -25722.894    1912.3196   -27635.214   -846.12189    365.88879     78.62696    18.390293    27.439896 
   48200    233.04534   -379.72458    263624.46   -25705.887    1886.0125   -27591.899   -1218.4589    369.72345    78.627038    18.390462    27.431621 
   48400      232.919   -370.47184    263624.46   -25676.907      1884.99   -27561.897    -1174.483    370.75145    78.626653    18.390693    27.438906 
   48600    239.46687   -153.92544    263624.46   -25722.382    1937.9812   -27660.363   -192.62997    371.16041    78.626755    18.391699    27.437707 
   48800    239.97148   -46.508626    263624.46   -25711.589     1942.065   -27653.654    291.18734    372.85273    78.627837    18.389629     27.43966 
   49000    242.15224   -235.79842    263624.46   -25743.088    1959.7137   -27702.802   -570.51619    375.29132    78.627406    18.389157     27.45466 
   49200    243.39397   -216.69943    263624.46   -25692.217    1969.7629    -27661.98    -446.2891    376.46005    78.627058    18.389281    27.454514 
   49400    234.44227   -300.95353    263624.46   -25803.709    1897.3177   -27701.027   -849.93824    377.41957    78.625731    18.389193    27.461034 
   49600    240.24402   -242.90622    263624.46   -25800.811    1944.2706   -27745.082   -555.31274    377.02378    78.622613    18.390543    27.431409 
   49800    240.23408   -417.34228    263624.46   -25825.733    1944.1902   -27769.923   -1410.1237    379.06929    78.623702    18.390331    27.420238 
   50000     241.5339   -369.57521    263624.46   -25815.693    1954.7096   -27770.403    -1143.914    380.53133    78.623315    18.391029    27.423454 
   50200    238.91781   -316.67886    263624.46    -25761.02    1933.5377   -27694.558   -913.67531    381.70172    78.626892    18.390785    27.437255 
   50400    236.90038   -259.90331    263624.46   -25752.092    1917.2109   -27669.303   -637.37716    383.21477    78.626028     18.39117    27.432887 
   50600    245.58352   -402.12833    263624.46   -25620.077    1987.4827    -27607.56   -1319.9628    383.09141     78.62626    18.391167    27.443549 
   50800    240.23166   -303.28136    263624.46   -25781.402    1944.1706   -27725.573   -868.13606    384.54844    78.625042    18.391344    27.439673 
   51000    236.01584   -366.81664    263624.46   -25754.784    1910.0524   -27664.837   -1151.9258    387.09469    78.625979    18.393392    27.440025 
   51200    238.61074   -287.01365    263624.46   -25820.336    1931.0527   -27751.389   -765.26891    387.08247    78.624148    18.393924    27.456377 
   51400    235.08798   -149.18851    263624.46   -25771.603    1902.5434   -27674.146   -141.24783    386.62085    78.622993    18.394084     27.47269 
   51600    244.73397   -164.10245    263624.46   -25717.604    1980.6074   -27698.211   -198.25018    388.61287    78.623108    18.393602    27.471319 
   51800    241.71826   -123.75127    263624.46   -25726.346    1956.2016   -27682.548    -63.06226    388.67156    78.623073    18.395583    27.502949 
   52000    240.78396   -170.51755    263624.46   -25786.289    1948.6404   -27734.929   -234.43856    392.71764     78.62315    18.394764    27.529718 
   52200    234.69089   -173.48665    263624.46   -25857.934    1899.3298   -27757.264   -272.35244    395.19764    78.623126    18.392686    27.513958 
   52400    236.03534   -238.76464    263624.46   -25905.843    1910.2103   -27816.054   -582.12219    394.98516    78.622049     18.39322    27.493289 
   52600    244.92142   -300.09269    263624.46   -25753.665    1982.1244   -27735.789   -843.99242    394.30788    78.621477    18.392963    27.481249 
   52800    236.98817   -189.21466    263624.46   -25693.888    1917.9214    -27611.81    -310.5486    396.74518    78.620233    18.390255    27.499861 
   53000    241.50661   -351.40056    263624.46   -25709.456    1954.4887   -27663.945   -1071.4267    397.49275     78.62108    18.388567    27.500053 
   53200    231.18477   -286.61513    263624.46   -25786.023    1870.9551   -27656.978   -735.91237    398.43271    78.622649    18.386725    27.506103 
   53400    234.71489   -201.04121    263624.46   -25697.575    1899.5239   -27597.099   -393.70437    399.14429    78.624046    18.386009    27.508234 
   53600    241.25731   -372.70126    263624.46   -25768.352    1952.4711   -27720.824   -1165.0273    402.81694    78.622806    18.386564    27.477544 
   53800    240.15464   -112.78056    263624.46   -25719.018    1943.5473   -27662.565   -25.327084     401.8167    78.623605    18.386285    27.482771 
   54000    234.56269   -237.50088    263624.46   -25773.172    1898.2922   -27671.464   -559.31443    404.36531    78.624651    18.384722    27.473804 
   54200    243.81353   -259.78315    263624.46   -25668.279    1973.1584   -27641.437   -679.21991    405.32603    78.623177      18.3835    27.483007 
   54400    237.70228   -208.50408    263624.46   -25687.496    1923.7006   -27611.197   -455.12349    403.90708    78.622227    18.382067    27.475296 
   54600    244.58748   -153.99805    263624.46   -25661.003    1979.4219   -27640.425   -176.44502    406.14234    78.621501    18.379892     27.48643 
   54800    241.19912   -271.03042    263624.46   -25665.376    1952.0002   -27617.376   -680.26968    409.47735     78.61976    18.379123      27.4716 
   55000    237.47556   -412.29584    263624.46   -25635.555    1921.8658    -27557.42    -1312.218    412.15023    78.618508    18.378671    27.457124 
   55200    239.35137   -189.04558    263624.46   -25804.302    1937.0465   -27741.349   -321.29544    412.71087    78.618577    18.379044     27.46841 
   55400    237.08079   -200.07107    263624.46   -25761.522    1918.6709   -27680.193   -396.54506    414.42441    78.616005    18.378796     27.47533 
   55600    242.87151   -255.07011    263624.46   -25701.953    1965.5347   -27667.488   -645.44903    414.15137    78.616719    18.381257    27.484497 
   55800    245.31479   -331.22295    263624.46    -25672.19    1985.3079   -27657.498   -960.44436    415.28591    78.616753    18.383959     27.48831 
   56000    244.36288   -337.88977    263624.46   -25675.001    1977.6042   -27652.605   -973.79203    416.66765    78.616931    18.387101    27.471268 
   56200    246.57874    -295.6542    263624.46   -25680.435    1995.5369   -27675.972   -813.16155    418.53133    78.617376    18.388623    27.459129 
   56400    237.44169   -190.42524    263624.46   -25811.724    1921.5917   -27733.316   -340.61427    419.40229     78.61844    18.390456    27.447452 
   56600    240.47975   -224.67026    263624.46   -25886.837    1946.1784   -27833.016   -497.01879    420.00914    78.618394    18.390394    27.436985 
   56800    239.45814   -317.30911    263624.46   -25753.273    1937.9106   -27691.183   -917.78042    422.62395    78.617671    18.391685    27.442693 
   57000    238.65095   -230.68955    263624.46   -25838.211    1931.3781   -27769.589   -510.57432    423.53472    78.618516    18.394145    27.443518 
   57200     245.3379   -278.44529    263624.46   -25729.306    1985.4949   -27714.801   -731.29019    425.22996    78.618934    18.394933    27.461475 
   57400    242.82292    -192.0021    263624.46   -25792.479    1965.1414   -27757.621   -315.03237    422.89293    78.619628    18.395673    27.461033 
   57600     237.5018   -415.48448    263624.46   -25850.034    1922.0781   -27772.113   -1312.8933    424.57372    78.619623    18.394088    27.460783 
   57800    241.45213   -188.97807    263624.46   -25731.759    1954.0477   -27685.806   -319.60967    425.84312    78.618828    18.392703    27.439587 
   58000    243.13091   -354.44948    263624.46   -25737.847     1967.634   -27705.481   -1092.2891    427.17216    78.618794    18.392505    27.450059 
   58200    243.59289   -472.31375    263624.46   -25680.834    1971.3727   -27652.206   -1564.6858    427.38844    78.619452    18.391235    27.461348 
   58400    237.80633   -192.60325    263624.46   -25756.456    1924.5426   -27680.999   -355.38235    428.02033    78.620092    18.390314    27.472707 
   58600     241.3375   -338.04621    263624.46   -25796.967    1953.1201   -27750.087    -976.2465    429.67417    78.620286    18.389902    27.484364 
   58800    235.05653   -230.89987    263624.46   -25762.834    1902.2888   -27665.123   -538.43486    430.83735    78.619517    18.389161    27.507807 
   59000    244.11558   -165.58462    263624.46   -25626.559    1975.6028   -27602.162   -222.19156    434.12233    78.619975     18.39089    27.531009 
   59200    246.49045   -314.65537    263624.46   -25649.066    1994.8224   -27643.888   -901.39533    436.02103    78.621816    18.392065    27.529534 
   59400    242.40856   -320.85275    263624.46    -25700.12    1961.7881   -27661.908   -956.50103     437.1604    78.621251    18.393562    27.535051 
   59600    241.84101   -100.20661    263624.46    -25757.76     1957.195   -27714.955    101.96449    437.47665    78.622523    18.393099    27.545287 
   59800    231.04816   -232.44495    263624.46   -25834.991    1869.8495    -27704.84   -532.71564    438.97882     78.62234    18.391461    27.536306 
   60000    237.41814   -380.05636    263624.46   -25769.973    1921.4011   -27691.374   -1190.2289    441.09813    78.622964    18.390989    27.545116 
   60200     239.1652   -306.96145    263624.46   -25773.404    1935.5399   -27708.944   -876.38351    442.41127    78.622743    18.390937    27.535856 
   60400    242.02441   -244.26426    263624.46   -25701.161    1958.6792    -27659.84   -602.36785    443.86297    78.622326    18.388696    27.533923 
   60600    237.71482   -82.980491    263624.46   -25788.798    1923.8021   -27712.601     107.0499    445.93976    78.621233    18.388901    27.519621 
   60800    249.00539   -344.06404    263624.46   -25660.223    2015.1756   -27675.399   -1027.2536    447.72659     78.62112    18.390461    27.515432 
   61000    238.07906   -133.23008    263624.46   -25772.602    1926.7499   -27699.352    -70.84891    447.21621     78.62196    18.394461    27.500373 
   61200    239.37643   -344.33944    263624.46   -25724.265    1937.2493   -27661.514   -1032.2271    449.35504     78.62202    18.396741    27.506505 
   61400    240.79067   -248.02537    263624.46   -25720.891    1948.6946   -27669.585   -577.45062    449.84683    78.622371    18.399695    27.489842 
   61600    239.60182   -197.69841    263624.46    -25757.95    1939.0734   -27697.023   -369.63606    451.74817    78.623185    18.399783    27.497072 
   61800    243.61309   -283.91645    263624.46   -25770.742    1971.5362   -27742.278   -772.64277    453.56156     78.62434    18.399522    27.509832 
   62000    235.93397   -104.67737    263624.46   -25718.119    1909.3898   -27627.509    77.665668    453.81437    78.623665    18.399974    27.506783 
   62200    243.04741    -289.9984    263624.46   -25716.382    1966.9582    -27683.34   -761.01429    455.78637    78.622449    18.400352    27.494962 
   62400    238.46915     -268.147    263624.46   -25721.815    1929.9068   -27651.722   -666.00958    455.86631    78.622075     18.39993     27.48938 
   62600    240.85661   -286.43346    263624.46   -25758.433    1949.2283   -27707.661   -771.63113    458.88865    78.621025    18.398791    27.484263 
   62800    240.43478   -261.72929    263624.46   -25798.638    1945.8145   -27744.452    -661.4838    458.49398    78.620299    18.400803    27.493998 
   63000    237.50462   -371.41368    263624.46   -25789.947     1922.101   -27712.048   -1212.7674     459.8746    78.618128    18.401578    27.497672 
   63200     242.3912   -205.18564    263624.46   -25709.374    1961.6476   -27671.022   -409.94938    459.13412    78.620082    18.401782       27.494 
   63400    236.12896   -278.06829    263624.46   -25787.297    1910.9679   -27698.265   -671.58569    461.58753     78.62042     18.40312    27.500726 
   63600    236.16173   -132.10915    263624.46   -25777.187    1911.2331    -27688.42   -61.909181    461.00504    78.620193    18.405727    27.496932 
   63800    233.63619   -468.74361    263624.46   -25871.175    1890.7942   -27761.969   -1586.3433    464.29511    78.620375    18.404751    27.503802 
   64000    243.23771   -234.62913    263624.46   -25728.819    1968.4983   -27697.317   -538.06736    462.75013    78.620128    18.403314    27.505491 
   64200    239.61806   -363.02028    263624.46   -25705.623    1939.2048   -27644.828   -1092.4669    464.50672    78.621128    18.403432    27.507187 
   64400    233.87739   -163.78422    263624.46   -25767.603    1892.7462   -27660.349   -253.92584     466.7765    78.623061    18.402566    27.488807 
   64600    233.42896   -263.72057    263624.46   -25803.969    1889.1171   -27693.086    -657.5195    469.67908    78.624986    18.402353    27.488441 
   64800    243.90188     -274.333    263624.46   -25766.348    1973.8733   -27740.221   -718.43207    471.34664      78.6228    18.401345    27.505512 
   65000    240.49104   -229.49755    263624.46   -25686.009    1946.2698   -27632.279   -556.83668    472.99091    78.622564    18.402933    27.513139 
   65200     241.3912   -388.87091    263624.46   -25747.392    1953.5547   -27700.947   -1227.1721    474.50819    78.622376    18.406515    27.513653 
   65400    238.22473   -375.81896    263624.46   -25737.998    1927.9288   -27665.927   -1212.3586    474.07138    78.622915    18.408281    27.533623 
   65600    234.84473   -241.42237    263624.46   -25678.538    1900.5748   -27579.113   -536.67254     473.9104    78.623592    18.409162    27.522631 
   65800    236.27044   -252.51693    263624.46   -25723.974    1912.1129   -27636.087   -600.89861    476.46202    78.622761    18.413005    27.516241 
   66000    237.59664   -247.85546    263624.46   -25712.142    1922.8457   -27634.988   -582.10238    475.89854    78.621103    18.411949    27.487298 
   66200    236.69947   -341.24671    263624.46    -25714.58     1915.585   -27630.165   -985.20297    478.90946    78.621141    18.413135     27.46936 
   66400    236.01019   -421.41032    263624.46   -25684.277    1910.0067   -27594.284   -1352.6251    479.03648    78.620955    18.413559     27.45926 
   66600    243.80959   -378.63747    263624.46    -25712.88    1973.1264   -27686.006   -1154.2909    480.23881    78.620506    18.415368    27.458533 
   66800    236.67548   -365.52614    263624.46   -25756.179    1915.3908    -27671.57   -1120.4844    482.35587    78.619025    18.414454    27.462183 
   67000    235.25831   -153.45756    263624.46   -25824.863    1903.9218   -27728.784   -154.70988    483.94021    78.618346    18.416862    27.465203 
   67200    234.74536   -415.18136    263624.46    -25735.21    1899.7705   -27634.981   -1357.7903     486.3753    78.617347    18.416726    27.468508 
   67400    243.54029   -252.56246    263624.46   -25703.734     1970.947   -27674.681   -606.47929    484.56768    78.617421    18.416258    27.479376 
   67600    240.26524   -342.48418    263624.46   -25616.177    1944.4424   -27560.619    -1027.969    486.43256     78.61616    18.413699    27.470649 
   67800    236.67719   -366.46524    263624.46    -25719.71    1915.4047   -27635.115   -1084.2918    489.52985    78.617277    18.412539    27.466618 
   68000    235.68207   -263.41507    263624.46   -25747.353    1907.3513   -27654.704   -668.53835    489.76992    78.617924    18.412662    27.456434 
   68200    241.24652   -309.30719    263624.46   -25756.325    1952.3838   -27708.708   -875.37279    492.23699    78.618622    18.414658    27.465461 
   68400    249.82137   -177.82458    263624.46   -25661.264    2021.7792   -27683.043   -255.94869    491.76355    78.620666    18.415798    27.459501 
   68600    233.78225   -180.82571    263624.46   -25698.478    1891.9762   -27590.455   -278.36463    493.73734    78.621566    18.416156     27.45234 
   68800    242.79178   -256.14602    263624.46   -25694.464    1964.8894   -27659.354   -665.90088    496.27456    78.622779    18.416062    27.458113 
   69000    240.91123   -256.80875    263624.46   -25703.836    1949.6703   -27653.506   -646.49273    495.73928    78.622538    18.416389    27.458619 
   69200    240.96178   -283.50326    263624.46   -25744.794    1950.0794   -27694.874    -756.9542    497.50085    78.621184    18.417217    27.459927 
   69400    233.12717   -204.81262    263624.46   -25812.953    1886.6747   -27699.627   -383.77733    500.61563    78.621431    18.418848    27.467811 
   69600    242.36392    -467.2064    263624.46   -25596.186    1961.4268   -27557.613   -1547.4029    504.86599    78.624416    18.419783    27.473687 
   69800    239.26304   -85.643943    263624.46   -25727.452    1936.3317   -27663.784    147.76465    502.14502    78.625956    18.417971    27.454043 
   70000    236.50852   -220.73136    263624.46   -25653.006    1914.0396   -27567.045   -478.11195    502.58508    78.627611     18.41632    27.454561 
   70200    244.15751   -231.10545    263624.46   -25624.352    1975.9422   -27600.294   -526.40878    505.21692    78.629909    18.416875    27.448446 
   70400    245.04355   -205.86014    263624.46    -25614.77    1983.1128   -27597.883   -403.98098    508.76474    78.629161    18.415128    27.462501 
   70600    243.16935   -315.55051    263624.46   -25714.358     1967.945   -27682.303    -918.1217    510.12989    78.628741    18.415457    27.486507 
   70800    239.32471   -347.17152    263624.46   -25721.315    1936.8307   -27658.145    -981.7381    512.54625    78.629556    18.417493    27.510552 
   71000      242.098   -176.21926    263624.46   -25724.539    1959.2747   -27683.813   -285.85851    514.94542    78.630598    18.419123    27.520809 
   71200     237.6733   -174.63764    263624.46   -25729.149    1923.4661   -27652.615   -259.07608    513.58324    78.630041    18.421024    27.522456 
   71400    237.26437   -301.11929    263624.46    -25744.17    1920.1566   -27664.327   -813.81908    515.16085    78.628502    18.421359    27.526768 
   71600    232.24979   -322.91197    263624.46   -25702.575    1879.5742   -27582.149   -931.47755    516.82737    78.628366    18.423013    27.541611 
   71800    234.61856   -532.77957    263624.46   -25825.185    1898.7444    -27723.93   -1889.2557    520.38546    78.627911    18.424112    27.544468 
   72000     237.2715   -249.82245    263624.46    -25820.52    1920.2143   -27740.734    -622.0582    519.34183     78.62708    18.423853    27.543642 
   72200    244.22762    -420.8522    263624.46   -25657.465    1976.5095   -27633.974   -1358.1537    520.68106    78.628148    18.425773    27.546774 
   72400     233.4137   -297.36194    263624.46   -25790.163    1888.9935   -27679.157   -796.12655    521.72415    78.629333    18.426631    27.554156 
   72600    247.34431   -295.12517    263624.46   -25672.453    2001.7326   -27674.186    -806.2495    522.28745    78.630667    18.428834    27.570267 
   72800    234.15271   -237.56582    263624.46   -25706.752    1894.9743   -27601.727   -516.52778    520.04515    78.631204    18.427052    27.560039 
   73000    243.42798   -235.58252    263624.46   -25735.957    1970.0381   -27705.995   -496.78217    521.29791    78.629325    18.428227    27.552085 
   73200    246.20124   -260.08634    263624.46   -25663.797    1992.4819   -27656.279   -626.84459    522.04879    78.629711    18.429849    27.556854 
   73400    244.28391   -304.26808    263624.46   -25650.567    1976.9651   -27627.532   -903.11292    523.06628    78.631411    18.427842    27.558164 
   73600    245.40778   -12.230822    263624.46   -25624.238    1986.0605   -27610.299    463.69235    524.17815    78.632609    18.428565    27.543334 
   73800    234.89057    -219.6205    263624.46   -25802.705    1900.9457   -27703.651   -490.50835     526.1509    78.632971     18.42694     27.54286 
   74000    239.49414   -200.55834    263624.46   -25803.132    1938.2019   -27741.334   -401.57495    527.51978    78.632417     18.42766      27.5336 
   74200    237.35897   -204.33608    263624.46   -25737.675    1920.9223   -27658.597   -386.17845    527.21689    78.629945    18.425554    27.545853 
   74400    242.15553   -185.03766    263624.46   -25670.982    1959.7403   -27630.722   -283.83862    526.81116    78.629455    18.424002    27.544174 
   74600    237.19234   -364.62718    263624.46   -25758.237    1919.5738   -27677.811   -1139.8153    529.54699    78.629619    18.424756    27.540312 
   74800    237.84469   -398.82579    263624.46   -25733.894    1924.8532   -27658.747   -1266.0291    530.94962    78.627771    18.423993      27.5513 
   75000    238.19149   -122.83771    263624.46   -25760.492    1927.6597   -27688.152   -61.131202    529.44176    78.627592    18.425183    27.555113 
   75200    244.15537   -258.77312    263624.46   -25697.335    1975.9248    -27673.26   -615.94027    532.32682    78.626114    18.425891    27.549578 
   75400    243.11453   -294.81993    263624.46   -25766.492    1967.5014   -27733.993   -775.26124    533.60551    78.626225    18.427367    27.542509 
   75600    240.98171   -185.91159    263624.46   -25770.092    1950.2407   -27720.333   -297.89746    533.33926    78.625388    18.428281    27.533032 
   75800    235.93774   -259.47214    263624.46   -25723.237    1909.4204   -27632.657   -646.37826    534.56482    78.627324     18.42996    27.541589 
   76000    240.33704   -206.55054    263624.46   -25726.961    1945.0234   -27671.984   -406.43513    533.33696    78.629309    18.429721    27.532614 
   76200    234.36031   -216.74495    263624.46   -25826.404    1896.6544   -27723.059   -416.70713    533.93969    78.627352    18.428653    27.523766 
   76400    243.43402   -326.77158    263624.46   -25761.405     1970.087   -27731.492   -925.81497    535.16065    78.625278    18.427354    27.536778 
   76600    243.46428   -225.04128    263624.46   -25727.194    1970.3319   -27697.526   -510.22012    534.52537    78.625637    18.428304    27.540568 
   76800    238.56249   -298.09455    263624.46   -25751.059    1930.6622   -27681.721   -829.23298    535.25393    78.626752    18.428601    27.529711 
   77000    244.30138   -193.75932    263624.46   -25667.775    1977.1065   -27644.881   -384.29271    535.23335    78.626637    18.427005    27.515862 
   77200    237.44387   -209.16232    263624.46    -25706.38    1921.6093   -27627.989   -398.88046    535.45436    78.626881    18.427051    27.504942 
   77400    238.42546   -340.10855    263624.46   -25712.512    1929.5532   -27642.065   -1009.0699    537.53194    78.627756    18.426214    27.508845 
   77600    233.47405   -196.69908    263624.46   -25788.499     1889.482   -27677.981   -364.94366    539.46129    78.628844    18.425465    27.511947 
   77800    236.45388   -223.73586    263624.46   -25765.894    1913.5974   -27679.492   -503.29771    539.86173    78.631509    18.425765    27.506467 
   78000    245.16391   -185.95742    263624.46   -25756.303    1984.0869    -27740.39   -332.93856    540.21331    78.631989    18.423982    27.503059 
   78200    240.97643   -224.71764    263624.46   -25786.898     1950.198   -27737.096   -514.28789    543.25834     78.63033    18.424429    27.490804 
   78400    240.37883   -271.35792    263624.46   -25736.217    1945.3616   -27681.578   -728.55621    544.80001    78.630212    18.424361    27.473008 
   78600    244.32013   -324.40195    263624.46   -25677.277    1977.2582   -27654.535   -978.44055    542.25438    78.632158      18.4237        27.47 
   78800    236.66479   -311.22712    263624.46   -25694.462    1915.3043   -27609.766   -862.72584    544.87066    78.632728    18.421385    27.480882 
   79000    238.05617   -264.95149    263624.46   -25660.869    1926.5646   -27587.434   -619.41088    545.14505    78.633801    18.420255     27.47773 
   79200    242.23835   -216.79202    263624.46   -25637.879    1960.4105   -27598.289   -470.62698    546.43419    78.634272    18.420189    27.491227 
   79400    239.27575    -322.5197    263624.46   -25621.047    1936.4345   -27557.482   -921.27216    546.41036    78.634067    18.418184    27.500802 
   79600    235.52868   -304.19811    263624.46    -25759.83    1906.1099    -27665.94   -844.27144    546.80925    78.633726    18.416748    27.521426 
   79800    239.25069   -285.36072    263624.46   -25743.058    1936.2317    -27679.29   -808.52135    548.93149    78.633807    18.414073    27.525421 
   80000    238.53359    -320.5181    263624.46   -25704.906    1930.4283   -27635.335   -955.00067    552.86097    78.634569    18.413083    27.535505 
   80200    233.17876   -203.72873    263624.46   -25754.846    1887.0922   -27641.939   -399.68657     552.2717    78.634054    18.414327    27.523233 
   80400    233.70632    -204.9485    263624.46   -25797.664    1891.3617   -27689.026   -477.73487    552.39675    78.633123    18.415344      27.5151 
   80600    241.39852   -314.65879    263624.46   -25749.601    1953.6139   -27703.215   -922.96585    554.71233    78.632924    18.417036    27.527988 
   80800     246.3756   -195.00362    263624.46   -25739.923    1993.8929   -27733.816   -325.57085    554.14045    78.633549    18.415828    27.545634 
   81000    238.70971   -203.27807    263624.46   -25713.718    1931.8536   -27645.572   -447.50206     554.5821    78.632785    18.416172    27.549751 
   81200    237.83782   -234.95446    263624.46   -25710.271    1924.7975   -27635.069   -548.49086    554.01879    78.632318    18.418417    27.563331 
   81400    241.86309   -278.12671    263624.46   -25705.366    1957.3736    -27662.74   -752.07686    554.04428    78.631483    18.419631     27.56643 
   81600    234.92045   -294.72793    263624.46   -25723.139    1901.1875   -27624.327   -806.76946    555.25954    78.632125    18.418539    27.546987 
   81800    238.63341   -587.98416    263624.46   -25806.001    1931.2361   -27737.237    -2103.743     557.3486    78.631569    18.418417    27.556671 
   82000    239.63478   -216.96517    263624.46   -25695.677    1939.3402   -27635.018   -494.24529    558.25032    78.629155    18.420761    27.539851 
   82200    246.87997   -131.48131    263624.46   -25631.509    1997.9747   -27629.484   -62.867425    558.88719    78.630158    18.422133    27.537095 
   82400    240.07701   -234.87506    263624.46   -25649.768    1942.9191   -27592.687   -544.79402    558.28623    78.630304    18.421662    27.524557 
   82600    246.47082   -288.33564    263624.46   -25606.746    1994.6635   -27601.409   -736.99191    561.16931    78.630123    18.422133    27.523681 
   82800    238.22905   -408.34766    263624.46   -25697.715    1927.9637   -27625.678   -1296.1673    565.44922    78.629206    18.420882    27.505431 
   83000    239.72177   -176.59416    263624.46   -25600.692    1940.0442   -27540.736   -268.17127    565.71813    78.627234    18.422027    27.474174 
   83200    241.53613    -436.0578    263624.46   -25622.789    1954.7275   -27577.517   -1432.4734    567.99873    78.625937    18.422585      27.4646 
   83400    247.07492    -151.9533    263624.46   -25640.599    1999.5524   -27640.151   -149.90946     569.7991    78.626706    18.422704    27.446718 
   83600    239.81411   -344.68529    263624.46   -25741.482    1940.7915   -27682.273   -1063.1266    570.92838    78.625969    18.422477    27.423773 
   83800    239.48598   -303.34465    263624.46    -25741.96    1938.1359   -27680.096   -831.73201    572.33912    78.625339    18.423415    27.418213 
   84000    245.55907   -177.61065    263624.46   -25687.751    1987.2848   -27675.035   -291.48073    571.75961    78.624952    18.424209    27.418688 
   84200    242.61816   -236.11959    263624.46   -25689.137    1963.4844   -27652.621   -505.74861    573.52417    78.626252    18.424616    27.436778 
   84400    242.23797   -309.84876    263624.46   -25707.811    1960.4075   -27668.219    -883.4296    575.69137    78.627121    18.425346    27.450651 
   84600    244.53779   -57.878345    263624.46   -25637.419    1979.0197   -27616.438    230.72223    576.09568    78.628091    18.425082    27.439407 
   84800    242.21965   -333.64544    263624.46   -25696.276    1960.2592   -27656.535   -971.23572    579.09915    78.628609    18.424355    27.438196 
   85000    241.09513    -242.4733    263624.46   -25697.543    1951.1586   -27648.702   -592.63403     579.1199    78.627804    18.424894    27.425379 
   85200    241.57204   -373.64628    263624.46   -25675.158    1955.0182   -27630.176   -1166.2304    579.04143    78.627418    18.427066     27.42423 
   85400    235.34221    -243.8792    263624.46   -25722.747    1904.6008   -27627.347   -588.93458    580.48699     78.62734    18.429838    27.418505 
   85600    241.97317   -216.46251    263624.46   -25700.366    1958.2645   -27658.631   -454.67302    580.82555    78.628286    18.430791    27.419514 
   85800    238.82298   -470.56912    263624.46   -25671.034    1932.7703   -27603.805   -1626.5206    583.91649    78.629634    18.430312    27.395051 
   86000    239.89255   -355.31882    263624.46   -25699.337    1941.4262   -27640.763   -1103.5727    582.68009    78.630395    18.433439    27.404663 
   86200    236.93629   -365.42532    263624.46   -25676.556    1917.5015   -27594.057   -1117.1388    582.69009    78.630881    18.435682    27.387667 
   86400    237.25413   -278.37471    263624.46   -25762.447    1920.0738   -27682.521   -773.99511    584.74458    78.630668    18.437884     27.40044 
   86600    245.95793   -173.12861    263624.46   -25685.616    1990.5127   -27676.128   -281.02238    585.44881    78.630476    18.437633    27.384581 
   86800    235.10627   -422.25276    263624.46    -25749.88    1902.6914   -27652.572   -1373.6599    588.41773    78.630404    18.437095    27.378122 
   87000    238.61138   -156.46284    263624.46   -25690.111    1931.0579   -27621.169   -170.37939    589.75137    78.628526    18.436682    27.370318 
   87200    237.40868   -238.10955    263624.46   -25719.559    1921.3245   -27640.884    -570.6847    591.20521    78.628564    18.438643    27.355759 
   87400    237.95969   -178.29393    263624.46   -25772.633    1925.7838   -27698.417   -283.60121    590.69142    78.630943    18.440281    27.350621 
   87600    242.88453   -401.55853    263624.46   -25703.621      1965.64   -27669.261    -1322.756    594.15912    78.629755    18.439463    27.355436 
   87800    240.37212   -186.41562    263624.46   -25667.905    1945.3074   -27613.213   -333.24839    595.06188    78.629832    18.438393    27.365633 
   88000    242.10336   -193.12481    263624.46   -25702.052    1959.3181    -27661.37   -338.43922    596.38067    78.630438    18.438098     27.37538 
   88200    237.75009   -413.58342    263624.46   -25753.551    1924.0875   -27677.638   -1315.6518    598.63777    78.631537    18.437135    27.398019 
   88400    241.82026   -123.22131    263624.46   -25670.953     1957.027    -27627.98   -32.366766    598.00735    78.631287    18.437351    27.394161 
   88600     233.7009   -223.67106    263624.46   -25714.873    1891.3178    -27606.19    -537.2338    600.68523    78.630213    18.439492    27.398665 
   88800    236.52179   -297.37504    263624.46   -25752.946     1914.147   -27667.093    -857.9535    601.80648    78.631436    18.437894    27.401362 
   89000    240.68868    -199.9919    263624.46   -25666.979    1947.8693   -27614.849   -368.76991    603.90254    78.631904    18.437602    27.410334 
   89200    241.80424   -320.98838    263624.46   -25693.217    1956.8974   -27650.114   -887.13777    605.04623    78.631143    18.439543    27.436097 
   89400    240.85672   -243.52137    263624.46     -25730.9    1949.2292   -27680.129   -573.44903    604.31987    78.629253    18.440786    27.427428 
   89600    228.41231   -226.80298    263624.46   -25829.298    1848.5178   -27677.816   -500.46938    606.95763    78.628877    18.441403    27.423766 
   89800    238.78661   -284.45934    263624.46   -25727.892    1932.4759   -27660.368   -770.78312    607.88173    78.628068    18.441334    27.423077 
   90000    240.51798   -196.71547    263624.46   -25721.592    1946.4878    -27668.08   -342.36545    607.67294    78.627196    18.441833    27.426735 
   90200    236.96384   -269.84084    263624.46   -25758.505    1917.7245    -27676.23   -663.78086    608.46512    78.627789    18.441109    27.412107 
   90400    239.29986   -252.86793    263624.46   -25730.195    1936.6297   -27666.824   -633.61607     606.8345    78.629836    18.440164    27.404396 
   90600    240.74412   -228.34871    263624.46   -25703.596    1948.3179   -27651.914   -505.51297    606.56697    78.629111    18.441437    27.404475 
   90800    235.52662    -102.7297    263624.46    -25736.57    1906.0932   -27642.663    54.829047    606.41063    78.629339    18.441718    27.429177 
   91000    236.39736   -328.71568    263624.46   -25752.186      1913.14   -27665.326   -1024.4655    609.34414    78.628286     18.44222      27.4364 
   91200    236.59526   -303.83128    263624.46   -25835.934    1914.7416   -27750.675   -902.85337    610.40188    78.627191    18.441502    27.437623 
   91400    243.77904   -195.53102    263624.46   -25778.765    1972.8793   -27751.644   -364.37561    612.07246    78.626446     18.44192    27.456128 
   91600    241.93183   -367.42711    263624.46    -25652.21    1957.9299    -27610.14   -1157.3656    611.15858    78.625465    18.441836    27.477126 
   91800    238.14846   -15.256197    263624.46   -25650.184    1927.3115   -27577.496    455.85447    610.32109     78.62658    18.441179    27.477089 
   92000    236.93732   -309.80844    263624.46    -25669.87    1917.5099    -27587.38    -875.8976    611.97692    78.626141    18.441589    27.485384 
   92200    240.45563   -288.52885    263624.46    -25701.84    1945.9832   -27647.823    -777.4941    612.49823    78.625763    18.439125    27.476744 
   92400     246.7886   -324.42132    263624.46   -25647.723    1997.2352   -27644.958   -937.54564    613.64919    78.625838    18.437308     27.48817 
   92600      247.164   -285.32107    263624.46   -25587.002    2000.2733   -27587.276     -777.605    615.66061    78.625918     18.43624    27.488946 
   92800    237.72324   -269.00021    263624.46   -25675.029    1923.8702     -27598.9   -691.75322    614.45704    78.625732    18.435869     27.50104 
   93000    237.67881   -251.60405    263624.46   -25726.686    1923.5107   -27650.196   -616.44762    614.01962    78.626165    18.435229    27.518164 
   93200    238.82391   -365.65702    263624.46   -25695.792    1932.7778   -27628.569   -1110.1401    613.52875    78.627398     18.43637    27.525349 
   93400    234.27849   -152.93707    263624.46   -25740.921    1895.9922   -27636.913   -152.52255     612.6929    78.627782    18.438656    27.542806 
   93600    240.17599   -248.42535    263624.46   -25713.302    1943.7201   -27657.022   -610.76639    615.92122    78.628683    18.441433    27.522106 
   93800    237.30357   -93.622491    263624.46   -25727.126    1920.4739     -27647.6    125.82563    614.76536    78.628883    18.442972    27.527095 
   94000     241.4649   -163.91386    263624.46   -25779.396    1954.1511   -27733.548   -232.43514    615.93479    78.629323     18.44484    27.538704 
   94200     245.0616   -235.74094    263624.46   -25724.515    1983.2588   -27707.774   -550.03613    618.23089    78.628486    18.448174    27.534393 
   94400    240.97529   -249.55242    263624.46   -25783.078    1950.1888   -27733.267   -626.55976    618.66827    78.628702    18.449041    27.541194 
   94600    237.66746   -249.75126    263624.46    -25794.81    1923.4188   -27718.229   -648.53591    621.28024    78.629015    18.448346    27.532017 
   94800    238.12522   -363.04622    263624.46   -25784.949    1927.1235   -27712.072   -1158.3831    621.10653    78.627958    18.445798    27.535803 
   95000    238.85079   -262.01234    263624.46   -25762.134    1932.9954    -27695.13   -643.59047    621.50827    78.627709     18.44452    27.532996 
   95200    237.82964   -374.64775    263624.46   -25754.354    1924.7313   -27679.085   -1163.8823    622.10981    78.627837    18.443548    27.528712 
   95400    241.31973   -284.61988    263624.46   -25721.531    1952.9762   -27674.507   -772.34625    620.98962    78.625966    18.445878    27.536204 
   95600    237.77754   -265.23861    263624.46    -25712.03    1924.3097    -27636.34   -714.70638    623.78945    78.624387    18.446104    27.542734 
   95800    244.08622   -268.92079    263624.46    -25725.59    1975.3652   -27700.956   -685.57847    626.47201     78.62505     18.44697    27.526023 
   96000     236.0104   -282.67585    263624.46   -25709.467    1910.0084   -27619.476   -738.82173    626.34796    78.625006    18.448092    27.521924 
   96200    242.42962   -266.83344    263624.46    -25672.77    1961.9585   -27634.728   -720.71794    627.67078    78.623754    18.448872     27.50448 
   96400       235.95   -434.12231    263624.46   -25747.427    1909.5196   -27656.946   -1428.5703    628.90448     78.62222    18.448885     27.49315 
   96600    234.83527   -112.73376    263624.46   -25765.321    1900.4982   -27665.819    38.518502    626.71162    78.623791    18.448443    27.488028 
   96800    237.99092   -267.05621    263624.46   -25668.451    1926.0366   -27594.487   -689.40826    628.74843    78.624852    18.450789    27.476085 
   97000    234.30667   -240.44312    263624.46   -25760.442    1896.2203   -27656.662   -564.01257    630.74409    78.625311    18.450747     27.47112 
   97200    240.16197   -369.71642    263624.46   -25765.881    1943.6066   -27709.487    -1137.343    634.20567     78.62586    18.448793    27.468404 
   97400    240.67144   -263.82297    263624.46   -25756.682    1947.7297   -27704.411   -652.14951    633.62491     78.62442    18.449451    27.479447 
   97600    241.90964   -336.88564    263624.46   -25693.686    1957.7503   -27651.436   -1008.4321    634.52705    78.622942    18.447824     27.48792 
   97800    238.41271   -348.90213    263624.46   -25733.455      1929.45   -27662.905   -1028.7298     637.2616    78.623595    18.446999    27.482081 
   98000    241.89343   -233.55604    263624.46   -25742.548    1957.6192   -27700.167   -474.63697    636.80799     78.62384    18.445773    27.480263 
   98200    233.56294   -287.05044    263624.46    -25764.25    1890.2013   -27654.451   -783.87078    637.70189    78.624516    18.446715    27.478683 
   98400     235.8626   -353.77925    263624.46   -25710.878    1908.8123    -27619.69   -1106.7494    641.09325    78.624906    18.446252     27.47307 
   98600     244.4049   -314.48265    263624.46   -25674.876    1977.9443    -27652.82   -884.90558    640.65373    78.624656    18.444315     27.47309 
   98800    238.01828   -216.96992    263624.46   -25639.984     1926.258   -27566.242   -505.24472    638.20313    78.623818    18.443048    27.477361 
   99000    236.63881   -352.68251    263624.46     -25731.4     1915.094   -27646.494   -1023.4392    640.57974    78.623989    18.442394    27.466737 
   99200    238.81651   -385.46783    263624.46   -25702.337    1932.7179   -27635.055   -1216.7411    643.29843    78.625183      18.4448    27.480132 
   99400    232.36944   -478.53261    263624.46   -25712.498    1880.5425    -27593.04   -1658.6566    644.50499    78.623897    18.444821    27.486116 
   99600    245.83982   -188.65666    263624.46   -25633.651    1989.5569   -27623.208   -338.30104    643.78034    78.623442    18.445292    27.480977 
   99800    239.35478   -322.17028    263624.46   -25699.188    1937.0741   -27636.262    -956.3254    646.93579    78.622891    18.448845    27.475886 
  100000    237.92997   -354.96857    263624.46   -25663.954    1925.5433   -27589.498   -1092.2877    647.20126    78.622209    18.451672    27.472767 
  100200    236.07446   -247.36722    263624.46   -25737.965    1910.5268   -27648.492   -621.47503    647.58153    78.621656     18.45459    27.464508 
  100400    239.46162   -241.58514    263624.46   -25681.111    1937.9388   -27619.049    -600.3407    649.37771     78.62235    18.456058    27.472837 
  100600    238.10784   -312.54239    263624.46   -25703.496    1926.9828   -27630.478   -909.76695    651.08974    78.622285    18.454495    27.473019 
  100800    241.03142   -402.19521    263624.46   -25731.933     1950.643   -27682.576    -1292.187    653.40519    78.621761    18.455714    27.478405 
[...]
 5176000    225.23431   -967.76579    263624.46   -28496.422    1822.7985    -30319.22   -3665.5428    6060.0202    78.397419    18.272023    27.792217 
 5176200     225.5369   -968.58847    263624.46   -28447.051    1825.2474   -30272.299   -3662.9954    6060.4532    78.396941    18.272281    27.791942 
 5176400    225.71035   -994.84159    263624.46   -28468.556    1826.6512   -30295.207   -3798.7406    6060.7911    78.396205    18.271379     27.79194 
 5176600    229.16626   -901.58806    263624.46   -28403.113    1854.6194   -30257.733   -3340.0122    6057.5082    78.396459    18.272231    27.791295 
 5176800    225.87969   -946.71913    263624.46   -28441.364    1828.0216   -30269.386   -3551.3787    6060.0564    78.395877    18.271198    27.789621 
 5177000     229.7442   -897.34467    263624.46   -28444.078    1859.2967   -30303.375   -3351.9657    6058.7655    78.395245    18.270814    27.791746 
 5177200    233.44642   -925.52031    263624.46   -28406.435    1889.2583   -30295.694   -3494.7084    6056.2459    78.394118    18.270239    27.788802 
 5177400    235.32806    -940.7179    263624.46   -28376.454    1904.4863   -30280.941   -3549.5362    6062.0982    78.394336    18.270782    27.791384 
 5177600    232.22114   -901.67899    263624.46   -28375.108    1879.3423    -30254.45   -3404.4176    6057.5721    78.394839    18.270995    27.788147 
 5177800    224.69769   -988.25989    263624.46   -28438.854    1818.4558    -30257.31   -3770.9189    6060.8678     78.39438    18.271324    27.790161 
 5178000    223.50657   -974.40217    263624.46   -28480.781    1808.8162   -30289.598   -3704.1079    6059.5692    78.394298    18.272395    27.794317 
 5178200    225.54579   -957.99911    263624.46    -28439.03    1825.3194    -30264.35   -3657.7862    6061.0333    78.394349    18.272671    27.790768 
 5178400    233.06083   -927.47787    263624.46   -28429.431    1886.1378   -30315.569   -3511.4691    6059.2145     78.39434    18.272853    27.791459 
 5178600    225.31476   -995.54906    263624.46   -28450.765    1823.4497   -30274.215   -3816.1582       6058.1     78.39433    18.273449    27.790579 
 5178800    227.91823    -1057.105    263624.46   -28411.645    1844.5193   -30256.165    -4087.923    6063.7033    78.394769    18.273709    27.791253 
 5179000    226.95659   -955.81623    263624.46   -28487.553    1836.7368    -30324.29   -3634.1484    6058.7531    78.394632     18.27276    27.789641 
 5179200    226.57629   -997.23226    263624.46   -28498.327    1833.6591   -30331.986    -3810.399    6060.2129      78.3934    18.273606    27.787897 
 5179400    230.94724   -960.86608    263624.46   -28376.632    1869.0327   -30245.665    -3625.421    6059.3649    78.393588    18.273836     27.78569 
 5179600    222.62286   -913.94925    263624.46   -28466.118    1801.6644   -30267.782   -3412.5884    6059.0862    78.392759    18.273072    27.785995 
 5179800    220.53643   -1000.1683    263624.46   -28493.452    1784.7791   -30278.231   -3794.6304    6059.3673    78.392425    18.272806    27.795297 
 5180000      219.333   -997.15715    263624.46   -28569.977    1775.0399   -30345.017   -3789.0811    6060.6421    78.392129    18.271643    27.791585 
 5180200    223.68536   -929.47451    263624.46   -28521.072    1810.2631   -30331.335   -3486.2672    6060.4255    78.391797    18.271347    27.791977 
 5180400    230.40075   -882.42991    263624.46   -28417.953    1864.6101   -30282.563    -3267.297    6057.3813    78.392475     18.27054    27.793304 
 5180600    229.89871   -925.15623    263624.46   -28442.583    1860.5471    -30303.13   -3482.1164     6060.969    78.393236     18.27046    27.788644 
 5180800    225.41896   -925.89504    263624.46   -28504.378     1824.293   -30328.671   -3469.6083     6059.917    78.392676    18.269473    27.795646 
 5181000    228.37844   -938.25448    263624.46   -28419.235    1848.2437   -30267.479   -3527.8659    6058.6789    78.392701    18.268481    27.794007 
 5181200    223.52151   -962.37498    263624.46   -28492.386    1808.9371   -30301.323   -3679.0438    6060.6794    78.392617     18.27044    27.790686 
 5181400    228.29233   -929.17078    263624.46   -28455.556    1847.5468   -30303.103   -3497.0052    6061.8442    78.392073    18.269259    27.789996 
 5181600    227.80091   -947.34219    263624.46   -28495.326    1843.5698   -30338.895   -3568.0138    6058.2896    78.393353    18.268836     27.78771 
 5181800    229.14209   -1039.0074    263624.46   -28425.797    1854.4238   -30280.221    -4003.061    6059.3097    78.393698    18.269216    27.790921 
 5182000    234.54882   -926.88385    263624.46   -28431.382      1898.18   -30329.562    -3498.112    6060.8579    78.393335    18.268206    27.787217 
 5182200    231.22835   -875.92629    263624.46   -28400.673    1871.3077    -30271.98   -3264.5052    6059.0863    78.393152    18.267378    27.792005 
 5182400    228.10477   -1022.6613    263624.46   -28479.772    1846.0289   -30325.801   -3900.7682    6058.3179    78.392762    18.267557    27.792901 
 5182600    228.67477   -933.95613    263624.46   -28467.939    1850.6419   -30318.581   -3536.8181    6059.8119    78.393867    18.266772    27.788921 
 5182800    228.41469   -962.36587    263624.46   -28437.374    1848.5371   -30285.911   -3645.3759    6062.4771    78.392749    18.265673    27.793401 
 5183000    230.57947   -930.70497    263624.46   -28381.761    1866.0565   -30247.817   -3511.8233    6057.4801    78.393549    18.265003    27.790277 
 5183200    225.13143   -1072.6673    263624.46   -28430.131     1821.966   -30252.097   -4160.5714    6061.8157      78.3941    18.266004    27.792551 
 5183400    220.21786   -963.88609    263624.46   -28531.277     1782.201   -30313.478   -3653.3488    6058.9439    78.393472    18.264807     27.79003 
 5183600    221.87814   -968.18349    263624.46    -28508.43    1795.6375   -30304.067   -3667.5364    6059.6102    78.394465    18.263704    27.788694 
 5183800    224.35969   -963.80827    263624.46   -28485.229    1815.7203   -30300.949   -3656.4353    6060.5994    78.394784     18.26278    27.791237 
 5184000    225.84439   -937.99771    263624.46   -28444.376    1827.7359   -30272.112   -3532.0332      6059.43    78.394875    18.261525    27.789546 
 5184200    227.47058   -946.87085    263624.46   -28439.774    1840.8965   -30280.671   -3570.9121    6061.0279    78.395245    18.259464    27.791178 
 5184400     223.7854   -849.01827    263624.46    -28445.41    1811.0727   -30256.482   -3130.2454    6057.9259    78.394961    18.258238    27.789105 
 5184600    225.20953   -947.00975    263624.46    -28450.49    1822.5981   -30273.088   -3560.6015    6060.0119    78.394805    18.257527    27.794014 
 5184800    226.33867   -999.93869    263624.46   -28456.672     1831.736   -30288.408   -3828.0134    6061.6371    78.395414    18.256113    27.788259 
 5185000    223.62073   -972.36065    263624.46   -28444.341      1809.74   -30254.081      -3692.4    6058.6285    78.396408    18.254695    27.794378 
 5185200    225.61914   -921.01611    263624.46   -28475.319     1825.913   -30301.232   -3447.8865    6058.6259    78.396845    18.253589    27.789376 
 5185400    228.92767   -947.84717    263624.46   -28443.287    1852.6886   -30295.976   -3602.1789    6058.2559    78.396535    18.252799    27.792524 
 5185600     225.7267   -1019.1171    263624.46   -28460.078    1826.7834   -30286.862   -3899.1956    6060.9078    78.397509    18.251567    27.793867 
 5185800    227.30207   -900.22338    263624.46   -28418.628    1839.5328   -30258.161   -3384.1055    6057.2211    78.397797     18.25063     27.78006 
 5186000    230.14845    -973.0966    263624.46   -28389.579    1862.5682   -30252.148   -3703.3087    6060.4237     78.39864    18.250185    27.789247 
 5186200    229.45271   -966.87711    263624.46   -28416.438    1856.9376   -30273.376   -3653.0464    6058.5389    78.399865    18.249265    27.783937 
 5186400    232.02511   -975.66096    263624.46   -28432.715    1877.7558    -30310.47   -3688.3115     6059.738    78.400852    18.248801    27.788223 
 5186600    228.44442   -977.25638    263624.46   -28454.342    1848.7777   -30303.119   -3693.6274    6057.7192    78.401021    18.249277    27.791732 
 5186800    235.93365   -914.66054    263624.46   -28372.792    1909.3873    -30282.18   -3426.2513    6058.8339    78.400857    18.248335    27.791851 
 5187000    239.78216   -1007.1209    263624.46   -28371.196    1940.5329   -30311.729   -3852.7462    6061.0151    78.401109    18.247605    27.790435 
 5187200    219.72974   -993.57904    263624.46   -28509.591    1778.2506   -30287.842   -3753.9208    6058.3174    78.401269    18.247716    27.790277 
 5187400    222.22014   -973.10542    263624.46   -28513.789    1798.4052   -30312.194   -3699.8913    6062.6582    78.400641    18.248692    27.794369 
 5187600    230.56205    -879.5277    263624.46   -28423.744    1865.9155    -30289.66   -3276.8103    6058.2346    78.400799    18.248539    27.796593 
 5187800     221.1319   -1005.0461    263624.46   -28457.308    1789.5982   -30246.907   -3870.9591    6062.8168    78.399878     18.24856    27.790943 
 5188000    227.76642   -948.83074    263624.46   -28362.272    1843.2907   -30205.563   -3601.9137    6057.9554    78.400871    18.248661    27.793261 
 5188200    226.95212   -943.11023    263624.46    -28388.48    1836.7006    -30225.18   -3568.2724    6059.7983    78.399522    18.247284    27.791671 
 5188400    229.01314   -930.46718    263624.46   -28445.082    1853.3803   -30298.463    -3504.342    6059.9295    78.399659    18.246019    27.788917 
 5188600    228.73917   -989.59733    263624.46   -28493.381     1851.163   -30344.544   -3760.9709    6060.5121    78.399623    18.244915    27.789571 
 5188800    225.78379    -980.8985    263624.46   -28466.601    1827.2455   -30293.847    -3757.533    6062.7624    78.399748     18.24429    27.788876 
 5189000    229.79349   -905.95874    263624.46   -28440.944    1859.6956   -30300.639   -3410.5496    6059.3123    78.400838    18.243555     27.79381 
 5189200    231.32916    -1031.627    263624.46   -28540.843    1872.1236   -30412.967   -3959.3898      6061.53    78.401952    18.244149    27.794539 
 5189400    227.34538   -879.16958    263624.46   -28476.214    1839.8833   -30316.098   -3297.8022    6058.4212    78.400933    18.245093    27.789009 
 5189600     227.4282     -957.877    263624.46   -28426.325    1840.5535   -30266.878   -3616.3123    6060.0526    78.400381    18.244475    27.793281 
 5189800    224.92302   -1027.2459    263624.46   -28477.818    1820.2793   -30298.098   -3961.1799    6061.0507    78.400533    18.243594    27.793522 
 5190000    231.63422   -914.14221    263624.46   -28465.713    1874.5924   -30340.305   -3450.1571    6058.0314    78.400661    18.243286    27.794118 
 5190200    225.05318   -1034.7858    263624.46   -28484.655    1821.3328   -30305.988   -3966.0227    6062.6795    78.399791    18.243422    27.788613 
 5190400     235.0146   -844.63936    263624.46   -28333.824    1901.9495   -30235.774   -3116.6704    6058.7312    78.400352    18.242926    27.789761 
 5190600    224.58177   -1039.4903    263624.46   -28448.325    1817.5176   -30265.843   -3999.7168    6061.6611    78.400689    18.243847    27.791264 
 5190800     229.6499    -925.3001    263624.46   -28449.534    1858.5335   -30308.067   -3488.4508    6058.0831    78.399847    18.243951    27.790424 
 5191000    226.95778   -925.19514    263624.46   -28474.295    1836.7465   -30311.042   -3486.7275     6059.466    78.399846    18.244727    27.795001 
 5191200    227.19965   -963.67189    263624.46   -28444.265    1838.7039   -30282.969   -3624.8689    6061.0282    78.399956    18.244253    27.787085 
 5191400     225.0371   -891.78673    263624.46   -28448.976    1821.2026   -30270.179   -3294.5845    6058.5548    78.400719    18.243419    27.791297 
 5191600    226.42661   -1015.7181    263624.46   -28480.302    1832.4478   -30312.749   -3895.7582    6060.1411    78.401101    18.243871     27.78423 
 5191800     230.0706   -907.15247    263624.46   -28373.736    1861.9382   -30235.674   -3426.6359    6062.5807    78.400978    18.243394     27.79094 
 5192000     228.2024   -957.84101    263624.46    -28375.34     1846.819   -30222.159   -3634.2945    6059.7763     78.40091    18.242582     27.79299 
 5192200    227.10047   -1003.9104    263624.46   -28439.534    1837.9013   -30277.435    -3834.741    6060.4161    78.400548    18.242928    27.785511 
 5192400     226.8315   -1049.7477    263624.46   -28420.894    1835.7245   -30256.619   -4080.7303    6062.1823    78.400958    18.241868    27.792273 
 5192600    221.50628    -909.1546    263624.46   -28494.638     1792.628   -30287.266   -3413.5667     6057.908    78.401358    18.242561    27.789749 
 5192800    229.76827   -1122.1445    263624.46   -28428.943    1859.4915   -30288.434   -4354.9658    6062.7327    78.402583    18.242286    27.788194 
 5193000    224.94351   -1000.7165    263624.46   -28475.306    1820.4451   -30295.751   -3820.9975    6060.4175    78.402244     18.24142    27.793304 
 5193200    230.59999   -916.33429    263624.46   -28416.377    1866.2225   -30282.599   -3432.7454    6058.2773    78.402709    18.241238     27.78899 
 5193400    224.00412   -1013.7486    263624.46   -28477.527    1812.8428    -30290.37   -3885.7174    6061.2686     78.40229    18.240727    27.793644 
 5193600    227.56961   -916.19129    263624.46   -28387.242     1841.698    -30228.94   -3455.0967     6057.252    78.401849    18.240736    27.791455 
 5193800    227.00229   -959.95322    263624.46   -28485.352    1837.1067   -30322.459   -3660.9142    6060.1401    78.401478    18.239749    27.793138 
 5194000    222.48413   -900.81929    263624.46   -28553.367    1800.5417   -30353.909   -3391.5744    6060.1615    78.402211    18.238793    27.790272 
 5194200    226.32776   -971.17157    263624.46   -28482.984    1831.6478   -30314.632   -3700.7235    6058.9969    78.402408    18.237839    27.796073 
 5194400    228.95442    -1072.077    263624.46   -28408.606    1852.9051   -30261.511   -4155.1144    6063.3747    78.403093     18.23594    27.793289 
 5194600    230.22549   -946.46805    263624.46   -28398.389    1863.1917   -30261.581   -3556.1289    6057.8215     78.40369     18.23472    27.794751 
 5194800    226.42098   -1005.8623    263624.46   -28399.025    1832.4022   -30231.428   -3821.6737     6061.484    78.403298    18.234092    27.794226 
 5195000    231.53586   -1007.8306    263624.46   -28421.897    1873.7964   -30295.693   -3864.3102    6060.3593    78.402745    18.233701    27.798312 
 5195200    229.41348   -976.22225    263624.46   -28403.058    1856.6202   -30259.678   -3708.4023    6060.1927    78.402874    18.233804    27.799438 
 5195400    229.84721    -1012.907    263624.46   -28394.044    1860.1303   -30254.175   -3874.0891    6061.3794    78.402817     18.23359     27.79928 
 5195600    221.92985   -843.67667    263624.46   -28475.749    1796.0559   -30271.805   -3132.6309    6058.7779    78.403071     18.23376    27.800953 
 5195800    234.23659   -960.36455    263624.46   -28338.441    1895.6531   -30234.094   -3652.3907    6060.4472    78.403302    18.231964    27.791461 
 5196000    230.21864   -938.16578    263624.46   -28423.548    1863.1363   -30286.684   -3556.1121    6060.2025     78.40234    18.231953    27.791779 
 5196200    228.63623   -950.44437    263624.46   -28425.203      1850.33   -30275.533   -3598.2486    6060.6908    78.401424    18.231083    27.792574 
 5196400    227.26998   -993.26636    263624.46   -28411.241    1839.2731   -30250.515   -3800.2108    6060.1177    78.401034    18.229928     27.79311 
 5196600    225.08648   -947.80415    263624.46   -28454.021    1821.6022   -30275.623   -3592.8864    6060.1214     78.40085    18.228833    27.799158 
 5196800    228.35347   -892.69925    263624.46    -28421.48    1848.0416   -30269.521   -3308.8568    6058.8085    78.399867    18.228769    27.793748 
 5197000    229.43635   -990.13205    263624.46    -28377.83    1856.8053   -30234.635   -3748.5218    6061.1724    78.400078    18.227268    27.798505 
 5197200     224.8728   -1012.0397    263624.46   -28431.309    1819.8729   -30251.182   -3862.7275    6061.1848     78.39999    18.225675     27.79197 
 5197400    230.67929   -908.61106    263624.46   -28415.395    1866.8643   -30282.259   -3423.3987    6058.4749    78.400384    18.223719     27.78915 
 5197600    226.30333   -1010.8526    263624.46    -28470.44    1831.4501    -30301.89   -3897.7213    6061.6747    78.399998    18.223728    27.796707 
 5197800    224.61073   -976.95302    263624.46   -28531.428     1817.752    -30349.18   -3702.3911    6058.9991    78.398501    18.222091    27.790743 
 5198000    229.50247   -970.62745    263624.46   -28404.367    1857.3404   -30261.707   -3664.8173    6060.7099    78.398574    18.221134    27.792821 
 5198200     229.7558    -966.3389    263624.46   -28397.613    1859.3906   -30257.004   -3693.7045     6059.202    78.398093    18.221587    27.790215 
 5198400    226.04372   -1007.2264    263624.46   -28480.644     1829.349   -30309.993   -3851.0775    6059.8418    78.397384    18.221038    27.786874 
 5198600    221.80686   -1042.7332    263624.46   -28515.235    1795.0606   -30310.296   -4024.1112    6060.5708    78.396989    18.221977    27.792755 
 5198800    227.87317   -875.70566    263624.46   -28452.063    1844.1546   -30296.218   -3285.0463    6055.6325    78.396372    18.222176     27.79718 
 5199000    227.14158   -903.93083    263624.46   -28371.833    1838.2339   -30210.067   -3395.9778    6061.9883    78.396625    18.222514    27.794806 
 5199200    229.27145   -984.40817    263624.46   -28432.069    1855.4708   -30287.539   -3739.8109    6058.2055    78.395899    18.221853     27.79957 
 5199400     226.4993   -930.11525    263624.46   -28463.054    1833.0361    -30296.09   -3488.2475    6057.0835    78.394927    18.222503    27.797385 
 5199600    226.84453    -1031.632    263624.46   -28433.769    1835.8299   -30269.599   -3914.9123    6058.0469    78.394486    18.223304     27.79829 
 5199800    227.01497    -926.7047    263624.46   -28422.412    1837.2093   -30259.621   -3468.2922    6057.2542    78.394548    18.222999    27.798082 
 5200000    226.86338   -934.32007    263624.46   -28426.723    1835.9825   -30262.705   -3489.2303     6059.477    78.395007    18.222454    27.792313 
Loop time of 15512.2 on 80 procs for 5200000 steps with 9436 atoms

Performance: 289.630 ns/day, 0.083 hours/ns, 335.220 timesteps/s
98.1% CPU use with 80 MPI tasks x no OpenMP threads

MPI task timing breakdown:
Section |  min time  |  avg time  |  max time  |%varavg| %total
---------------------------------------------------------------
Pair    | 0.27931    | 3637.6     | 13064      |7531.0 | 23.45
Neigh   | 0.45129    | 230.83     | 849.25     |1929.7 |  1.49
Comm    | 10.909     | 5107.7     | 13702      |6591.8 | 32.93
Output  | 171.38     | 171.48     | 173.52     |   1.8 |  1.11
Modify  | 261.95     | 6289.7     | 15276      |7971.4 | 40.55
Other   |            | 74.96      |            |       |  0.48

Nlocal:        117.950 ave         363 max           0 min
Histogram: 34 3 22 1 0 0 0 0 2 18
Nghost:        751.625 ave        1217 max           0 min
Histogram: 10 2 1 3 4 0 30 6 6 18
Neighs:         0.00000 ave           0 max           0 min
Histogram: 80 0 0 0 0 0 0 0 0 0
FullNghs:      11444.2 ave       43994 max           0 min
Histogram: 53 7 0 0 0 0 0 0 8 12

Total # of neighbors = 915540
Ave neighs/atom = 97.026282
Neighbor list builds = 554568
Dangerous builds = 0
write_data 		${DIR}/data.${NAME}_run
write_data 		run_17/data.${NAME}_run
write_data 		run_17/data.ibeam_cooling_17_run
System init for write_data ...
Total wall time: 4:19:05
