

### IMPORT ATOMS ###
read_data ../Box_Setup/data.Ibeam_240K
  orthogonal box = (0 0 0) to (157.504 40.4305 33.9212)
  10 by 4 by 4 MPI processor grid
  reading atoms ...
  9248 atoms
  reading velocities ...
  9248 velocities
group water type 2
1952 atoms in group water
group graphite type 1
7296 atoms in group graphite


# Define potential
#
pair_style          sw
pair_coeff * * MLC_e.sw C mW

# Add velocity/set timestep
#

fix		1 graphite setforce 0.0 0.0 0.0
velocity 	graphite set 0.0 0.0 0.0
velocity            water create ${START_TEMP} ${SEED} rot yes dist gaussian
velocity            water create 240 ${SEED} rot yes dist gaussian
velocity            water create 240 10776 rot yes dist gaussian
timestep            5.0

# Define output
#
compute 1 water msd
compute 2 water temp


thermo	            100
thermo_style custom step c_2 press vol etotal ke pe c_1[4] density

# Neighbor lists
#
neigh_modify        delay 0 every 1 check yes


# Set fixes
#
fix                 2 water momentum 10 linear 1 1 1 rescale
fix                 3 all nve
fix                 4 water temp/csvr ${START_TEMP} ${START_TEMP} 500.0 928347
fix                 4 water temp/csvr 240 ${START_TEMP} 500.0 928347
fix                 4 water temp/csvr 240 240 500.0 928347

# Run 0.05 ns equilibration
#
dump                1 all custom 100 ${DIR}/eq.${NAME}.dump id type x y z vx vy vz
dump                1 all custom 100 run_23/eq.${NAME}.dump id type x y z vx vy vz
dump                1 all custom 100 run_23/eq.ibeam_cooling_23.dump id type x y z vx vy vz
run                 10000
Neighbor list info ...
  update every 1 steps, delay 0 steps, check yes
  max neighbors/atom: 2000, page size: 100000
  master list distance cutoff = 6.67472
  ghost atom cutoff = 6.67472
  binsize = 3.33736, bins = 48 13 11
  1 neighbor lists, perpetual/occasional/extra = 1 0 0
  (1) pair sw, perpetual
      attributes: full, newton on
      pair build: full/bin/atomonly
      stencil: full/bin/3d
      bin: standard
Per MPI rank memory allocation (min/avg/max) = 0.4647 | 3.681 | 4.743 Mbytes
Step c_2 Press Volume TotEng KinEng PotEng c_1[4] Density 
       0          240   -299.33439    216009.12   -18704.344    1395.7345   -20100.079            0   0.94393226 
     100     234.9465     -300.992    216009.12   -18712.962    1366.3455   -20079.307   0.81641431   0.94393226 
     200    242.89175   -321.45921    216009.12   -18755.109    1412.5516    -20167.66    1.2651881   0.94393226 
     300    235.66248   -387.86354    216009.12   -18741.831    1370.5094    -20112.34    1.7224273   0.94393226 
     400    231.50558   -214.90052    216009.12    -18744.12    1346.3347   -20090.455    2.0702742   0.94393226 
     500    234.81856   -149.72499    216009.12   -18732.608    1365.6015   -20098.209    2.3378749   0.94393226 
     600    244.37629   -53.472249    216009.12   -18653.621    1421.1851   -20074.806    2.6864223   0.94393226 
     700    242.36456   -227.55191    216009.12   -18653.927    1409.4857   -20063.413    3.0809384   0.94393226 
     800     243.9869   -563.26385    216009.12   -18630.186    1418.9206   -20049.106    3.3783615   0.94393226 
     900    238.81249   -322.36063    216009.12   -18661.883    1388.8285   -20050.712    3.6956861   0.94393226 
    1000     238.4901   -329.98002    216009.12   -18704.225    1386.9536   -20091.179    4.0460421   0.94393226 
    1100    241.15342   -179.77575    216009.12   -18673.801    1402.4423   -20076.243    4.3400959   0.94393226 
    1200    241.88783   -341.20671    216009.12   -18672.122    1406.7133   -20078.835     4.456294   0.94393226 
    1300    250.41313   -135.20702    216009.12   -18642.627    1456.2927    -20098.92    4.6581532   0.94393226 
    1400    239.92911   -319.91445    216009.12   -18663.289    1395.3222   -20058.612    4.9178876   0.94393226 
    1500    243.99501   -178.59574    216009.12    -18690.03    1418.9677   -20108.997    5.4371793   0.94393226 
    1600    239.88327   -203.69815    216009.12   -18678.534    1395.0557    -20073.59    5.7128751   0.94393226 
    1700    238.80829   -273.27908    216009.12   -18675.031     1388.804   -20063.835    6.2214208   0.94393226 
    1800    246.02792   -302.49226    216009.12   -18647.645    1430.7902   -20078.435     6.485465   0.94393226 
    1900    243.06825   -456.98637    216009.12   -18599.209    1413.5781   -20012.787    6.9203382   0.94393226 
    2000    245.36738   -317.34884    216009.12   -18564.051    1426.9488       -19991    7.2466204   0.94393226 
    2100    234.70373   -231.43278    216009.12   -18645.193    1364.9337   -20010.127    7.6363433   0.94393226 
    2200    245.06369    -243.4629    216009.12   -18619.877    1425.1827    -20045.06    8.1889644   0.94393226 
    2300    246.55474   -218.52311    216009.12   -18606.787     1433.854   -20040.641    8.5790237   0.94393226 
    2400    241.93408    -217.8798    216009.12   -18595.053    1406.9823   -20002.035    8.9212757   0.94393226 
    2500    239.98747   -384.60415    216009.12   -18605.478    1395.6616   -20001.139    9.2597267   0.94393226 
    2600    238.43698   -322.48823    216009.12    -18601.39    1386.6446   -19988.035    9.5472662   0.94393226 
    2700    242.90932   -342.55804    216009.12   -18603.665    1412.6538   -20016.319    9.9378053   0.94393226 
    2800    242.32459    -282.6431    216009.12    -18549.49    1409.2533   -19958.743    10.184632   0.94393226 
    2900     245.6916   -280.62219    216009.12   -18565.133    1428.8343   -19993.967    10.265691   0.94393226 
    3000    241.08303   -217.30706    216009.12   -18562.938    1402.0329   -19964.971    10.589179   0.94393226 
    3100    245.13265   -305.02325    216009.12   -18559.613    1425.5837   -19985.197    10.884944   0.94393226 
    3200    231.59774   -455.21485    216009.12   -18614.327    1346.8706   -19961.198      11.2389   0.94393226 
    3300    236.11886   -412.48109    216009.12   -18680.965    1373.1635   -20054.129    11.729306   0.94393226 
    3400    239.88824   -209.72905    216009.12   -18627.017    1395.0845   -20022.101    12.092854   0.94393226 
    3500    241.00334   -196.84421    216009.12   -18623.264    1401.5695   -20024.834     12.46603   0.94393226 
    3600    236.82181   -254.38762    216009.12   -18620.909    1377.2515    -19998.16    12.880314   0.94393226 
    3700    242.35394   -213.40571    216009.12   -18603.827     1409.424   -20013.251    13.415267   0.94393226 
    3800    241.09998     -421.168    216009.12   -18583.597    1402.1315   -19985.729    13.758125   0.94393226 
    3900    238.95347   -394.13301    216009.12   -18586.177    1389.6483   -19975.825    14.297855   0.94393226 
    4000    238.27649   -464.36866    216009.12   -18624.535    1385.7113   -20010.246    14.713152   0.94393226 
    4100    233.49555   -357.10936    216009.12   -18608.282    1357.9075    -19966.19    15.048959   0.94393226 
    4200    243.47911   -365.63218    216009.12   -18593.259    1415.9675   -20009.227    15.389665   0.94393226 
    4300    238.23732   -324.73421    216009.12   -18649.171    1385.4835   -20034.655    15.672749   0.94393226 
    4400    239.34683   -214.50945    216009.12   -18614.272    1391.9359   -20006.208    15.911555   0.94393226 
    4500    235.92715   -222.19201    216009.12   -18652.028    1372.0486   -20024.076    16.041769   0.94393226 
    4600     234.2663   -222.92426    216009.12   -18712.359    1362.3898   -20074.749    16.162238   0.94393226 
    4700    240.74954   -363.53552    216009.12    -18633.91    1400.0935   -20034.004    16.509191   0.94393226 
    4800    243.54607   -187.89669    216009.12   -18613.417    1416.3569   -20029.774    16.997792   0.94393226 
    4900    237.23866   -293.44653    216009.12   -18571.759    1379.6758   -19951.435     17.58838   0.94393226 
    5000    238.64749   -438.55099    216009.12   -18620.723    1387.8689   -20008.591    18.098141   0.94393226 
    5100    245.02826   -309.80513    216009.12   -18610.215    1424.9766   -20035.191    18.603539   0.94393226 
    5200    238.66921   -315.74181    216009.12   -18644.304    1387.9952     -20032.3    19.307123   0.94393226 
    5300    227.51199    -298.2581    216009.12   -18700.557    1323.1097   -20023.667    19.731809   0.94393226 
    5400    235.11485   -329.19019    216009.12   -18682.846    1367.3246    -20050.17    20.051706   0.94393226 
    5500    236.05245   -366.39433    216009.12   -18663.476    1372.7773   -20036.253    20.442679   0.94393226 
    5600    239.16926   -352.46212    216009.12   -18693.729    1390.9033   -20084.632      20.6046   0.94393226 
    5700    240.00724   -231.26061    216009.12   -18650.344    1395.7766   -20046.121    20.845342   0.94393226 
    5800    236.08118   -175.02841    216009.12   -18645.877    1372.9443   -20018.822    21.168837   0.94393226 
    5900    240.11904   -252.93812    216009.12   -18677.652    1396.4268   -20074.079    21.468159   0.94393226 
    6000    236.29657   -447.45419    216009.12   -18677.052     1374.197   -20051.249    21.891944   0.94393226 
    6100     229.6797   -375.60325    216009.12   -18691.315    1335.7161   -20027.031    22.257601   0.94393226 
    6200    240.24848   -388.30503    216009.12    -18687.75    1397.1796   -20084.929    22.637571   0.94393226 
    6300     236.9988   -314.37469    216009.12   -18629.908    1378.2808   -20008.189    23.108233   0.94393226 
    6400    242.00084   -358.54288    216009.12   -18663.706    1407.3705   -20071.077    23.300146   0.94393226 
    6500    235.72999   -264.77643    216009.12   -18675.439     1370.902   -20046.341    23.594192   0.94393226 
    6600    237.29268   -461.61351    216009.12   -18701.494    1379.9899   -20081.484    23.708919   0.94393226 
    6700    231.58713   -341.45336    216009.12   -18710.641    1346.8089    -20057.45    24.052755   0.94393226 
    6800    236.99035   -395.07186    216009.12   -18698.753    1378.2317   -20076.985     24.40446   0.94393226 
    6900    236.00118   -330.57213    216009.12   -18664.098    1372.4791   -20036.577    24.377378   0.94393226 
    7000    237.89604   -44.573013    216009.12   -18657.279    1383.4988   -20040.778    24.680482   0.94393226 
    7100    239.50885   -167.74919    216009.12   -18653.778    1392.8782   -20046.657    25.162572   0.94393226 
    7200    239.93397   -213.39536    216009.12   -18690.796    1395.3505   -20086.146    25.155042   0.94393226 
    7300    229.20433   -334.50043    216009.12   -18712.018    1332.9516   -20044.969    25.561397   0.94393226 
    7400    236.02091   -303.46552    216009.12   -18682.648    1372.5939   -20055.242    25.750803   0.94393226 
    7500    237.91138   -398.81347    216009.12   -18657.839     1383.588   -20041.427    26.035094   0.94393226 
    7600    235.95151   -254.77739    216009.12   -18617.858    1372.1902   -19990.048    26.291456   0.94393226 
    7700    245.35329   -241.24783    216009.12   -18623.455    1426.8669   -20050.322    26.277637   0.94393226 
    7800    236.26231   -356.30865    216009.12   -18687.226    1373.9977   -20061.224    26.458829   0.94393226 
    7900    236.37866   -263.74779    216009.12    -18656.77    1374.6744   -20031.445    26.585987   0.94393226 
    8000    247.41095   -186.93646    216009.12   -18613.293    1438.8333   -20052.126     27.04307   0.94393226 
    8100    241.68694   -361.83425    216009.12    -18610.57     1405.545   -20016.115    27.345008   0.94393226 
    8200    245.08362   -314.63459    216009.12   -18630.265    1425.2986   -20055.564    27.531617   0.94393226 
    8300    240.39047   -343.27074    216009.12   -18603.577    1398.0053   -20001.582    27.940092   0.94393226 
    8400    242.11943   -166.44731    216009.12   -18579.214    1408.0602   -19987.274    28.363566   0.94393226 
    8500    242.89665    -375.0401    216009.12   -18616.774    1412.5802   -20029.354    28.583231   0.94393226 
    8600    242.44647    -265.8889    216009.12   -18645.044    1409.9621   -20055.006    28.625034   0.94393226 
    8700    239.86389   -234.30733    216009.12   -18660.342    1394.9429   -20055.285    29.023565   0.94393226 
    8800    237.64721   -391.68335    216009.12   -18661.148    1382.0517     -20043.2    29.527259   0.94393226 
    8900    232.30238   -416.19141    216009.12   -18681.771    1350.9685    -20032.74    29.868022   0.94393226 
    9000    243.37421   -338.35149    216009.12   -18637.245    1415.3574   -20052.602    30.324536   0.94393226 
    9100    242.21247   -260.64295    216009.12   -18660.246    1408.6012   -20068.847    30.438671   0.94393226 
    9200    242.24878    -328.8349    216009.12   -18608.255    1408.8124   -20017.067    30.573846   0.94393226 
    9300    241.68087   -269.59566    216009.12   -18655.973    1405.5097   -20061.483    30.717738   0.94393226 
    9400    240.11248   -219.81862    216009.12   -18645.425    1396.3886   -20041.814    31.126415   0.94393226 
    9500     234.9822    -326.2844    216009.12   -18686.742    1366.5532   -20053.296     31.10105   0.94393226 
    9600    232.94771    -330.1116    216009.12   -18698.021    1354.7215   -20052.743    31.274539   0.94393226 
    9700    242.40051   -264.14347    216009.12   -18656.038    1409.6948   -20065.732    31.285604   0.94393226 
    9800    242.52206   -233.87584    216009.12   -18612.691    1410.4017   -20023.093    31.475933   0.94393226 
    9900    242.99307   -236.18273    216009.12   -18633.384    1413.1409   -20046.525    31.601317   0.94393226 
   10000     236.4044   -205.90239    216009.12       -18640     1374.824   -20014.824    31.801354   0.94393226 
Loop time of 14.6906 on 160 procs for 10000 steps with 9248 atoms

Performance: 294.065 ns/day, 0.082 hours/ns, 680.707 timesteps/s
97.7% CPU use with 160 MPI tasks x no OpenMP threads

MPI task timing breakdown:
Section |  min time  |  avg time  |  max time  |%varavg| %total
---------------------------------------------------------------
Pair    | 0.00044966 | 3.0068     | 11.975     | 238.8 | 20.47
Neigh   | 0.00031686 | 0.095366   | 0.36199    |  39.3 |  0.65
Comm    | 0.013915   | 3.6504     | 11.989     | 220.8 | 24.85
Output  | 0.17595    | 0.17612    | 0.18282    |   0.1 |  1.20
Modify  | 0.34608    | 7.5978     | 14.344     | 222.1 | 51.72
Other   |            | 0.1641     |            |       |  1.12

Nlocal:    57.8 ave 196 max 0 min
Histogram: 72 25 23 0 0 0 0 0 13 27
Nghost:    534.725 ave 924 max 0 min
Histogram: 24 0 0 8 7 43 30 15 21 12
Neighs:    0 ave 0 max 0 min
Histogram: 160 0 0 0 0 0 0 0 0 0
FullNghs:  5913.54 ave 23595 max 0 min
Histogram: 102 18 0 0 0 0 0 1 20 19

Total # of neighbors = 946166
Ave neighs/atom = 102.31
Neighbor list builds = 570
Dangerous builds = 0
write_data 	    ${DIR}/data.${NAME}_eq
write_data 	    run_23/data.${NAME}_eq
write_data 	    run_23/data.ibeam_cooling_23_eq

undump              1
unfix               4



################################################
#######         Run Simulation         #########
################################################

reset_timestep      0
timestep	    10.0
log                 ${DIR}/log.run_${NAME}
log                 run_23/log.run_${NAME}
log                 run_23/log.run_ibeam_cooling_23
