
# Set production fixes - Nose/Hoover
#
fix                 4 water temp/csvr ${START_TEMP} ${END_TEMP} 500.0 928347
fix                 4 water temp/csvr 240 ${END_TEMP} 500.0 928347
fix                 4 water temp/csvr 240 227 500.0 928347


## divide "droplet" into core and surface
#region		core_reg cylinder z 135 135 44.6 20 INF units box
#region		surface_reg cylinder z 135 135 44.6 20 INF units box side out
#group		core dynamic all region core_reg
#group		surface dynamic all region surface_reg

## compute pressure core
#compute        peratom_core core stress/atom NULL
#compute        p_core core reduce sum c_peratom_core[1] c_peratom_core[2] c_peratom_core[3]
#variable       press_core equal -(c_p_core[1]+c_p_core[2]+c_p_core[3])/(3*1249982.5)


## compute pressure surface
#compute        peratom_surf surface stress/atom NULL
#compute        p_surf surface reduce sum c_peratom_surf[1] c_peratom_surf[2] #c_peratom_surf[3]
#variable       press_surf equal -(c_p_surf[1]+c_p_surf[2]+c_p_surf[3])/(3*42395)

## compute total pressure of drop
compute        peratom water stress/atom NULL
compute        p water reduce sum c_peratom[1] c_peratom[2] c_peratom[3]
variable       press equal -(c_p[1]+c_p[2]+c_p[3])/(3*50320)


# compute order parameter
compute        3 all orientorder/atom nnn NULL cutoff 3.5

# compute center of mass of bridge
compute 	4 water com

# Run simulation
thermo_style        custom step c_2 press vol etotal ke pe v_press c_1[4] c_4[*]
thermo              200
dump		     1 water custom 400 ${DIR}/prod.${NAME}.dump id type x y z vx vy vz c_3[*] c_peratom[*]
dump		     1 water custom 400 run_23/prod.${NAME}.dump id type x y z vx vy vz c_3[*] c_peratom[*]
dump		     1 water custom 400 run_23/prod.ibeam_cooling_23.dump id type x y z vx vy vz c_3[*] c_peratom[*]
run                 ${STEPS}
run                 5200000
Neighbor list info ...
  update every 1 steps, delay 0 steps, check yes
  max neighbors/atom: 2000, page size: 100000
  master list distance cutoff = 6.67472
  ghost atom cutoff = 6.67472
  binsize = 3.33736, bins = 48 13 11
  2 neighbor lists, perpetual/occasional/extra = 1 1 0
  (1) pair sw, perpetual
      attributes: full, newton on
      pair build: full/bin/atomonly
      stencil: full/bin/3d
      bin: standard
  (2) compute orientorder/atom, occasional, copy from (1)
      attributes: full, newton on
      pair build: copy
      stencil: none
      bin: none
Per MPI rank memory allocation (min/avg/max) = 0.8532 | 5.962 | 7.262 Mbytes
Step c_2 Press Volume TotEng KinEng PotEng v_press c_1[4] c_4[1] c_4[2] c_4[3] 
       0     236.4044   -205.90239    216009.12       -18640     1374.824   -20014.824   -315.79518    31.801354    78.747876    22.595803    25.574646 
     200    235.02265   -546.30027    216009.12   -18683.094    1366.7884   -20049.882   -1745.8016     33.81559    78.747936    22.595582    25.594702 
     400    235.26116    -382.2446    216009.12   -18660.126    1368.1755   -20028.301   -1065.5452    35.210233    78.745984    22.594347    25.588473 
     600    250.05884   -270.37803    216009.12   -18530.885    1454.2323   -19985.117   -562.89002    36.431801    78.748164    22.590703    25.591949 
     800    248.76977   -407.62117    216009.12   -18548.946    1446.7356   -19995.682   -1166.6646    37.590028    78.752259    22.590517    25.610843 
    1000     236.1936   -442.24488    216009.12   -18647.536    1373.5981   -20021.134   -1318.0432    39.214243    78.751845    22.588656     25.58671 
    1200    242.23383   -367.62354    216009.12   -18577.453    1408.7255   -19986.178   -1025.5452    40.637067     78.75281    22.590781     25.60241 
    1400    246.77629   -270.70794    216009.12   -18601.969    1435.1424   -20037.111   -545.32083    41.933248    78.752159    22.590853    25.608026 
    1600    238.46121   -455.54813    216009.12   -18628.878    1386.7856   -20015.663   -1365.7279    43.011492    78.752597    22.589465    25.632645 
    1800    240.51979   -357.36543    216009.12   -18594.951    1398.7573   -19993.708   -948.15437    44.051968    78.751242    22.591271    25.643344 
    2000    244.54231   -315.92092    216009.12   -18528.561    1422.1506   -19950.712   -761.75966    45.151569    78.752201    22.592785    25.641196 
    2200    239.46156   -364.45145    216009.12   -18619.786    1392.6031   -20012.389   -1004.0243    46.064505    78.751006    22.593303    25.680408 
    2400    239.72943   -403.55683    216009.12   -18591.497     1394.161   -19985.658   -1143.1824    47.369059    78.752719    22.594197    25.693446 
    2600    243.78571   -206.38713    216009.12   -18595.096    1417.7506   -20012.846   -275.96247    48.948187    78.752252    22.594661    25.715193 
    2800    244.81333   -213.31913    216009.12   -18530.864    1423.7267    -19954.59   -329.83092    50.272838    78.753745    22.595411    25.697297 
    3000    240.13575   -350.49187    216009.12   -18543.162     1396.524   -19939.685   -884.14772       51.894    78.752084    22.596493    25.703615 
    3200    232.73507   -338.37321    216009.12   -18588.815    1353.4849   -19942.299   -830.34662    54.136809    78.751973    22.595817     25.69483 
    3400     238.9119   -318.62128    216009.12   -18552.406    1389.4066   -19941.812   -754.53331    55.237014    78.751179    22.596526    25.714108 
    3600     240.8151   -358.67255    216009.12   -18542.271    1400.4748   -19942.745   -941.73303    56.615284    78.752153    22.595894    25.748236 
    3800    241.32683   -300.51767    216009.12   -18525.405    1403.4507   -19928.856   -692.73425    57.887793    78.752048    22.596057    25.734624 
    4000    240.38856   -107.18182    216009.12   -18603.348    1397.9942   -20001.342    108.00621    59.520539    78.751503    22.597234    25.720472 
    4200     240.0633   -276.32912    216009.12   -18554.762    1396.1026   -19950.864    -602.7817    60.633965    78.750048    22.596179    25.723472 
    4400    242.49958   -330.90372    216009.12    -18580.22     1410.271   -19990.491   -836.76511    62.623523    78.748709    22.594911    25.706109 
    4600    233.25571   -241.23966    216009.12   -18697.279    1356.5126   -20053.792   -409.64525    64.045958    78.747928    22.594225    25.695619 
    4800    244.45276   -346.48959    216009.12    -18587.22    1421.6298    -20008.85   -885.03593    65.204452    78.747442    22.595399    25.686915 
    5000    240.04089   -240.27569    216009.12   -18644.625    1395.9723   -20040.597   -390.63526    67.110833    78.747707    22.597834    25.695169 
    5200    235.66272   -208.37034    216009.12   -18631.998    1370.5108   -20002.508   -317.08995    68.698951      78.7462    22.597024    25.651482 
    5400    241.30617   -312.82111    216009.12   -18664.252    1403.3306   -20067.583   -780.19691    69.721556    78.747263    22.596608    25.643554 
    5600    237.73288   -211.02031    216009.12   -18682.017    1382.5499   -20064.567   -335.62386    70.972131    78.747571    22.597801    25.664664 
    5800    242.34815   -240.30123    216009.12    -18641.58    1409.3903    -20050.97   -454.36034    71.661317    78.747641    22.598496    25.668964 
    6000    239.60256   -358.48708    216009.12   -18634.364    1393.4231   -20027.788   -931.68577    72.627252    78.747188    22.600552    25.665515 
    6200    239.60809   -211.92427    216009.12   -18646.326    1393.4553   -20039.781    -351.3898    73.497551    78.746285    22.599922    25.655809 
    6400    242.49638   -378.00888    216009.12   -18602.357    1410.2524    -20012.61   -1055.3727    74.699054     78.74757    22.601161    25.640577 
    6600    238.29792   -263.47908    216009.12   -18628.628     1385.836   -20014.464   -495.66255    75.638758    78.746806    22.601389    25.625743 
    6800    236.29955   -425.35232    216009.12   -18627.622    1374.2143   -20001.837    -1241.947    76.338066    78.748756    22.597872    25.585461 
    7000    239.52447   -417.39516    216009.12   -18593.549     1392.969   -19986.518   -1190.7908     76.14612    78.747698    22.599765    25.573705 
    7200    230.13913   -401.44016    216009.12   -18686.419     1338.388   -20024.807   -1120.5463    77.609813    78.746547    22.601255    25.558802 
    7400    233.85456   -460.42918    216009.12   -18661.389    1359.9953   -20021.384   -1414.9667    79.064039    78.749686    22.603559    25.546546 
    7600    245.55269   -176.54625    216009.12   -18591.799    1428.0265   -20019.826   -184.64739    80.534296    78.752547    22.603573    25.529739 
    7800    234.50425   -491.54598    216009.12   -18707.753    1363.7736   -20071.526   -1482.1575    81.662252    78.753856    22.604765    25.528804 
    8000    242.79527   -217.38795    216009.12   -18602.947    1411.9906   -20014.938   -373.81549    82.780761    78.753336    22.606187     25.50885 
    8200    244.06645   -373.81175    216009.12   -18614.308    1419.3832   -20033.691   -1003.1272     84.01447    78.753184    22.604061    25.502103 
    8400    238.51149   -486.56236    216009.12   -18579.301     1387.078   -19966.379   -1517.3167    86.692318    78.754904    22.603904    25.491187 
    8600    237.48584   -311.36346    216009.12   -18632.305    1381.1133   -20013.418   -779.09222    86.717054     78.75373    22.606994    25.507421 
    8800    249.62829   -421.16116    216009.12   -18662.793    1451.7284   -20114.522   -1246.7118    86.820869    78.754052    22.608807    25.516152 
    9000    233.61296   -351.80886    216009.12   -18661.097    1358.5903   -20019.687   -907.00058    88.975835    78.752509     22.60808    25.503346 
    9200    242.34661   -496.22831    216009.12   -18634.352    1409.3814   -20043.733   -1566.6863    89.924866    78.748968    22.605718    25.504783 
    9400    242.72269   -417.00049    216009.12   -18661.014    1411.5685   -20072.583   -1184.5112    89.871318    78.750442    22.603225    25.495677 
    9600    235.76505   -355.18941    216009.12   -18704.217    1371.1059   -20075.323   -967.81305    91.243845    78.749477    22.605876    25.518914 
    9800    235.19035     -196.616    216009.12   -18585.155    1367.7637   -19952.919   -237.62875    92.278901    78.750487    22.603371    25.502068 
   10000    235.98633   -383.47498    216009.12   -18627.025    1372.3927   -19999.418   -1084.4957    94.128784    78.754366    22.605836    25.464806 
   10200    242.68081   -378.33602    216009.12   -18565.483    1411.3249   -19976.807   -1023.1932    94.701863    78.756815    22.608455    25.466504 
   10400    247.13059   -295.25571    216009.12   -18571.902    1437.2029   -20009.105    -682.7233    96.331047    78.757364     22.60811    25.460454 
   10600    236.27719   -346.32966    216009.12   -18659.124    1374.0843   -20033.208   -907.60867    98.660978    78.759689    22.608594    25.450693 
   10800    240.48218   -308.31533    216009.12   -18690.566    1398.5387   -20089.104   -727.56039    98.901717    78.761295    22.610012    25.477328 
   11000    237.06652   -109.47402    216009.12   -18706.844    1378.6747   -20085.519    89.291643    100.29943    78.759627    22.609842    25.459786 
   11200    235.49616   -324.62501    216009.12   -18676.389    1369.5421   -20045.931   -767.44906    101.48433    78.758707    22.607518     25.47728 
   11400    242.14923   -271.40313    216009.12   -18667.816    1408.2335   -20076.049   -603.43192    101.78151     78.76125    22.608033    25.469333 
   11600    238.48575   -209.87889    216009.12   -18576.992    1386.9283    -19963.92     -287.619    103.40762    78.763115    22.610492    25.476461 
   11800    243.03517    -123.0179    216009.12   -18562.408    1413.3857   -19975.794    44.241171     104.6434     78.76213    22.611105    25.500867 
   12000    239.84363   -233.11666    216009.12   -18567.244    1394.8251   -19962.069   -428.68659    106.35132    78.759967    22.612478    25.478851 
   12200    240.49148   -290.82623    216009.12   -18559.924    1398.5927   -19958.516   -652.25462    107.10855    78.758966    22.611217    25.488945 
   12400    238.37057   -298.06933    216009.12   -18576.366    1386.2585   -19962.624   -729.75643    108.06432    78.761612    22.611913    25.485228 
   12600    240.38164   -271.29119    216009.12   -18535.614     1397.954   -19933.568   -611.50851    109.61014    78.763033     22.61239    25.500371 
   12800    240.54599   -325.79808    216009.12    -18564.96    1398.9097    -19963.87     -814.991    111.53132    78.764578    22.614083    25.506636 
   13000     244.6277    -428.6572    216009.12   -18639.911    1422.6472   -20062.558   -1234.6947    113.02213    78.765572    22.614453    25.500676 
   13200    234.57911   -174.70218    216009.12   -18652.236     1364.209   -20016.445   -172.46741    113.65335    78.766148    22.614306    25.495393 
   13400      232.005   -351.68147    216009.12   -18716.472    1349.2391   -20065.711   -883.36452    114.41715    78.766313     22.61512    25.525168 
   13600    232.56867   -280.50198    216009.12   -18642.181    1352.5171   -19994.698   -605.59322    115.60699    78.766441    22.614717    25.518291 
   13800    239.67462   -342.69087    216009.12   -18547.081    1393.8422   -19940.923   -889.67113    117.84235    78.766776    22.613923     25.49299 
   14000    246.78047    -378.3731    216009.12    -18493.03    1435.1667   -19928.197   -1029.2632    118.59148    78.767933     22.61507    25.490822 
   14200    241.05816   -332.50997    216009.12   -18548.892    1401.8883    -19950.78   -822.68971    119.68098    78.765752    22.615615    25.494802 
   14400    239.04784   -157.85275    216009.12   -18615.924    1390.1971   -20006.121   -94.241213    120.52971    78.764623    22.613679    25.499319 
   14600    240.50407   -291.60186    216009.12   -18620.363    1398.6659   -20019.029   -683.78116    121.70708    78.766836    22.614166     25.54324 
   14800    239.64702   -197.23844    216009.12   -18585.511    1393.6817   -19979.192   -227.91553    123.45637     78.76783    22.614963    25.563181 
   15000    242.86087   -479.58556    216009.12   -18591.098    1412.3721    -20003.47   -1479.6755    124.32559    78.767605    22.613525    25.569639 
   15200    240.44788   -158.22953    216009.12   -18545.022    1398.3392   -19943.361   -55.216595     125.8996    78.767091    22.612816    25.545454 
   15400    234.93323   -195.00129    216009.12   -18608.861    1366.2684   -19975.129    -238.0057    126.84461    78.765806    22.609433    25.548496 
   15600    248.11061   -311.12003    216009.12   -18474.597    1442.9022   -19917.499   -755.58446    127.72876    78.764445    22.610781     25.55471 
   15800    250.67096   -256.98585    216009.12   -18516.508    1457.7921     -19974.3   -498.88746    128.79989    78.764463    22.610642    25.557272 
   16000    234.33516    -372.8354    216009.12   -18553.915    1362.7903   -19916.705    -1005.211    130.04429    78.761858    22.609403    25.563352 
   16200     235.3665   -209.68019    216009.12   -18523.304    1368.7881   -19892.092   -290.89157    132.11832    78.762415    22.607853    25.576594 
   16400    237.18285   -307.98846    216009.12   -18558.166    1379.3512   -19937.517   -716.16252    134.06058    78.762258    22.609442    25.578148 
   16600    247.72677   -344.60065    216009.12   -18498.215      1440.67   -19938.885   -852.47803    135.03232    78.763087    22.610604     25.57448 
   16800    235.95873   -332.17541    216009.12   -18539.086    1372.2323   -19911.318    -798.2126    137.34381    78.761199     22.61031    25.568952 
   17000    234.93192    -427.3144    216009.12   -18610.559    1366.2608    -19976.82   -1208.6461    140.62773    78.761904    22.608788    25.572967 
   17200    233.46972   -375.25956    216009.12   -18586.798    1357.7573   -19944.555   -1055.1469    142.77777    78.762821    22.606547     25.56566 
   17400    237.14023   -295.81678    216009.12   -18642.583    1379.1033   -20021.686   -660.95939    144.09561    78.764945    22.606651    25.556174 
   17600    236.54037   -183.38314    216009.12   -18610.019    1375.6148   -19985.634   -194.58651     145.6651    78.766162    22.607051    25.564354 
   17800    232.57895   -327.40686    216009.12   -18603.037    1352.5769   -19955.614    -783.5744     146.5523    78.767861    22.607392    25.580886 
   18000    243.43656   -463.17787    216009.12   -18589.268      1415.72   -20004.988    -1397.973     149.0852      78.7701    22.605997    25.599284 
   18200    232.61042   -337.07723    216009.12   -18595.365      1352.76   -19948.125   -887.36816    150.20398    78.771113    22.605024    25.578602 
   18400    238.70876   -426.38681    216009.12   -18569.408    1388.2252   -19957.634   -1237.6046    150.97853    78.770229    22.604545    25.605153 
   18600    244.16483   -297.96153    216009.12   -18558.298    1419.9553   -19978.253   -700.44323    152.00245     78.76995    22.605408    25.596839 
   18800    235.19723    -286.4181    216009.12   -18622.642    1367.8037   -19990.446   -584.81479    152.46409    78.772047    22.604627    25.594102 
   19000      244.223   -348.78371    216009.12   -18562.947    1420.2936    -19983.24   -880.14592    153.91565    78.771043    22.603616    25.617464 
   19200    240.04417    -290.3896    216009.12   -18603.208    1395.9913     -19999.2   -631.68385    154.84055    78.772357    22.600986    25.622454 
   19400    243.84561    -404.5735    216009.12   -18527.117    1418.0989   -19945.216   -1110.3377    155.54221    78.772111    22.598033    25.611973 
   19600    236.65466   -220.39611    216009.12   -18553.697    1376.2795   -19929.976   -337.21142    156.71086    78.771958    22.597944    25.586343 
   19800    244.36886   -240.13383    216009.12   -18526.812    1421.1419   -19947.954   -446.10418     157.9031     78.77439     22.59675    25.606998 
   20000    242.12587   -494.57627    216009.12    -18586.58    1408.0976   -19994.677   -1532.2146    159.69011     78.77555    22.598648    25.622619 
   20200    245.26418   -200.93275    216009.12    -18675.46    1426.3487   -20101.808   -281.86402    160.18761    78.773711    22.597182    25.635114 
   20400    246.48092   -373.06759    216009.12   -18562.526    1433.4247   -19995.951   -996.79146    162.16616    78.773061    22.596287    25.634248 
   20600    236.59344   -108.64398    216009.12   -18650.148    1375.9235   -20026.071    105.29588      163.067    78.774707    22.596089    25.633833 
   20800    246.87909   -281.66234    216009.12   -18589.361    1435.7403   -20025.101   -589.18416    164.22527    78.775084    22.595582    25.637239 
   21000    240.15652   -272.62749    216009.12   -18593.502    1396.6448   -19990.147   -571.49348    166.38086    78.775965    22.594959    25.646874 
   21200    239.44818   -138.27169    216009.12    -18561.06    1392.5254   -19953.585     33.84679    167.17809    78.775074    22.594226    25.631904 
   21400    235.90906   -119.80708    216009.12   -18573.047    1371.9434   -19944.991    82.711023    169.25515    78.777242    22.593244    25.648521 
   21600     249.5702   -213.59229    216009.12    -18499.16    1451.3906    -19950.55   -340.23276    169.16109    78.778376    22.592709    25.652503 
   21800    237.71664    -291.2239    216009.12   -18598.266    1382.4555   -19980.721   -611.46458    169.28634     78.77794     22.59232    25.664047 
   22000    235.06296   -375.43889    216009.12    -18615.67    1367.0228   -19982.693   -984.36788    170.98009    78.775592    22.591642    25.696786 
   22200    232.61652   -443.91457    216009.12   -18592.886    1352.7954   -19945.682   -1285.1508    173.80408    78.774375    22.588957    25.711902 
   22400    244.78005   -364.87362    216009.12   -18506.372    1423.5332   -19929.905   -976.93689     176.3407    78.773166    22.591016    25.714016 
   22600    242.25303   -213.57483    216009.12   -18534.841    1408.8371   -19943.678    -330.7236    178.09728    78.773539     22.58953     25.68897 
   22800    249.77621   -259.69678    216009.12   -18525.701    1452.5886   -19978.289   -519.37581     179.9462     78.77229    22.589427    25.710249 
   23000    237.36799   -353.74523    216009.12   -18590.804    1380.4279   -19971.232   -934.35046    181.80274    78.771191    22.589756    25.729674 
   23200    247.89654   -456.25649    216009.12   -18535.368    1441.6573   -19977.025   -1354.6583      181.811    78.769815    22.589947    25.764471 
   23400    240.02261    -240.7982    216009.12    -18555.96     1395.866   -19951.826   -428.83148     181.8436     78.76742    22.590808    25.749219 
   23600    241.34823   -324.12798    216009.12   -18502.378    1403.5752   -19905.953    -790.6056    182.79485    78.765401    22.588837    25.750679 
   23800    244.36272    -325.2835    216009.12   -18516.533    1421.1062   -19937.639   -800.25923     182.0733    78.764708    22.588967    25.757737 
   24000    244.18584    -403.5184    216009.12   -18538.376    1420.0775   -19958.454   -1113.4936    185.33151    78.764732    22.591718    25.740902 
   24200    237.65703   -244.80089    216009.12   -18541.941    1382.1088    -19924.05   -449.39955    187.04189    78.761716    22.595157    25.732992 
   24400    235.26563   -457.69009    216009.12   -18613.495    1368.2015   -19981.697   -1382.6857    189.61131     78.76122     22.59682    25.747338 
   24600    241.55167   -281.84409    216009.12   -18649.708    1404.7583   -20054.466   -540.65777    191.08664    78.759269    22.595574    25.737597 
   24800    239.56501   -234.78962    216009.12   -18654.821    1393.2048   -20048.026   -416.51881    192.40175    78.762079    22.596284    25.734696 
   25000    238.28128   -267.48251    216009.12    -18656.35    1385.7392   -20042.089   -543.31473    192.63732    78.761519    22.595768     25.74124 
   25200    226.08851   -296.83484    216009.12   -18712.158    1314.8314   -20026.989    -663.9639    193.88174    78.763184    22.592327    25.715718 
   25400    238.82901   -387.12165    216009.12   -18626.411    1388.9245   -20015.336   -1074.2538    196.32059    78.762945    22.588848     25.71842 
   25600    252.77244   -311.21399    216009.12   -18480.335    1470.0134   -19950.348   -755.02982    198.90173    78.762438    22.591112    25.733819 
   25800     244.0362   -228.77383    216009.12   -18496.526    1419.2072   -19915.733   -384.78761    200.29496    78.761386    22.591539    25.715004 
   26000    239.56701   -206.18924    216009.12   -18539.507    1393.2164   -19932.723   -316.98587    200.68098    78.761987    22.590848    25.736354 
   26200    240.38557   -206.28774    216009.12   -18571.857    1397.9768   -19969.833   -319.29182    200.79899    78.763802    22.588395    25.747285 
   26400    237.31035   -401.90763    216009.12   -18629.124    1380.0927   -20009.217   -1124.7553    200.86777    78.763521    22.586871    25.730138 
   26600    243.98567   -405.34158    216009.12   -18539.432    1418.9134   -19958.345   -1172.1381    201.64912    78.764286    22.584654    25.716072 
   26800    235.08262   -293.91289    216009.12   -18558.206    1367.1372   -19925.343    -632.7616     203.5772    78.763459    22.583948    25.708267 
   27000    243.91339   -353.96922    216009.12   -18464.502     1418.493   -19882.995   -947.87971    205.36874    78.764339    22.582179    25.720015 
   27200    236.49235   -167.13336    216009.12    -18517.34    1375.3356   -19892.675   -71.606663    205.45202    78.764504    22.583609    25.698123 
   27400    245.24525   -499.33009    216009.12   -18490.415    1426.2386   -19916.653    -1540.225    206.01515    78.763018    22.582927    25.714257 
   27600    231.64295   -254.41846    216009.12   -18609.888    1347.1335   -19957.022   -522.39157    207.44966    78.763978    22.585103    25.712079 
   27800    242.05719   -238.72744    216009.12   -18513.439    1407.6982   -19921.137   -458.96447    209.22426    78.766152    22.587106    25.700828 
   28000    239.65428   -361.23603    216009.12   -18622.349    1393.7239   -20016.073   -965.78615    212.65172      78.7661    22.589443     25.67965 
   28200    240.41594   -281.42546    216009.12   -18588.734    1398.1534   -19986.887   -575.77434    212.20438    78.767071    22.588957    25.667711 
   28400    237.59305   -209.99854    216009.12   -18574.717    1381.7367   -19956.454   -299.07036    214.93653    78.767315     22.58845    25.656381 
   28600    231.48611    -341.7476    216009.12   -18551.705    1346.2214   -19897.926   -862.98352    216.25993    78.768955    22.589325    25.661979 
   28800    238.58244   -405.17986    216009.12   -18595.219    1387.4906    -19982.71   -1164.4609    218.35221    78.770737    22.591413    25.634749 
   29000    235.62836   -314.47402    216009.12   -18573.942    1370.3109   -19944.253   -795.47563     218.5545    78.771563    22.589173    25.614035 
   29200    246.58738   -292.41555    216009.12   -18566.966    1434.0438    -20001.01   -704.40859    219.15841    78.771145    22.590688    25.594287 
   29400    237.95932   -334.01079    216009.12   -18571.502    1383.8668   -19955.369   -854.69839    220.98795     78.77003    22.590419    25.590023 
   29600    238.66565    -346.6514    216009.12    -18549.44    1387.9745   -19937.415   -914.84384    222.48838    78.769546    22.591767    25.602567 
   29800    240.73911   -336.74144    216009.12   -18630.114    1400.0329   -20030.147   -852.88205    223.01027    78.772779    22.592686    25.593915 
   30000    239.99681   -191.22135    216009.12    -18666.64    1395.7159   -20062.356   -233.56988    224.24695    78.774493    22.593839    25.615028 
   30200    239.34983   -360.97013    216009.12   -18628.128    1391.9534   -20020.081   -969.41309    226.42575    78.774847    22.593561    25.597593 
   30400    242.05039   -310.28754    216009.12   -18604.577    1407.6587   -20012.235   -762.83454    228.74121    78.776996      22.5949    25.571518 
   30600    233.91459   -398.34282    216009.12   -18668.294    1360.3444   -20028.639   -1110.5827    229.56396    78.779822     22.59436    25.542699 
   30800    235.93281    -325.2415    216009.12   -18606.571    1372.0815   -19978.653   -825.90919    230.72818    78.779891    22.594488    25.555148 
   31000    237.75997   -249.58903    216009.12   -18593.619    1382.7075   -19976.326   -487.19016     232.0104    78.780823    22.594231    25.551744 
   31200    239.24326   -322.25525    216009.12   -18619.261    1391.3336   -20010.594   -812.00279    234.62779    78.780622    22.593106    25.555627 
   31400    242.23817   -256.26334    216009.12   -18586.137    1408.7507   -19994.888   -490.38122    237.20574    78.781997    22.592495     25.52903 
   31600    234.59897   -208.66296    216009.12   -18631.894    1364.3245   -19996.218   -351.90668    239.28408    78.780366    22.592219     25.52061 
   31800    238.49801   -258.71032    216009.12   -18577.592    1386.9996   -19964.592   -516.81066    239.49904    78.781047     22.59121    25.543905 
   32000    237.80169   -322.15145    216009.12   -18676.711    1382.9501   -20059.661   -771.23665    240.93144    78.782574    22.595103    25.539269 
   32200     232.3508   -455.97362    216009.12   -18688.153    1351.2501   -20039.403   -1362.6802    243.12584    78.782875    22.594025    25.543402 
   32400     242.7996   -285.59368    216009.12   -18700.549    1412.0158   -20112.565   -608.75768    242.04126    78.783487    22.589578    25.542244 
   32600    246.55441   -144.95026    216009.12    -18635.42     1433.852   -20069.272   -29.698749    242.77842    78.782796    22.586615    25.510521 
   32800    236.19976   -339.56272    216009.12   -18649.202    1373.6339   -20022.836   -841.78677    246.64242    78.784063    22.585467    25.506385 
   33000    242.93715    -234.8077    216009.12   -18609.381    1412.8157   -20022.197   -457.02194    248.37653    78.785141    22.584616    25.521077 
   33200      240.708   -332.86658    216009.12   -18627.913    1399.8519   -20027.765   -831.47604    250.74595    78.784662     22.58731    25.517702 
   33400    239.61037   -382.69572    216009.12   -18677.424    1393.4686   -20070.892   -1055.8594    252.80347    78.783843    22.588674    25.529411 
   33600    240.44148   -428.05614    216009.12   -18689.727    1398.3019   -20088.029   -1245.9261    252.03881    78.783376    22.588668    25.510123 
   33800    247.73704    -212.1732    216009.12   -18535.399    1440.7297   -19976.128   -336.26546    253.34647    78.782921    22.588961    25.502134 
   34000    237.18591    -363.7054    216009.12   -18628.319     1379.369   -20007.688   -962.64481    255.11728     78.78328    22.586649    25.508723 
   34200    240.90139   -401.74951    216009.12   -18600.716    1400.9766   -20001.693   -1171.3797    257.01421    78.782166    22.586196    25.536147 
   34400    235.61044   -339.25573    216009.12   -18661.272    1370.2067   -20031.479   -848.50769      258.168    78.781998    22.587128    25.537091 
   34600    241.98768   -364.21861    216009.12    -18520.97    1407.2939   -19928.264   -978.52766     258.8313    78.784197    22.589561    25.537369 
   34800    238.96085    -292.2509    216009.12   -18594.007    1389.6913   -19983.698    -690.5826    259.64446    78.785666    22.589899    25.541804 
   35000    241.37008   -155.35745    216009.12   -18590.809    1403.7023   -19994.511   -84.482003    259.77865    78.785986    22.591459    25.531745 
   35200    242.93519   -369.66728    216009.12   -18505.355    1412.8043   -19918.159   -991.90836    259.56357    78.783815    22.591202    25.527632 
   35400    241.62606   -328.55752    216009.12   -18520.659     1405.191    -19925.85   -807.90728    260.33648    78.784814    22.589707    25.553669 
   35600    244.28531   -288.02187    216009.12   -18551.093     1420.656   -19971.749   -640.58352    259.69454    78.785352    22.591616    25.533284 
   35800    244.92461   -313.98273    216009.12   -18473.992    1424.3739   -19898.366   -759.76133    260.68116     78.78562    22.591159     25.52566 
   36000    233.96646   -238.36578    216009.12   -18566.303    1360.6461   -19926.949    -461.7715      262.108    78.785051    22.590179    25.494478 
   36200    240.59625   -198.02942    216009.12    -18522.93     1399.202   -19922.132   -245.34155    262.45839    78.785454    22.590443    25.502335 
   36400    243.14271    -232.3893    216009.12   -18525.253    1414.0111   -19939.264   -464.37417     262.7219    78.786724    22.589166    25.480162 
   36600    241.28031   -314.89002    216009.12   -18549.174    1403.1802   -19952.355   -777.66282    262.32955    78.786846    22.588482    25.480141 
   36800    237.62915   -276.61965    216009.12   -18613.796    1381.9466   -19995.742   -612.14419    262.87246    78.786502    22.589954     25.49241 
   37000    230.49564   -186.28367    216009.12   -18585.646    1340.4613   -19926.107   -257.54413    263.87646    78.788091    22.590596     25.48098 
   37200    234.20656   -318.14861    216009.12   -18591.297    1362.0424    -19953.34   -785.51767    264.00235    78.788069    22.588459    25.488966 
   37400     238.4382   -302.93518    216009.12   -18594.152    1386.6517   -19980.803   -759.39243    266.94861    78.787051    22.587909    25.484447 
   37600    244.72088   -287.91576    216009.12   -18610.811    1423.1891       -20034   -620.73361    267.14312    78.786074    22.586379    25.483002 
   37800    234.37607   -443.65108    216009.12   -18670.062    1363.0282   -20033.091   -1329.0364    268.72829    78.787163    22.586848    25.516815 
   38000     240.6425   -414.94217    216009.12   -18580.078     1399.471   -19979.549    -1183.863    269.18333    78.788101    22.587779     25.50164 
   38200    236.30991   -228.30641    216009.12   -18567.164    1374.2746   -19941.439    -374.7342    269.58574    78.787341     22.58876    25.503254 
   38400    248.22951   -372.97845    216009.12   -18537.686    1443.5937    -19981.28   -1011.0932    271.88964    78.787826    22.589084     25.48015 
   38600    242.28349   -293.36218    216009.12   -18573.549    1409.0143   -19982.564   -697.10134    272.93491     78.78849    22.586494    25.484317 
   38800    238.90182   -210.21929    216009.12   -18577.565     1389.348   -19966.913   -346.20318    272.57731    78.785526    22.585623    25.519971 
   39000    243.49933   -352.73792    216009.12   -18546.052    1416.0851   -19962.137    -923.5562    272.93137    78.785872    22.585723    25.539321 
   39200    235.31667    -294.5334    216009.12   -18660.194    1368.4983   -20028.692   -636.45854    274.48857    78.784457     22.58828    25.544899 
   39400    241.42755   -368.63653    216009.12   -18588.446    1404.0365   -19992.482    -1002.459    274.01021    78.784317     22.58871    25.567104 
   39600    240.30308   -286.07227    216009.12   -18560.991    1397.4971   -19958.488   -637.57046    273.68935     78.78253    22.589684    25.587491 
   39800    243.48332   -304.06431    216009.12   -18636.681     1415.992   -20052.673    -748.8631    275.27992    78.781009    22.590567     25.59247 
   40000    237.89706   -168.44356    216009.12   -18587.672    1383.5047   -19971.176   -169.35863    275.58799    78.783214    22.591438    25.583506 
   40200    237.05594   -444.03806    216009.12   -18576.343    1378.6131   -19954.956    -1303.326    277.09182    78.784052    22.591858    25.577043 
   40400    235.89262   -361.91307    216009.12    -18611.17    1371.8478   -19983.018   -996.16208    277.22817    78.783901    22.590964     25.56253 
   40600    245.91125   -214.14676    216009.12    -18552.43    1430.1117   -19982.542   -352.13992    278.89059    78.782031    22.594359    25.564202 
   40800    242.67146   -337.50974    216009.12   -18633.688    1411.2706   -20044.959   -881.13929    280.42099    78.782332    22.594234    25.573688 
   41000     242.5218   -282.77814    216009.12   -18603.173    1410.4002   -20013.573   -609.02153    282.07133    78.781888    22.595143    25.584428 
   41200    240.51389   -200.65186    216009.12   -18523.361    1398.7231   -19922.084   -315.04012    283.23763    78.782684    22.595685    25.574767 
   41400    237.08232    -281.6773    216009.12   -18538.863    1378.7666    -19917.63   -636.23001    285.25184    78.782987    22.596845    25.563267 
   41600    241.41476   -455.51359    216009.12    -18532.87    1403.9621   -19936.832   -1369.3226    286.34806    78.780285    22.597032    25.547639 
   41800    247.22556   -280.14943    216009.12   -18562.244    1437.7552   -19999.999    -651.4913    286.65075    78.778005    22.596534     25.53803 
   42000    234.78994   -284.86547    216009.12   -18611.761    1365.4351   -19977.196   -637.72722    286.63758    78.773876    22.598627    25.522675 
   42200    232.91301    -239.8658    216009.12   -18662.369    1354.5197   -20016.889   -468.73854    287.81968    78.770657    22.602195    25.512339 
   42400     231.6059   -357.37378    216009.12   -18625.083    1346.9181   -19972.001   -940.54758    288.77437    78.769984    22.601799    25.490101 
   42600     231.4634   -418.86671    216009.12   -18652.776    1346.0894   -19998.865   -1246.3559    289.61387    78.768415    22.599792    25.493858 
   42800    237.00321   -335.57363    216009.12   -18592.294    1378.3065     -19970.6   -877.29667    290.60377    78.767519    22.602096    25.516691 
   43000    240.88846   -322.14159    216009.12   -18598.245    1400.9014   -19999.147   -851.89659    291.51506    78.768163    22.602929    25.501042 
   43200    240.39447   -236.87621    216009.12   -18581.697    1398.0286   -19979.726   -408.65682    291.71134    78.767315    22.603912    25.499508 
   43400    239.06712   -307.62091    216009.12   -18598.867    1390.3093   -19989.177     -694.859    293.28919    78.768781    22.606874    25.485952 
   43600    241.94848   -352.72718    216009.12   -18617.613     1407.066   -20024.679   -955.42325    294.94239    78.770315    22.604728    25.474621 
   43800    238.17226    -305.2904    216009.12   -18638.824    1385.1052    -20023.93   -695.88174    295.59357    78.769136    22.605038     25.49127 
   44000    239.52514   -264.33541    216009.12   -18661.897    1392.9729    -20054.87    -528.2643    298.43192    78.769523    22.605656    25.496599 
   44200     237.7164   -311.90023    216009.12   -18618.879    1382.4541   -20001.333   -743.16474    299.38391     78.76989    22.607067    25.492545 
   44400    233.21551   -347.30955    216009.12   -18637.079    1356.2789   -19993.357    -901.1513    300.49949    78.769575    22.607571    25.508353 
   44600    239.48063   -106.85898    216009.12   -18643.245    1392.7141   -20035.959    130.97888    301.13354    78.769617     22.60506    25.517908 
   44800    241.82744   -385.14349    216009.12   -18624.076    1406.3621   -20030.439   -1059.8642    303.53885      78.7691    22.603151    25.505225 
   45000     243.0906   -402.71385    216009.12   -18572.724    1413.7081   -19986.432   -1139.3859    304.69997    78.767987    22.601285    25.531002 
   45200    240.64731   -417.95156    216009.12   -18518.051     1399.499    -19917.55   -1174.1884    304.02507    78.767159    22.601016    25.530747 
   45400    230.29299   -360.39211    216009.12   -18595.024    1339.2828   -19934.307   -938.55405    303.16512    78.767981     22.60315    25.536217 
   45600    247.60634   -146.84866    216009.12   -18537.241    1439.9696   -19977.211     -35.6203    304.16943    78.768582    22.603193    25.546254 
   45800    238.70004   -390.21627    216009.12   -18564.763    1388.1745   -19952.937   -1127.0425    306.69756    78.767799    22.601759    25.534376 
   46000    244.27231   -280.81557    216009.12   -18506.783    1420.5804   -19927.364   -610.82161     307.5856    78.766219    22.604168    25.498879 
   46200    240.42075   -392.65699    216009.12    -18493.98    1398.1814   -19892.162   -1131.8515    307.53601    78.765503    22.602775    25.485661 
   46400    236.76005   -371.02309    216009.12   -18572.061    1376.8924   -19948.953   -1001.9459    308.46079    78.765803    22.602488    25.519387 
   46600    237.57363   -286.03989    216009.12   -18564.963    1381.6238   -19946.587   -630.91472    310.25194    78.767894     22.60137    25.532542 
   46800    243.75394     -362.373    216009.12   -18520.208    1417.5658   -19937.774   -922.40278     311.4616    78.769383    22.600348    25.519028 
   47000    244.58615   -253.05059    216009.12   -18490.569    1422.4055   -19912.975   -489.10038    312.12869    78.768904    22.601049    25.502787 
   47200    231.09702    -241.1724    216009.12   -18621.593    1343.9587   -19965.552   -473.13585    312.31415    78.768538    22.600958    25.494814 
   47400    239.40123   -288.39835    216009.12   -18534.316    1392.2523   -19926.569   -661.41539    314.70281    78.770151    22.599812    25.497431 
   47600    242.59048   -102.39241    216009.12   -18548.651    1410.7996    -19959.45    133.76092    316.18303    78.772565    22.598092    25.492705 
   47800    237.98528    -472.3504    216009.12   -18532.717    1384.0178   -19916.735   -1441.7179    317.30822    78.771541    22.596282    25.500331 
   48000    239.31215   -405.35611    216009.12   -18561.515    1391.7343   -19953.249   -1182.3618    319.58932    78.770966     22.59331    25.497139 
   48200    243.36945   -309.22644    216009.12   -18558.382    1415.3297   -19973.712   -772.52009    321.71235    78.772465    22.593553    25.479505 
   48400    238.27784   -368.70675    216009.12   -18579.274    1385.7192   -19964.993   -1015.1257    321.55899    78.774889    22.593371     25.47559 
   48600    232.87173   -349.58085    216009.12   -18641.509    1354.2796   -19995.789   -925.61444      322.538    78.772847    22.593087    25.471336 
   48800    238.13043   -394.57229    216009.12   -18598.408    1384.8619   -19983.269   -1081.3299    322.37666    78.771834     22.59271    25.475845 
   49000    240.72855   -357.26001    216009.12   -18622.737    1399.9714   -20022.709   -968.04673    322.10144    78.771208    22.595296    25.496066 
   49200    236.78013   -246.68145    216009.12   -18573.384    1377.0091   -19950.393   -516.36598    321.85244    78.772394    22.596283    25.517586 
   49400    235.85723   -167.37684    216009.12   -18616.957     1371.642   -19988.599   -118.30052    323.86474    78.772364    22.599174    25.514938 
   49600     236.9926     -240.481    216009.12   -18580.266    1378.2448   -19958.511   -428.57158    324.19802    78.773204    22.600974    25.549171 
   49800    237.37769   -459.23109    216009.12   -18580.691    1380.4843   -19961.176   -1372.3512    324.96494    78.773101    22.603016    25.560474 
   50000    232.25105   -407.58994    216009.12   -18592.199      1350.67   -19942.869   -1135.0657    326.89482    78.771209    22.602775    25.588896 
   50200    244.34262   -197.75281    216009.12    -18528.89    1420.9893   -19949.879    -286.7599    327.04248    78.770246    22.604079    25.606088 
   50400    233.78377   -314.34806    216009.12   -18580.272    1359.5836   -19939.856   -754.58953    328.61499    78.770682    22.603085    25.603435 
   50600    248.71763   -411.35773    216009.12   -18470.817    1446.4324    -19917.25   -1170.0317    329.61565     78.77295    22.602265    25.601734 
   50800    234.34177   -342.64265    216009.12    -18639.63    1362.8287   -20002.459   -892.24152    330.62833    78.773427     22.60313    25.640183 
   51000    244.68028   -195.27976    216009.12   -18617.751    1422.9529   -20040.704   -257.49111    330.75403    78.773983    22.602877    25.661458 
   51200    229.96208   -392.07888    216009.12   -18649.229    1337.3584   -19986.587     -1106.86    333.62605     78.77199     22.60202     25.65593 
   51400    235.59569   -277.28561    216009.12   -18609.488     1370.121   -19979.609   -594.93764    333.66856     78.77288    22.602331    25.653413 
   51600    240.06688   -344.08078    216009.12   -18644.483    1396.1234   -20040.606     -900.581    335.65071    78.774475    22.601681    25.658873 
   51800    232.85115   -314.39013    216009.12       -18590    1354.1599    -19944.16   -761.37919    336.06896    78.775451    22.601291    25.666925 
   52000    237.06745   -278.04375    216009.12   -18666.671    1378.6801   -20045.351   -598.10282    336.37198    78.775406    22.600528    25.651058 
   52200    232.31406   -425.22884    216009.12   -18692.724    1351.0364    -20043.76   -1249.6453    338.62103    78.776793     22.60008    25.638804 
   52400    236.02116   -352.62012    216009.12   -18687.967    1372.5953   -20060.563   -895.84618    339.54202     78.77646    22.600501     25.62244 
   52600    238.01561   -417.32664    216009.12   -18627.406    1384.1941     -20011.6   -1165.9031    341.31363    78.776339    22.602568    25.609966 
   52800    248.54592   -331.41153    216009.12   -18584.578    1445.4338   -20030.012   -815.65055    342.23241    78.776418    22.605529     25.60477 
   53000    247.14836   -320.26027    216009.12   -18581.862    1437.3062   -20019.168   -745.92175    341.84511    78.777025     22.60437    25.599424 
   53200    237.09578   -270.58848    216009.12   -18681.365    1378.8449    -20060.21    -563.9442    344.27979    78.775234    22.606425    25.596535 
   53400    236.11279   -184.08918    216009.12   -18654.021    1373.1282   -20027.149   -192.15376    345.84028    78.774891    22.607745    25.617069 
   53600    233.07519   -467.74107    216009.12   -18694.251    1355.4629   -20049.714   -1409.4955    349.20814     78.77361     22.60623    25.615776 
   53800    238.48911   -324.92169    216009.12    -18658.58    1386.9478   -20045.527   -845.66434     350.3386     78.77551    22.604677    25.610996 
   54000    238.19159   -388.34005    216009.12   -18644.849    1385.2176   -20030.067   -1087.0731    351.08776    78.777691    22.603316    25.602492 
   54200    239.50497   -284.71597    216009.12   -18601.569    1392.8556   -19994.425   -657.15764    350.59723     78.77809    22.601669    25.635438 
   54400    247.52728   -250.18815    216009.12   -18536.255    1439.5099   -19975.765   -494.11248    350.80826    78.776497    22.600662    25.640067 
   54600    250.37723   -287.74314    216009.12   -18567.584    1456.0839   -20023.668   -635.24668    351.10651    78.776597    22.601304    25.643437 
   54800    244.29874   -315.00431    216009.12    -18572.99    1420.7341   -19993.725   -736.77977    352.92291    78.778943    22.600413    25.662753 
   55000    238.42269   -341.59308    216009.12   -18542.505    1386.5615   -19929.066   -895.73121    352.33549    78.779552    22.603686    25.674951 
   55200    235.23127   -322.40298    216009.12   -18678.017    1368.0017   -20046.019     -806.254     351.9447    78.777437    22.603377    25.688357 
   55400    235.17331   -278.66826    216009.12   -18630.942    1367.6646   -19998.606   -593.33415     354.3556    78.776238    22.604743    25.703093 
   55600    238.17941   -356.61995    216009.12   -18592.013    1385.1468    -19977.16    -965.0876    355.42212    78.775089    22.605911    25.726158 
   55800    251.06649   -146.00588    216009.12    -18536.53    1460.0924   -19996.623   -67.743953    354.44136    78.773981    22.605648    25.691221 
   56000    239.43689   -363.79448    216009.12    -18607.16    1392.4597    -19999.62   -976.43692    358.61754    78.774107    22.605447    25.705466 
   56200    237.63489   -233.69255    216009.12   -18588.639    1381.9801   -19970.619   -432.22682    357.43383    78.771751    22.606114    25.730699 
   56400    232.15385    -224.6798    216009.12   -18646.181    1350.1047   -19996.286   -386.90041    357.40985    78.769345    22.605232    25.735641 
   56600    234.25079     -352.413    216009.12   -18679.816    1362.2996   -20042.115   -936.44489    358.86576    78.770707    22.603727    25.712522 
   56800    238.36653   -395.73011    216009.12   -18586.593    1386.2349   -19972.828   -1097.5757    362.23187    78.769448    22.600869    25.708248 
   57000    233.20983   -299.27467    216009.12   -18673.337    1356.2458   -20029.582   -720.61871    363.58169    78.769094    22.598634    25.700228 
   57200    239.78776   -484.66852    216009.12   -18579.728    1394.5002   -19974.228   -1466.0392    365.37744    78.769835     22.59617     25.68843 
   57400    239.27019   -204.76363    216009.12   -18666.513    1391.4902   -20058.003   -322.25403    365.55119    78.768931    22.594808    25.697617 
   57600    234.92058   -319.39018    216009.12   -18703.334    1366.1948   -20069.529    -764.4509    368.64515    78.766975    22.593223    25.720077 
   57800    240.08536   -430.19415    216009.12   -18615.895    1396.2309   -20012.125   -1267.4539    368.52778    78.764839    22.591143    25.723943 
   58000    242.43432    -183.5903    216009.12   -18631.537    1409.8914   -20041.428   -213.41665     369.0075    78.764604    22.588289    25.741502 
   58200    242.83606   -308.18416    216009.12   -18600.714    1412.2278   -20012.942   -766.01119    370.67236    78.764743    22.588193    25.753748 
   58400    238.87959   -432.42748    216009.12   -18632.064    1389.2187   -20021.283    -1220.247    371.77779    78.765561    22.587069    25.730545 
   58600    238.34998   -328.90579    216009.12   -18657.004    1386.1387   -20043.143    -835.3839    373.36736    78.767885    22.586448    25.710862 
   58800    240.10375   -395.00393    216009.12   -18599.474    1396.3378   -19995.812    -1063.029    372.80401    78.767206    22.586642    25.711671 
   59000    245.64523   -267.80562    216009.12   -18532.838    1428.5647   -19961.403   -550.46401    373.73921    78.764309    22.588344    25.709638 
   59200    242.02335   -353.85116    216009.12   -18587.709    1407.5014    -19995.21   -960.00097     373.8843    78.763742    22.589068    25.702589 
   59400    239.95082   -239.31806    216009.12   -18604.878    1395.4485   -20000.327   -478.04418    374.15933    78.764878     22.58728    25.677969 
   59600    238.72651   -271.92576    216009.12   -18645.973    1388.3284   -20034.301   -600.90843    374.82512    78.768203    22.588956    25.695827 
   59800    240.33541   -273.79257    216009.12     -18600.2    1397.6851   -19997.885   -623.77418    374.53652    78.769305    22.591114    25.678724 
   60000    243.14765   -279.56609    216009.12   -18591.539    1414.0399   -20005.578   -637.70868    376.75823    78.770241    22.592531     25.69603 
   60200    231.40856    -373.5865    216009.12   -18616.791    1345.7704   -19962.561   -1076.1316    377.78355    78.770763    22.594481    25.677516 
   60400    241.14821   -282.36153    216009.12   -18560.272     1402.412   -19962.684   -628.84069    377.78654    78.768477    22.593591    25.693229 
   60600    244.45534   -329.21442    216009.12   -18507.418    1421.6448   -19929.063   -821.12922    380.83646    78.766576    22.591747    25.717411 
   60800     243.4191   -438.48619    216009.12   -18493.224    1415.6185   -19908.842   -1285.0782    382.44131    78.765274    22.591472    25.720296 
   61000    239.72302   -404.28828    216009.12   -18593.945    1394.1237   -19988.069   -1127.8926    381.46707    78.766368    22.591992    25.730565 
   61200    240.95944   -332.16219    216009.12   -18526.563    1401.3142   -19927.877   -845.17837    381.85637    78.768212    22.589822    25.713482 
   61400    237.26486   -404.71409    216009.12   -18559.325    1379.8282   -19939.153   -1180.6921    383.65275    78.768823    22.588097    25.705568 
   61600    237.14631   -300.62577    216009.12   -18587.919    1379.1387   -19967.058   -691.65954    383.00792    78.770574    22.586443    25.710499 
   61800    236.46228   -257.94182    216009.12   -18628.898    1375.1607   -20004.059   -501.93811    382.19491    78.770842    22.586265    25.696112 
   62000    244.68621    -427.6189    216009.12   -18543.809    1422.9874   -19966.796   -1219.8748    385.43749    78.769516    22.586993    25.684897 
   62200    241.83005   -272.70698    216009.12   -18529.613    1406.3773    -19935.99   -662.67781    385.69248    78.770549    22.587826    25.690319 
   62400    239.71077   -258.65425    216009.12   -18520.535    1394.0525   -19914.588   -553.44391    386.09334    78.771339    22.588407    25.673902 
   62600    237.32948   -395.13875    216009.12   -18578.998    1380.2039   -19959.202   -1101.0775    390.96685    78.771191    22.587666    25.674317 
   62800    227.69845    -275.2178    216009.12   -18673.897    1324.1941   -19998.091   -625.97262    392.09634    78.773143    22.588083    25.679539 
   63000    244.03236   -142.83737    216009.12   -18579.025    1419.1849    -19998.21   -31.527155    393.17367    78.775304    22.588795    25.693153 
   63200     244.4781    -94.95587    216009.12   -18614.734    1421.7772   -20036.511    163.90469    394.41709    78.773191    22.589053    25.696081 
   63400    238.93706   -250.60154    216009.12   -18667.352    1389.5529   -20056.905   -431.68768    394.44283     78.77418    22.591134    25.683929 
   63600     233.1315   -367.32817    216009.12   -18643.836    1355.7903   -19999.626   -959.69488    395.94814    78.773332     22.59104    25.683181 
   63800     235.8621   -430.59456    216009.12   -18663.854    1371.6703   -20035.524    -1216.978     398.0479    78.772091    22.592567    25.694508 
   64000    239.86394   -133.72822    216009.12   -18553.689    1394.9432   -19948.632   -22.143956      398.561    78.771652    22.593266    25.699008 
   64200    239.53018   -406.03385    216009.12   -18539.343    1393.0022   -19932.345   -1151.9498     401.5299    78.770676    22.593022    25.687953 
   64400    240.41717    -163.4088    216009.12   -18572.806    1398.1606   -19970.967    -106.2924    402.72004    78.771726    22.593356    25.709013 
   64600    237.02817   -340.74482    216009.12   -18620.158    1378.4516    -19998.61   -834.47755     404.2003    78.771422    22.594746    25.725414 
   64800    242.97625   -440.27821    216009.12   -18604.375    1413.0431   -20017.418   -1281.3043     406.1055    78.773142      22.5948    25.759703 
   65000    240.99155   -346.24077    216009.12   -18495.839    1401.5009    -19897.34   -852.35197    406.90754    78.776196    22.594202     25.74511 
   65200    240.83671    -241.7022    216009.12    -18554.88    1400.6004   -19955.481   -421.70589    407.94437    78.774997     22.59382    25.743551 
   65400    235.79569   -238.85569    216009.12   -18558.666    1371.2841    -19929.95   -482.94391    409.90102    78.774567     22.59266    25.737956 
   65600    242.78372   -217.55813    216009.12   -18531.103    1411.9234   -19943.026   -334.76891    410.82814    78.772558    22.595076    25.715385 
   65800    238.91877   -240.05213    216009.12    -18546.72    1389.4465   -19936.167   -469.22795    410.85966    78.771108    22.594875    25.709988 
   66000    236.98452   -181.12263    216009.12   -18528.258    1378.1978   -19906.456   -189.64707     411.2992    78.773272    22.596277    25.699767 
   66200     244.1662   -434.27474    216009.12   -18587.259    1419.9633   -20007.223    -1270.359    414.94052    78.771565    22.597504    25.684302 
   66400    238.60427   -220.21782    216009.12    -18604.68    1387.6176   -19992.298   -390.04541    415.12211    78.770737    22.600926    25.708093 
   66600    233.73769   -306.74126    216009.12   -18595.076    1359.3157   -19954.392   -739.95496    418.77541    78.769784    22.601809    25.723611 
   66800    234.15984   -287.12533    216009.12   -18604.219    1361.7707   -19965.989   -626.12873    418.81859     78.76686    22.600817    25.728584 
   67000    228.75594   -327.43382    216009.12   -18676.481     1330.344   -20006.825   -816.37675    419.35861    78.764646    22.600641    25.724354 
   67200    243.87779   -369.34655    216009.12   -18649.206     1418.286   -20067.492   -1040.2045    419.47992    78.763035    22.599009    25.734737 
   67400    241.73259   -272.19856    216009.12   -18643.062    1405.8105   -20048.872    -589.5848    418.51635    78.762108    22.599575    25.728501 
   67600    236.70608   -389.41869    216009.12   -18588.129    1376.5785   -19964.707   -1123.6778    419.66296    78.758155    22.597559    25.710312 
   67800    238.04003   -331.54173    216009.12    -18584.87    1384.3362   -19969.206    -865.6469    421.24733    78.755505    22.597302    25.701608 
   68000     233.0339   -288.52208    216009.12   -18588.227    1355.2227    -19943.45   -673.62411    423.59025     78.75172    22.595842    25.718088 
   68200     241.7382   -427.98424    216009.12   -18600.918    1405.8431   -20006.761   -1213.8654    423.41577    78.753409    22.596562    25.726649 
   68400    245.89552   -152.35941    216009.12   -18555.665    1430.0203   -19985.686   -73.038093    423.34627    78.754537    22.596901    25.692476 
   68600    227.53725   -236.16877    216009.12   -18580.223    1323.2566    -19903.48   -431.09144    425.90294    78.750781    22.597427    25.675706 
   68800    239.58396   -362.41597    216009.12   -18575.854     1393.315   -19969.169   -970.79358    429.35604     78.74981    22.597415    25.675979 
   69000    241.18533   -236.93075    216009.12   -18571.302    1402.6279    -19973.93   -424.83508    429.43519    78.747682    22.599145    25.689922 
   69200    236.46109   -519.26571    216009.12   -18631.713    1375.1538   -20006.867   -1624.9567    430.99618    78.745328    22.601281    25.713489 
   69400    237.08593   -362.59531    216009.12   -18663.695    1378.7876   -20042.483   -948.01168    432.30699    78.742004    22.602815     25.74905 
   69600    245.00476    -329.1197    216009.12    -18481.99      1424.84    -19906.83   -828.97243    433.77506    78.739926     22.60351    25.753975 
   69800    236.87895   -290.10737    216009.12   -18610.743    1377.5838   -19988.327    -687.8202    435.02853    78.739364    22.605349    25.749089 
   70000    237.03067   -290.89335    216009.12     -18571.5    1378.4662   -19949.966   -620.91751    433.94062    78.738921    22.605104    25.736386 
   70200    240.83392   -196.84834    216009.12   -18585.554    1400.5842   -19986.138    -220.5433    435.91995    78.737388    22.605951    25.735418 
   70400    239.58423   -336.97175    216009.12   -18552.294    1393.3166   -19945.611   -852.67095     437.3563    78.735142    22.607331     25.70604 
   70600    244.40524   -336.41243    216009.12   -18654.606    1421.3534   -20075.959   -845.23657     439.3491    78.734493      22.6074    25.694818 
   70800    237.97122   -322.70868    216009.12   -18689.708     1383.936   -20073.644   -782.82204    438.63099    78.735118    22.608135    25.681063 
   71000    236.79784   -503.89191    216009.12   -18735.203    1377.1122   -20112.315   -1535.9324    441.71621    78.736308    22.608992    25.676004 
   71200    240.67246   -325.10754    216009.12   -18690.167    1399.6452   -20089.812   -836.94019    442.96847    78.736263    22.609793    25.672731 
   71400    238.34038   -335.89134    216009.12   -18709.343    1386.0829   -20095.426   -788.23081    445.98197    78.735967    22.610048    25.674782 
   71600    236.08406   -475.70211    216009.12   -18619.038    1372.9611   -19991.999   -1461.7168    448.60767    78.733606    22.608573    25.676872 
   71800    230.62095   -426.77472    216009.12   -18716.254    1341.1901   -20057.444   -1218.6662    449.28751    78.728914    22.604967    25.656469 
   72000    239.70802   -230.39049    216009.12   -18705.253    1394.0365   -20099.289   -380.12764    449.00406    78.726392     22.60267    25.642208 
   72200    248.19878   -385.33369    216009.12   -18580.396     1443.415   -20023.811   -1092.2316     451.1429    78.726665    22.604098    25.621703 
   72400    235.97361   -322.10896    216009.12   -18631.195    1372.3188   -20003.514   -857.09916    451.39042    78.724055    22.605837    25.617712 
   72600    244.83282   -275.25084    216009.12   -18612.241      1423.84   -20036.081   -612.53682    452.14605    78.719725     22.60569    25.610185 
   72800    241.16476   -224.78258    216009.12       -18635    1402.5082   -20037.508   -369.27084    456.29772    78.718158    22.605428     25.60386 
   73000     236.9125   -236.12767    216009.12   -18637.206    1377.7789   -20014.985   -411.50633     456.4412    78.715954    22.605688    25.606616 
   73200    242.52116   -249.58979    216009.12   -18538.898    1410.3965   -19949.295   -481.08311    457.34569    78.713146    22.606947    25.616483 
   73400    242.35742   -507.63756    216009.12   -18553.662    1409.4442   -19963.106    -1596.385    459.86492    78.710557    22.603243    25.606859 
   73600    239.69341   -193.37813    216009.12    -18560.54    1393.9515   -19954.491   -225.39259    459.50651     78.71147    22.600057    25.627803 
   73800    233.49037   -368.02622    216009.12   -18625.638    1357.8774   -19983.515   -991.13808    461.44472    78.711483    22.601681    25.611488 
   74000    235.01767   -233.76448    216009.12   -18641.511    1366.7594   -20008.271    -379.5876    461.46528    78.711112    22.603009    25.643255 
   74200    243.42899   -376.09391    216009.12   -18572.281     1415.676   -19987.957   -1026.5523    462.58337    78.711984    22.606237    25.657712 
   74400    238.14689   -198.58627    216009.12   -18582.297    1384.9576   -19967.255   -287.26539    463.58902    78.711788    22.609136    25.668004 
   74600    231.71897   -275.82905    216009.12   -18597.264    1347.5757   -19944.839   -569.01438    464.91344    78.710861     22.60916    25.651994 
   74800     232.2384   -399.41027    216009.12   -18603.331    1350.5964   -19953.927   -1098.5175    465.75277    78.712407    22.609094     25.65599 
   75000    235.14543   -400.94124    216009.12   -18631.763    1367.5024   -19999.265   -1082.4361    468.30371    78.711699    22.609165    25.630759 
   75200    245.59779   -332.48799    216009.12   -18583.938    1428.2888   -20012.227   -885.51396    468.78843    78.713884    22.612032    25.628055 
   75400    236.62907   -439.17098    216009.12   -18626.313    1376.1306   -20002.444   -1284.3195    468.11889    78.713477    22.613706    25.635805 
   75600     231.0036   -318.64453    216009.12   -18588.695    1343.4154    -19932.11   -746.66427    470.95144    78.712208     22.61685    25.636043 
   75800    238.32547   -415.57936    216009.12   -18537.857    1385.9962   -19923.853   -1125.4003    469.89655    78.713666    22.617664    25.617231 
   76000    248.69105   -307.11859    216009.12   -18542.009    1446.2778   -19988.286   -727.76666    470.91663    78.711742    22.621241    25.607394 
   76200    239.30505   -396.24769    216009.12   -18657.808     1391.693   -20049.501   -1127.6542    473.32513    78.712186    22.621413    25.578782 
   76400    235.29054   -228.15496    216009.12    -18617.19    1368.3464   -19985.536   -381.48473     471.3111    78.714483     22.62261    25.583131 
   76600    236.65786   -248.18306    216009.12   -18578.172    1376.2981    -19954.47   -445.17251     472.7075    78.718036    22.621231    25.583767 
   76800    231.53512     -264.077    216009.12   -18603.492    1346.5065   -19949.998   -516.45782    475.31439    78.719243     22.62025    25.568614 
   77000     242.6401   -306.84869    216009.12   -18595.236    1411.0882   -20006.324   -706.40522    475.07863     78.71958    22.616543    25.540092 
   77200    240.61536   -268.77333    216009.12   -18564.613    1399.3132   -19963.926   -571.51463    476.77335    78.719035    22.617137    25.559059 
   77400    240.31434    -334.2453    216009.12   -18581.759    1397.5625   -19979.322   -842.89593    479.58719    78.717918    22.620736    25.561427 
   77600    240.60201   -391.97411    216009.12   -18615.215    1399.2355    -20014.45   -1116.3922    479.31146    78.716444    22.621549    25.560033 
   77800     238.3026   -190.23886    216009.12   -18563.459    1385.8631   -19949.322   -200.27957    478.15028    78.715538     22.62192    25.543621 
   78000    236.07903   -254.60771    216009.12   -18604.413    1372.9319   -19977.345   -536.16799    477.98269     78.71699    22.620064    25.556176 
   78200    238.84309   -370.53431    216009.12   -18558.152    1389.0064   -19947.159   -967.94747     480.4837    78.717239     22.61994    25.580754 
   78400     236.1019   -378.33228    216009.12   -18557.676    1373.0649   -19930.741   -1092.7482    481.13973    78.716694    22.617567    25.587808 
   78600    239.31651   -59.451382    216009.12   -18574.473    1391.7596   -19966.233    378.21901    480.74135     78.71749    22.616979    25.594967 
   78800    240.81405   -298.70041    216009.12   -18598.652    1400.4687   -19999.121   -676.73768     483.7655    78.715767    22.617541    25.586864 
   79000     240.2918   -375.82602    216009.12   -18546.512    1397.4315   -19943.943    -1017.057    483.95144     78.71651    22.617973    25.576952 
   79200    243.74913   -481.25342    216009.12    -18545.05    1417.5378   -19962.588   -1463.4099    485.22635    78.716451    22.617917    25.563429 
   79400     236.3531   -285.35083    216009.12    -18510.55    1374.5257   -19885.075   -627.46897    484.60341    78.714797     22.61797    25.558546 
   79600    244.19007   -334.79881    216009.12    -18618.65    1420.1021   -20038.752   -868.16842    488.62704    78.715318     22.61713    25.550025 
   79800    238.80609   -341.14531    216009.12   -18625.447    1388.7913   -20014.238    -900.3264    489.07051    78.718024    22.614865     25.53203 
   80000    245.09671   -435.11803    216009.12   -18661.678    1425.3747   -20087.052   -1298.9308     490.8313    78.716357    22.614025    25.535222 
   80200    236.72072   -213.32932    216009.12    -18649.28    1376.6636   -20025.944   -372.70586    491.95269    78.715173      22.6138    25.537409 
   80400    234.73789    -389.5245    216009.12   -18639.508    1365.1324    -20004.64   -1111.6882    494.85946    78.715883    22.612541    25.538686 
   80600     243.5886    -158.4844    216009.12   -18629.971    1416.6042   -20046.575   -124.39833    494.45925    78.715484    22.610626    25.516169 
   80800    238.02196   -183.20739    216009.12   -18594.409    1384.2311    -19978.64   -176.76977    497.11273    78.714945    22.611086    25.531553 
   81000    241.77955   -405.75791    216009.12   -18554.074    1406.0836   -19960.158   -1182.6831    501.15302    78.715546    22.612389    25.515249 
   81200    233.05868   -481.27538    216009.12   -18573.719    1355.3668   -19929.086   -1511.4939    502.75448    78.718805     22.61397    25.510051 
   81400    230.52286   -477.80717    216009.12   -18572.681    1340.6196   -19913.301    -1466.656    507.57258     78.72085    22.614394    25.498222 
   81600    242.95351   -359.93118    216009.12   -18595.813    1412.9108   -20008.724   -956.05532    511.02832    78.720599    22.614133    25.500851 
   81800    231.88033   -170.09895    216009.12   -18662.563    1348.5141   -20011.077   -225.65488    509.62222    78.720143    22.617753    25.497874 
   82000    240.48254   -280.12172    216009.12   -18539.474    1398.5407   -19938.015   -653.11212    509.21089    78.719697    22.618155    25.495732 
   82200    246.84322   -231.95864    216009.12   -18494.322    1435.5317   -19929.854   -400.50893    509.11595    78.719197    22.617418    25.495092 
   82400     239.2375   -346.50022    216009.12    -18510.13    1391.3001    -19901.43   -909.57256    514.34352    78.716733    22.617474    25.482005 
   82600    241.44611    -427.8474    216009.12   -18477.204    1404.1444   -19881.348   -1239.7137    512.98174    78.717974    22.616266     25.48973 
   82800    242.67432   -374.78756    216009.12   -18612.577    1411.2871   -20023.864   -972.51935    515.94519    78.717187    22.617623    25.490169 
   83000    243.07259   -320.70576    216009.12   -18562.597    1413.6033     -19976.2   -772.60114     519.1674    78.717873    22.616446    25.491694 
   83200    240.16821   -301.08809    216009.12   -18556.957    1396.7127    -19953.67   -707.68501    520.71706    78.717207    22.615317    25.482551 
   83400    238.42904   -567.92961    216009.12   -18571.358    1386.5985   -19957.956   -1854.8884    522.15863     78.71656    22.616045    25.491849 
   83600    240.40502   -249.18761    216009.12   -18621.059    1398.0899   -20019.149   -543.88087     518.3308    78.717585    22.616356    25.491375 
   83800    235.66719   -338.81911    216009.12     -18594.2    1370.5368   -19964.737   -852.17386    518.97315    78.715605    22.617326    25.505019 
   84000    244.44864   -393.94256    216009.12   -18567.256    1421.6059   -19988.861   -1152.4315    521.71555    78.715474    22.618853    25.477391 
   84200    237.55956   -317.25328    216009.12   -18559.231     1381.542   -19940.773   -788.77312    522.17047    78.715604    22.619076    25.479659 
   84400    235.31482   -427.69131    216009.12   -18595.899    1368.4876   -19964.387   -1281.5946    522.53706    78.716056    22.617742    25.470399 
   84600     244.2824   -299.68954    216009.12   -18550.534     1420.639   -19971.173   -712.20305    522.55559    78.719656    22.621151    25.471729 
   84800     239.2509   -369.29673    216009.12   -18609.311    1391.3781   -20000.689   -1031.0582    524.73704    78.719558    22.620429    25.482965 
   85000     239.8064   -288.85775    216009.12   -18556.369    1394.6086   -19950.978   -666.51329    524.94488    78.720306    22.621987    25.451012 
   85200    236.34182   -210.15137    216009.12   -18573.444    1374.4601   -19947.904    -353.5654    524.74728    78.721171    22.622458    25.439909 
   85400    244.29593   -339.93887    216009.12   -18608.264    1420.7177   -20028.982   -889.26062    527.03852    78.721164     22.62295    25.436846 
   85600    243.55254   -372.27215    216009.12   -18599.853    1416.3945   -20016.248   -1020.8005    529.08214    78.720664     22.62198    25.454582 
   85800    237.70934   -366.40262    216009.12   -18545.163     1382.413   -19927.576    -1003.319    530.72274    78.722084    22.620957    25.483493 
   86000    238.53284   -320.67534    216009.12   -18590.087    1387.2021   -19977.289   -790.68019    529.79849    78.721522     22.62106    25.487017 
   86200    239.43314   -268.74866    216009.12   -18581.914    1392.4379   -19974.352   -580.07495    530.75514    78.721917    22.621508     25.48982 
   86400    233.53694   -262.04986    216009.12    -18667.13    1358.1482   -20025.278   -546.01186    532.01682    78.721109     22.62091    25.490402 
   86600    249.24198   -368.58269    216009.12   -18547.862    1449.4818   -19997.343   -1000.7325    531.67384    78.719914    22.619011     25.46718 
   86800     241.9096   -319.11502    216009.12   -18614.095    1406.8399   -20020.935   -822.99775    532.28932    78.719509    22.618887    25.477908 
   87000    239.52113   -269.83998    216009.12   -18557.824    1392.9496   -19950.773   -603.77983    535.77474    78.720337    22.619503    25.455211 
   87200    244.30845   -263.48918    216009.12   -18535.537    1420.7906   -19956.328   -547.63467    535.79657    78.721645    22.618834    25.463825 
   87400     240.2354   -185.52885    216009.12   -18563.913    1397.1035   -19961.016    -209.3223    534.25235    78.721362    22.618271    25.467323 
   87600    236.19311   -278.64552    216009.12     -18603.9    1373.5953   -19977.495   -631.66956    538.38589    78.721795    22.618796     25.46499 
   87800    233.10075   -312.78704    216009.12   -18625.795    1355.6115   -19981.406   -755.22219    540.31867    78.720632    22.619308    25.469694 
   88000    240.11064    -321.9645    216009.12   -18587.988    1396.3779   -19984.366   -802.02094    540.99042    78.720139    22.617545    25.468621 
   88200    234.99225   -392.56093    216009.12   -18679.792    1366.6116   -20046.404   -1088.9728    546.78929    78.722832     22.61647    25.459831 
   88400    239.22663   -446.32009    216009.12    -18616.97    1391.2369   -20008.207   -1338.5416     547.8682    78.723824    22.616191    25.483077 
   88600    240.32395   -266.63823    216009.12   -18639.273    1397.6184   -20036.892   -597.59179    546.62482    78.725691    22.614519    25.492536 
   88800     237.4377   -367.31298    216009.12   -18708.012    1380.8333   -20088.846   -990.32526    547.88122    78.727809    22.615316    25.500066 
   89000    243.41531   -348.56825    216009.12   -18630.802    1415.5965   -20046.399   -928.88455     547.3169    78.727846    22.614808    25.486109 
   89200    235.11008   -400.36238    216009.12   -18611.632    1367.2969   -19978.929   -1171.0551    551.09891    78.729178    22.614308    25.493026 
   89400    238.91614     -380.583    216009.12   -18610.012    1389.4313   -19999.443   -1029.5374    549.24186    78.728252     22.61586    25.478196 
   89600    235.19558   -356.73993    216009.12    -18730.12    1367.7941   -20097.914   -918.70872    550.36676    78.726466    22.613553    25.474314 
   89800    244.86021   -196.51858    216009.12    -18626.82    1423.9994   -20050.819   -276.14791    552.95313    78.726825    22.614344    25.474828 
   90000    235.61307   -279.62715    216009.12   -18628.935     1370.222   -19999.157    -602.6862    552.90354    78.728384    22.616856    25.479854 
   90200    236.33602   -310.61213    216009.12   -18634.759    1374.4264   -20009.186   -797.25302    553.44063    78.729887    22.618569    25.482821 
   90400    237.47412   -254.17746    216009.12   -18590.729    1381.0451   -19971.774   -480.32143    553.78237    78.730436    22.620039    25.503511 
   90600    240.92387   -271.80356    216009.12   -18573.451    1401.1073   -19974.558   -597.47261    554.10983    78.729663    22.621633    25.502441 
   90800    240.61981   -161.46446    216009.12   -18580.817     1399.339   -19980.156   -84.817004    555.78284    78.728029    22.622944    25.515388 
   91000    242.27766   -259.59191    216009.12   -18585.644    1408.9804   -19994.625   -511.18947    556.02809    78.724893    22.625398    25.468657 
   91200    239.61914   -421.03072    216009.12   -18680.918    1393.5196   -20074.437   -1209.4725    557.33952     78.72512    22.627351     25.47343 
   91400    238.17435   -422.66589    216009.12   -18614.923    1385.1173   -20000.041   -1247.5065    560.13194    78.723387    22.628509    25.488234 
   91600    243.45788   -429.57236    216009.12   -18521.039     1415.844   -19936.883   -1241.2179    560.43296    78.724046    22.626913     25.47353 
   91800     243.3695   -281.06552    216009.12   -18532.945      1415.33   -19948.275   -627.72837    560.43455     78.72541    22.625685    25.481554 
   92000    239.66925    -231.2008    216009.12   -18563.253     1393.811   -19957.064   -394.50872    562.06978    78.723327    22.625257    25.460572 
   92200    240.61652   -266.13626    216009.12   -18586.957    1399.3199   -19986.277   -562.03964    563.66756    78.724678    22.624417    25.474106 
   92400    245.57017   -410.15455    216009.12   -18586.601    1428.1282   -20014.729   -1179.1204    565.45683    78.725948    22.625371    25.473955 
   92600    243.45003   -410.64123    216009.12   -18573.911    1415.7983   -19989.709   -1177.2442    563.18348    78.727303    22.626199    25.470151 
   92800    242.25695    -481.4781    216009.12   -18643.858    1408.8599   -20052.718   -1471.6636    564.45241    78.726906    22.624429     25.44138 
   93000    243.46582   -314.23708    216009.12   -18657.345    1415.8902   -20073.235   -771.15698    565.77724    78.723596    22.623027    25.452147 
   93200    244.02115   -318.50804    216009.12    -18638.37    1419.1197    -20057.49   -806.79648    567.38868    78.722935    22.624437    25.467702 
   93400    229.07257   -291.81928    216009.12   -18721.702    1332.1854   -20053.888    -675.9186    566.43664     78.72436    22.622416    25.474937 
   93600    237.01738   -478.28926    216009.12   -18654.902    1378.3889   -20033.291   -1518.6986    566.12456    78.725213    22.624635    25.501054 
   93800    236.79534   -306.35861    216009.12   -18674.277    1377.0976   -20051.375   -731.52443    564.13069    78.728275    22.625431    25.502755 
   94000    235.34349   -172.18856    216009.12   -18675.185    1368.6543   -20043.839   -141.61697    563.82326    78.729383    22.625775    25.491778 
   94200    242.56289   -191.74492    216009.12    -18604.12    1410.6391   -20014.759   -214.06013    565.13709    78.729964    22.625937    25.494311 
   94400    237.88108   -259.12175    216009.12   -18619.899    1383.4118    -20003.31   -525.99569    565.71377    78.729636    22.624044    25.502241 
   94600    234.52985   -293.34313    216009.12   -18633.837    1363.9225   -19997.759   -658.76963    567.03065     78.72969    22.623391    25.493547 
   94800    232.95962    -296.3313    216009.12   -18623.771    1354.7907   -19978.562   -709.51363    564.33248    78.730134    22.622911    25.472985 
   95000    239.95328     -309.637    216009.12    -18624.08    1395.4628   -20019.543   -739.15664    566.01608    78.730217     22.62161    25.482183 
   95200    240.69547   -356.21905    216009.12    -18596.79     1399.779   -19996.569   -973.51325    566.09775    78.730684    22.621192    25.459877 
   95400    240.50558   -405.32108    216009.12   -18614.004    1398.6747   -20012.679   -1178.8203       570.51    78.728076    22.616899    25.443975 
   95600    243.42566   -271.50851    216009.12   -18564.406    1415.6566   -19980.062   -576.54382    570.84326    78.728587    22.618553    25.438426 
   95800    245.29575   -333.30396    216009.12   -18551.929    1426.5323   -19978.462   -874.33405    573.10724    78.729422    22.619715    25.428828 
   96000    238.26298   -215.10811    216009.12   -18544.693    1385.6328   -19930.326   -367.07537     574.9628    78.729507     22.62206    25.399594 
   96200    248.28941   -293.20984    216009.12    -18514.67    1443.9421   -19958.612   -683.18281    576.20639    78.728455    22.620782    25.416173 
   96400    237.63979   -241.44176    216009.12   -18557.214    1382.0086   -19939.223   -490.46931    577.37806    78.726928    22.619864    25.446149 
   96600    235.99991   -289.07517    216009.12   -18595.247    1372.4717   -19967.718   -635.82326    576.18341    78.725291    22.620782     25.42697 
   96800    236.56622   -325.22394    216009.12   -18560.534    1375.7651   -19936.299   -797.02239    576.17592    78.724109    22.619658    25.418917 
   97000    233.81705   -408.36431    216009.12   -18630.593    1359.7772    -19990.37   -1167.9344    576.63825    78.722535    22.620103    25.397415 
   97200    240.78126    -243.9493    216009.12   -18591.775     1400.278   -19992.053   -456.59608     577.7193     78.72425    22.621213    25.388769 
   97400    233.90138   -226.42684    216009.12   -18558.228    1360.2676   -19918.496   -392.93904    577.06073     78.72471     22.62159    25.392404 
   97600    245.92029   -433.99422    216009.12    -18505.81    1430.1643   -19935.974   -1266.7994     579.4932    78.723506    22.624275    25.382681 
   97800    242.17414   -263.42753    216009.12   -18506.166    1408.3783   -19914.545   -502.79816    581.28419    78.724385    22.626758     25.40949 
   98000    239.51225   -99.742188    216009.12   -18549.636     1392.898   -19942.534    170.92152    582.96936    78.725523    22.626502     25.40179 
   98200    231.20012   -180.97746    216009.12       -18587    1344.5583   -19931.559   -168.60357     586.2771    78.728216    22.625198    25.379195 
   98400    236.01174   -258.32737    216009.12   -18558.563    1372.5405   -19931.103   -523.93728    586.66672    78.730287    22.626427     25.38991 
   98600    238.59958   -462.18671    216009.12   -18606.551    1387.5903   -19994.141   -1410.7099    586.16853    78.729231    22.626634    25.380353 
   98800    241.41452   -408.38816    216009.12    -18559.26    1403.9607   -19963.221   -1199.6304    585.52978    78.727744    22.628305    25.389754 
   99000     236.0617   -387.06883    216009.12   -18592.354    1372.8311   -19965.185   -1057.8483    586.76084    78.729151     22.63103    25.386673 
   99200    242.34265   -252.01119    216009.12   -18587.734    1409.3583   -19997.093   -461.84043    588.11221    78.730028    22.630656    25.383599 
   99400    235.66848   -475.15164    216009.12   -18629.661    1370.5443   -20000.205   -1449.4562    590.90594    78.730186    22.632534    25.393154 
   99600    234.65783   -192.94312    216009.12   -18546.101    1364.6668   -19910.768   -229.24609    587.02606    78.730576     22.63265    25.393685 
   99800    248.03416   -351.55091    216009.12   -18591.767    1442.4577   -20034.224   -877.55479    589.86915    78.732199    22.634326    25.389609 
  100000    242.00304   -288.52369    216009.12   -18567.921    1407.3833   -19975.305   -629.79766    593.33284    78.732353    22.638434    25.380881 
  100200    235.80892   -300.32779    216009.12   -18604.253     1371.361   -19975.614   -726.89029     596.0875    78.733128    22.640223    25.352696 
  100400    245.65297   -347.04901    216009.12   -18577.101    1428.6097   -20005.711   -868.02482    596.02815    78.733774    22.640429    25.329321 
  100600    230.93281   -221.50333    216009.12   -18633.379    1343.0037   -19976.382   -382.06433    599.14879    78.730401    22.638855    25.355045 
  100800    232.38599   -407.63183    216009.12   -18683.509    1351.4548   -20034.964   -1184.7968    598.44031    78.728752    22.638993    25.353735 
[...]
 5175800    225.56788   -281.85933    216009.12   -20691.904    1311.8036   -22003.707   -558.45635    7366.7289    79.369856    23.112676    25.506271 
 5176000    231.17794   -311.96476    216009.12   -20692.053    1344.4293   -22036.482   -758.03735    7365.0877    79.369559     23.11295    25.512074 
 5176200    223.67335   -383.45871    216009.12    -20699.89    1300.7859   -22000.676   -1033.7526    7367.7457    79.368769    23.113724    25.507586 
 5176400    227.30018   -292.19313    216009.12    -20733.51    1321.8779   -22055.388   -632.98117    7365.7746    79.368126    23.113926    25.502948 
 5176600    223.37837   -298.81122    216009.12   -20684.106    1299.0704   -21983.177   -656.43955    7366.1663    79.367304    23.113605    25.500976 
 5176800    230.97399   -439.28433    216009.12   -20656.924    1343.2432   -22000.168    -1250.241    7368.7339    79.366396    23.113188    25.505666 
 5177000    228.82184   -359.08759    216009.12   -20655.371    1330.7272   -21986.098   -932.06699    7365.7286    79.366289    23.114075    25.504689 
 5177200    228.02283   -279.86987    216009.12   -20666.791    1326.0805   -21992.872   -582.12951     7365.923    79.366316    23.113735    25.503003 
 5177400    224.81498   -361.51139    216009.12   -20693.295    1307.4251    -22000.72   -919.28821    7368.2781    79.366365    23.112696    25.510597 
 5177600    230.44331   -322.50932    216009.12   -20636.426     1340.157   -21976.583   -727.89445    7367.3695      79.3662    23.112864     25.50457 
 5177800    222.87928   -232.65364    216009.12   -20675.621    1296.1679   -21971.789   -397.60594    7366.0557    79.366439    23.112501    25.501418 
 5178000    226.89139   -326.80951    216009.12   -20695.789    1319.5006   -22015.289    -742.6963    7368.2586    79.366185    23.112848    25.504356 
 5178200     228.2951   -315.28179    216009.12   -20699.255    1327.6639   -22026.919   -743.53223    7366.2209     79.36649    23.113006     25.50901 
 5178400    226.59026   -193.09285    216009.12   -20704.631    1317.7494   -22022.381    -266.9399    7366.5103    79.366148    23.113049    25.505101 
 5178600    218.09716   -338.66487    216009.12   -20688.534    1268.3572   -21956.891   -840.04068    7369.4528    79.366589     23.11367    25.502989 
 5178800    226.96325   -328.54447    216009.12   -20647.046    1319.9185   -21966.964   -764.94387    7367.6172    79.366651      23.1131    25.502721 
 5179000    228.56284   -269.98777    216009.12   -20679.472     1329.221   -22008.693   -566.16658    7365.6517    79.366376    23.113273    25.503175 
 5179200    230.76411   -317.02796    216009.12   -20654.713    1342.0226   -21996.736    -726.4561    7369.3012    79.367433     23.11395    25.505737 
 5179400    225.18106   -335.95946    216009.12   -20714.782    1309.5541   -22024.336   -800.89389    7366.6343    79.368383    23.113696    25.507357 
 5179600    232.15864   -214.30325    216009.12   -20611.726    1350.1326   -21961.859   -312.39586    7365.0326    79.368568    23.114403    25.505682 
 5179800    224.54174   -307.40744    216009.12   -20665.532    1305.8361   -21971.368   -702.32986    7368.5954    79.368701    23.115115     25.50267 
 5180000    221.66058   -362.13707    216009.12   -20699.687    1289.0805   -21988.767   -962.59805    7369.0242     79.36859     23.11501    25.507489 
 5180200    222.71698   -272.24355    216009.12   -20762.756     1295.224    -22057.98   -551.67975    7365.9603    79.368655    23.114785    25.507027 
 5180400    226.58349    -324.1826    216009.12   -20736.879      1317.71   -22054.589   -796.26425    7367.1809    79.368243    23.115483    25.505876 
 5180600    225.58573   -301.15911    216009.12   -20674.377    1311.9075   -21986.285   -657.67976    7368.0228    79.368639    23.114916    25.505603 
 5180800    228.76297   -297.76192    216009.12   -20654.982    1330.3849   -21985.367   -659.27727    7367.3002    79.368511    23.115591    25.510873 
 5181000    226.38095      -271.89    216009.12   -20698.348    1316.5321    -22014.88   -537.92709    7369.6071    79.369855    23.115939    25.509158 
 5181200    229.48684   -276.10145    216009.12   -20703.709    1334.5946   -22038.304   -566.29038    7369.0894    79.370568    23.116134    25.507388 
 5181400    223.92262   -281.64806    216009.12   -20741.278    1302.2355   -22043.513   -578.29813    7366.5341    79.369787    23.116568    25.510984 
 5181600    230.01047   -264.29786    216009.12   -20673.182    1337.6398   -22010.822   -553.57132    7368.7238    79.369242    23.116945    25.507123 
 5181800    224.63078   -358.58578    216009.12    -20750.36    1306.3538   -22056.714   -940.74314    7369.8109    79.369224    23.118256    25.504606 
 5182000    228.61567   -284.10323    216009.12   -20663.501    1329.5282   -21993.029    -581.1924    7369.2145    79.368732    23.119675    25.503221 
 5182200    229.23502   -283.36244    216009.12   -20662.593    1333.1301   -21995.723   -592.92266    7368.6615    79.368665    23.119861    25.505648 
 5182400    232.99316   -291.40602    216009.12   -20649.754    1354.9858    -22004.74    -614.1899    7368.9772    79.368557    23.119625     25.51052 
 5182600    220.76829   -288.58425    216009.12   -20741.899    1283.8913   -22025.791   -635.89068    7368.1941     79.36789    23.120294    25.505201 
 5182800    224.30955   -289.22918    216009.12   -20687.017    1304.4857   -21991.503   -579.86254    7368.1944    79.369191    23.120225    25.506029 
 5183000    226.76961   -329.13033    216009.12    -20676.96    1318.7923   -21995.752   -825.61123     7369.236    79.369126    23.120548    25.504692 
 5183200     230.3767   -323.94331    216009.12   -20634.386    1339.7696   -21974.156   -779.77985    7369.1839    79.368451    23.120352    25.506576 
 5183400    224.28451   -388.58295    216009.12    -20643.58    1304.3401    -21947.92   -1061.0242    7365.2059    79.368769    23.119597     25.50832 
 5183600    225.03035   -349.34359    216009.12   -20726.828    1308.6776   -22035.505   -893.09795    7368.1591    79.369378    23.119619     25.51013 
 5183800    216.13448   -345.83461    216009.12   -20754.301    1256.9431   -22011.244    -820.5794    7366.8039    79.367795    23.120625    25.509553 
 5184000    222.38478   -376.63794    216009.12   -20757.276    1293.2921   -22050.568   -995.04089    7366.1356     79.36878    23.119711    25.507863 
 5184200    228.62837   -365.07828    216009.12    -20640.87    1329.6021   -21970.472   -947.16301    7366.9709    79.368588    23.120273    25.507326 
 5184400    223.49704   -327.75681    216009.12   -20701.173    1299.7605   -22000.933   -769.12602    7365.8317    79.367673    23.119964    25.504469 
 5184600    228.93465   -302.42924    216009.12   -20642.299    1331.3833   -21973.682   -619.53936    7367.9989    79.367066    23.120121    25.504734 
 5184800    228.14028   -341.09874    216009.12   -20690.053    1326.7636   -22016.817   -846.38539    7368.1234    79.366025    23.120772    25.508197 
 5185000    225.55543   -320.29598    216009.12   -20706.113    1311.7312   -22017.844   -753.68533    7368.8349     79.36569    23.120575    25.501752 
 5185200     229.6973   -316.70809    216009.12    -20692.88    1335.8185   -22028.698   -749.41714    7368.0221    79.365977    23.120525    25.505755 
 5185400     226.0989   -272.61915    216009.12   -20730.072    1314.8918   -22044.964    -508.4751    7368.6468     79.36469    23.121292    25.509388 
 5185600    224.25017   -309.51199    216009.12   -20695.395    1304.1404   -21999.536    -697.6269    7367.7213    79.365219    23.121485    25.512044 
 5185800    223.06841   -312.74361    216009.12   -20711.662    1297.2678    -22008.93   -750.43883    7367.2678    79.364721    23.120973     25.50135 
 5186000    226.60654      -298.61    216009.12   -20659.307     1317.844   -21977.151   -685.62062    7366.8242    79.364833    23.120981    25.506511 
 5186200    223.94579    -313.2981    216009.12   -20664.128    1302.3703   -21966.499   -717.78954    7369.6448     79.36484    23.120924    25.506885 
 5186400    227.23808    -332.6683    216009.12   -20676.815    1321.5168   -21998.332   -775.98999    7367.8944    79.364839    23.120501    25.503654 
 5186600    232.14985   -303.25207    216009.12   -20664.255    1350.0815   -22014.336   -657.86594    7367.8731    79.364704     23.11997    25.502428 
 5186800    219.72054   -394.90941    216009.12   -20662.408    1277.7981   -21940.206   -1072.2642    7368.9592     79.36374    23.119393    25.507928 
 5187000    231.22274   -319.59349    216009.12    -20689.09    1344.6898    -22033.78   -762.27211    7366.7764    79.363848    23.119294    25.503381 
 5187200    227.06141   -310.84922    216009.12   -20650.277    1320.4894   -21970.767   -725.82243    7368.0249    79.364853    23.120811     25.50151 
 5187400    226.28464   -363.02031    216009.12   -20660.888     1315.972    -21976.86   -936.18086    7367.9485    79.365327    23.120212    25.501556 
 5187600    222.22608   -318.42679    216009.12   -20706.072    1292.3692   -21998.441   -762.54228    7368.4828    79.365458    23.120389    25.504307 
 5187800    222.97852   -348.36164    216009.12    -20661.68     1296.745   -21958.425   -855.27516    7368.2813    79.365697    23.120451     25.51155 
 5188000    227.70453   -339.43391    216009.12   -20684.662    1324.2295   -22008.892    -799.6597     7367.692    79.365436    23.120978    25.511081 
 5188200    231.41716    -275.1674    216009.12   -20641.918    1345.8205   -21987.739   -515.72156    7367.5199     79.36572    23.120678    25.515593 
 5188400    229.25193   -297.24494    216009.12   -20671.616    1333.2284   -22004.845   -642.72519    7367.7575    79.365745    23.121498    25.512158 
 5188600    229.11457    -400.7207    216009.12   -20667.257    1332.4296   -21999.687    -1102.844    7369.3568    79.366302    23.121926    25.508842 
 5188800    220.05443   -379.84494    216009.12   -20708.754    1279.7398   -21988.494   -1003.2362    7367.8295    79.365625    23.121241    25.511872 
 5189000    228.39694   -413.11273    216009.12   -20705.434    1328.2562    -22033.69   -1134.8863    7365.4887    79.365262    23.121169    25.507828 
 5189200    225.78325   -352.51831    216009.12   -20695.919    1313.0561   -22008.975   -875.02325    7368.3202    79.365666     23.12162    25.512666 
 5189400    221.79311    -340.2753    216009.12   -20759.654    1289.8512   -22049.505   -817.02533    7367.5902    79.365138    23.121949    25.510692 
 5189600    220.32269   -307.02421    216009.12   -20717.188    1281.2999   -21998.488   -665.40269    7368.4115    79.365317    23.121905    25.510304 
 5189800    228.05526   -360.42582    216009.12   -20672.202    1326.2691   -21998.471   -942.94994    7367.6896    79.366208    23.121933    25.506406 
 5190000    227.43269   -333.50756    216009.12   -20708.594    1322.6486   -22031.242   -822.49311    7366.9087    79.366967    23.121429     25.51044 
 5190200      228.098   -302.43592    216009.12   -20685.433    1326.5177   -22011.951   -648.82779    7367.7598    79.367893    23.122315    25.511024 
 5190400    225.03292   -412.18512    216009.12   -20694.508    1308.6925   -22003.201   -1100.8308    7370.0075    79.368769    23.122682    25.506866 
 5190600    236.79074   -272.67198    216009.12   -20630.025    1377.0709   -22007.096   -493.11884    7367.1601    79.369499    23.122605    25.504237 
 5190800    222.43569    -313.9634    216009.12   -20713.927    1293.5882   -22007.516   -728.82694    7367.5477    79.369777    23.122977    25.508158 
 5191000    224.92493   -398.42322    216009.12   -20689.646    1308.0645    -21997.71   -1030.8019    7368.2176    79.370561    23.122432    25.511426 
 5191200    225.58287   -336.32698    216009.12   -20670.126    1311.8908   -21982.017   -818.91199    7367.6415    79.370705    23.122133    25.514138 
 5191400    222.42496   -335.00344    216009.12   -20701.177    1293.5258   -21994.703    -812.5907    7366.7925    79.370883    23.121456    25.511199 
 5191600    225.84055   -399.25755    216009.12   -20718.052    1313.3894   -22031.441   -1065.6664    7369.2688    79.371637    23.121465    25.513806 
 5191800    223.82248   -333.09142    216009.12   -20712.326    1301.6531    -22013.98   -837.24642    7367.2643    79.372275    23.121734    25.518299 
 5192000    228.33961   -273.31821    216009.12   -20661.701    1327.9228   -21989.624   -551.74457    7366.9794    79.373001    23.120984    25.521026 
 5192200    232.12887   -345.31494    216009.12   -20627.328    1349.9595   -21977.287   -846.48675    7369.3888    79.373129    23.121462    25.517844 
 5192400    228.37568   -328.66729    216009.12   -20693.931    1328.1326   -22022.064     -811.097    7366.9352    79.372956    23.122431    25.514723 
 5192600    227.64455   -225.47599    216009.12   -20677.172    1323.8806   -22001.053   -312.21328    7366.1184    79.373332    23.122649    25.519339 
 5192800    226.22128   -380.54663    216009.12   -20693.921    1315.6035   -22009.524   -1013.9362    7370.1242    79.373009    23.122839    25.515592 
 5193000    231.17543   -357.94381    216009.12   -20666.747    1344.4147   -22011.162   -885.64772    7369.6987    79.373195    23.121847    25.511893 
 5193200     226.3886   -224.03967    216009.12   -20738.707    1316.5766   -22055.284   -289.88397    7365.3604    79.373244    23.121295     25.51736 
 5193400    231.68636   -395.74937    216009.12   -20659.466     1347.386   -22006.852   -1088.1019    7367.6881    79.371808    23.120755    25.515178 
 5193600    233.45635   -412.15574    216009.12   -20689.506    1357.6795   -22047.186   -1127.3789    7369.9987    79.370803    23.120235    25.515224 
 5193800    234.15704   -239.12465    216009.12   -20668.519    1361.7544   -22030.273   -362.26931    7367.3524    79.370272    23.117917    25.519811 
 5194000    231.67241   -336.54024    216009.12   -20650.404    1347.3049   -21997.709     -807.357    7368.7923    79.369779    23.118037    25.518303 
 5194200    221.51658   -383.47599    216009.12   -20725.562     1288.243   -22013.805   -937.37298    7370.0859    79.368792    23.117991    25.516399 
 5194400    224.23387   -261.35099    216009.12   -20701.178    1304.0456   -22005.224   -483.11118    7366.8617    79.368683     23.11777    25.520557 
 5194600    224.84012   -363.71794    216009.12   -20666.205    1307.5713   -21973.776   -940.30237    7368.6744    79.367366    23.117781    25.518586 
 5194800    226.09789    -371.5741    216009.12    -20620.22    1314.8859   -21935.106   -943.02555    7369.8247    79.366449    23.116951    25.510167 
 5195000     225.0812   -229.68046    216009.12   -20683.068    1308.9733   -21992.041   -353.86844    7363.8764    79.366278    23.116434    25.509976 
 5195200     235.6592   -243.58826    216009.12   -20605.316    1370.4903   -21975.806   -407.76146    7366.7105    79.366332    23.116129    25.510421 
 5195400    227.56828   -406.47479    216009.12   -20681.125    1323.4371   -22004.562   -1105.1997    7368.0913    79.366197    23.116287    25.513124 
 5195600    225.88308   -299.17134    216009.12   -20640.197    1313.6367   -21953.834   -672.80466    7366.7462    79.366773    23.115407    25.514005 
 5195800    229.90602    -353.3352    216009.12   -20704.967    1337.0324   -22041.999   -922.99158     7365.825    79.366594     23.11579    25.508398 
 5196000     235.3435    -343.0528    216009.12   -20626.185    1368.6543   -21994.839   -856.72567     7366.923    79.366011    23.116153    25.511063 
 5196200    229.67154   -311.17105    216009.12   -20655.581    1335.6687    -21991.25   -683.33723    7366.7701    79.365321    23.116906    25.515486 
 5196400    228.03467   -327.15658    216009.12   -20695.541    1326.1494    -22021.69    -764.1335    7365.1735      79.3654    23.116655    25.517961 
 5196600    225.88523   -374.76785    216009.12   -20658.928    1313.6492   -21972.577    -940.6661    7366.1462    79.364924    23.117249    25.516167 
 5196800    224.51397   -290.44543    216009.12   -20678.196    1305.6746    -21983.87   -591.03565    7367.1522    79.362924    23.117084    25.515124 
 5197000    231.40452    -224.5374    216009.12   -20662.411    1345.7469   -22008.158   -330.85857    7365.6606    79.362087    23.117374    25.515555 
 5197200    230.73671   -417.06259    216009.12    -20642.17    1341.8633   -21984.033   -1154.8507    7367.0355    79.363137    23.116559    25.513944 
 5197400    222.52754   -299.36013    216009.12   -20698.032    1294.1223   -21992.155   -648.96314    7365.7266    79.363396    23.117167    25.505495 
 5197600    228.02416   -240.34628    216009.12    -20703.77    1326.0883   -22029.858   -377.22547     7364.973    79.362991    23.116436    25.506317 
 5197800    225.80705   -430.56832    216009.12   -20712.878    1313.1946   -22026.073   -1193.5964    7368.5561    79.362111    23.116311    25.505124 
 5198000    219.71489   -270.32999    216009.12   -20750.867    1277.7652   -22028.632   -523.11586    7366.4336    79.361121    23.115093    25.516835 
 5198200    227.62198   -267.72908    216009.12   -20652.569    1323.7494   -21976.319   -548.17656    7366.6103    79.360132    23.115419    25.518896 
 5198400    227.62516   -380.42205    216009.12   -20649.746    1323.7679   -21973.514   -970.10057    7369.1398    79.357742    23.115565    25.513713 
 5198600      228.193   -286.43541    216009.12   -20665.537    1327.0702   -21992.607   -641.07768    7365.7649     79.35754    23.114157    25.510243 
 5198800    221.42222   -325.40801    216009.12   -20740.691    1287.6943   -22028.386   -789.44694    7366.4013    79.356989    23.113991    25.511538 
 5199000    218.75295   -413.78821    216009.12   -20696.728     1272.171   -21968.899   -1155.2743    7369.8705    79.356228    23.113969    25.509761 
 5199200    235.25684   -293.46363    216009.12   -20606.773    1368.1504   -21974.923   -673.07228    7365.3919    79.354884    23.113333    25.508021 
 5199400    223.70813   -324.32124    216009.12   -20723.462    1300.9881    -22024.45   -730.86406    7367.4694    79.353651    23.111767    25.509001 
 5199600     222.0914    -383.1706    216009.12   -20718.138    1291.5859   -22009.724   -984.13912    7369.9791    79.352793    23.111244    25.513418 
 5199800     231.2418   -289.83541    216009.12   -20686.569    1344.8006   -22031.369   -644.00458       7365.8    79.351443     23.11167    25.512588 
 5200000     228.3531   -285.28785    216009.12   -20703.048    1328.0013   -22031.049   -580.68566    7368.1455    79.351576    23.111974    25.508394 
Loop time of 6784.58 on 160 procs for 5200000 steps with 9248 atoms

Performance: 662.208 ns/day, 0.036 hours/ns, 766.444 timesteps/s
97.8% CPU use with 160 MPI tasks x no OpenMP threads

MPI task timing breakdown:
Section |  min time  |  avg time  |  max time  |%varavg| %total
---------------------------------------------------------------
Pair    | 0.24917    | 1413.8     | 5377.6     |5118.7 | 20.84
Neigh   | 0.31337    | 90.146     | 357.63     |1236.6 |  1.33
Comm    | 11.098     | 1660.6     | 5426.6     |4550.3 | 24.48
Output  | 89.512     | 89.578     | 91.401     |   1.5 |  1.32
Modify  | 219.04     | 3433.1     | 6593.6     |4714.9 | 50.60
Other   |            | 97.32      |            |       |  1.43

Nlocal:    57.8 ave 196 max 0 min
Histogram: 72 21 27 0 0 0 0 0 13 27
Nghost:    534.969 ave 914 max 0 min
Histogram: 19 5 0 8 8 32 38 14 23 13
Neighs:    0 ave 0 max 0 min
Histogram: 160 0 0 0 0 0 0 0 0 0
FullNghs:  5858.66 ave 23552 max 0 min
Histogram: 113 7 0 0 0 0 0 1 20 19

Total # of neighbors = 937386
Ave neighs/atom = 101.361
Neighbor list builds = 540242
Dangerous builds = 0
write_data 		${DIR}/data.${NAME}_run
write_data 		run_23/data.${NAME}_run
write_data 		run_23/data.ibeam_cooling_23_run
Total wall time: 1:53:19
