
### Dimensions ###


### IMPORT ATOMS ###
read_data ../Box_Setup/data.Ibeam_240K
  orthogonal box = (0 0 0) to (157.504 36.4877 39.8503)
  8 by 2 by 4 MPI processor grid
  reading atoms ...
  8943 atoms
  reading velocities ...
  8943 velocities
group water type 2
2223 atoms in group water
group graphite type 1
6720 atoms in group graphite


# Define potential
#
pair_style          sw
pair_coeff * * MLC_e.sw C mW

# Add velocity/set timestep
#

fix		1 graphite setforce 0.0 0.0 0.0
velocity 	graphite set 0.0 0.0 0.0
velocity            water create ${START_TEMP} ${SEED} rot yes dist gaussian
velocity            water create 240 ${SEED} rot yes dist gaussian
velocity            water create 240 28933 rot yes dist gaussian
timestep            5.0

# Define output
#
compute 1 water msd
compute 2 water temp


thermo	            100
thermo_style custom step c_2 press vol etotal ke pe c_1[4] density

# Neighbor lists
#
neigh_modify        delay 0 every 1 check yes


# Set fixes
#
fix                 2 water momentum 10 linear 1 1 1 rescale
fix                 3 all nve
fix                 4 water temp/csvr ${START_TEMP} ${START_TEMP} 500.0 928347
fix                 4 water temp/csvr 240 ${START_TEMP} 500.0 928347
fix                 4 water temp/csvr 240 240 500.0 928347

# Run 0.05 ns equilibration
#
dump                1 all custom 100 ${DIR}/eq.${NAME}.dump id type x y z vx vy vz
dump                1 all custom 100 run_29/eq.${NAME}.dump id type x y z vx vy vz
dump                1 all custom 100 run_29/eq.ibeam_cooling_29.dump id type x y z vx vy vz
run                 10000
Neighbor list info ...
  update every 1 steps, delay 0 steps, check yes
  max neighbors/atom: 2000, page size: 100000
  master list distance cutoff = 6.67472
  ghost atom cutoff = 6.67472
  binsize = 3.33736, bins = 48 11 12
  1 neighbor lists, perpetual/occasional/extra = 1 0 0
  (1) pair sw, perpetual
      attributes: full, newton on
      pair build: full/bin/atomonly
      stencil: full/bin/3d
      bin: standard
Per MPI rank memory allocation (min/avg/max) = 0.5062 | 3.768 | 4.796 Mbytes
Step c_2 Press Volume TotEng KinEng PotEng c_1[4] Density 
       0          240   -163.35224    229018.04   -21211.582    1589.6064   -22801.188            0   0.87555383 
     100    242.81171   -381.93932    229018.04   -21180.032    1608.2293   -22788.261   0.84656987   0.87555383 
     200    236.04006   -316.71466    229018.04   -21222.914    1563.3783   -22786.292    1.3016212   0.87555383 
     300    235.56244   -328.61033    229018.04   -21205.147    1560.2148   -22765.362    1.7211276   0.87555383 
     400    238.72737   -302.97086    229018.04   -21210.432    1581.1773   -22791.609    2.0868996   0.87555383 
     500     239.7543   -310.66581    229018.04   -21209.798     1587.979   -22797.777    2.3924476   0.87555383 
     600     233.4342    -235.9021    229018.04   -21323.288    1546.1187   -22869.407     2.806886   0.87555383 
     700    230.80841   -351.06091    229018.04   -21286.904    1528.7272   -22815.631    3.0017712   0.87555383 
     800    236.50307   -269.11541    229018.04    -21341.64     1566.445   -22908.085    3.3311752   0.87555383 
     900    234.20957   -265.37834    229018.04   -21308.738    1551.2543   -22859.992    3.7323322   0.87555383 
    1000    239.90701   -386.73858    229018.04   -21252.358    1588.9905   -22841.348    4.0301425   0.87555383 
    1100    243.17184   -311.55733    229018.04   -21269.693    1610.6146   -22880.308    4.3582794   0.87555383 
    1200    238.14461   -126.74371    229018.04    -21330.72    1577.3175   -22908.038    4.6369031   0.87555383 
    1300    236.23639   -225.70263    229018.04   -21294.895    1564.6786   -22859.574    4.8142143   0.87555383 
    1400    239.47157   -232.54906    229018.04   -21228.987    1586.1064   -22815.094     5.086048   0.87555383 
    1500    238.46901    -381.1634    229018.04   -21222.459    1579.4661   -22801.925    5.2976557   0.87555383 
    1600    242.84559   -506.02707    229018.04    -21194.79    1608.4538   -22803.244    5.7535972   0.87555383 
    1700    236.73108   -262.43726    229018.04   -21203.842    1567.9551   -22771.797    6.1233157   0.87555383 
    1800    242.64004   -327.17871    229018.04   -21203.898    1607.0923    -22810.99    6.2608974   0.87555383 
    1900    244.60754   -270.96289    229018.04   -21119.039    1620.1238   -22739.163    6.5459229   0.87555383 
    2000    252.82756   -274.94999    229018.04   -21087.749    1674.5679   -22762.317    7.0702332   0.87555383 
    2100    236.77059   -131.63436    229018.04   -21108.931    1568.2168   -22677.148    7.3579389   0.87555383 
    2200    244.64286    -253.5962    229018.04    -21088.59    1620.3577   -22708.947    7.7260849   0.87555383 
    2300     241.1768   -266.70671    229018.04   -21123.337    1597.4007   -22720.738     8.279037   0.87555383 
    2400     244.3991     -192.348    229018.04   -21107.275    1618.7432   -22726.018    8.8465592   0.87555383 
    2500    240.57256   -199.62993    229018.04   -21095.347    1593.3986   -22688.746    9.4617666   0.87555383 
    2600    244.90887   -200.10903    229018.04    -21163.89    1622.1196    -22786.01    9.8988648   0.87555383 
    2700    239.09809   -488.31002    229018.04   -21148.784    1583.6327   -22732.417    10.386409   0.87555383 
    2800     235.7471   -326.45103    229018.04   -21152.431    1561.4379   -22713.869    10.798659   0.87555383 
    2900    243.71631   -218.37477    229018.04   -21228.096    1614.2209   -22842.317     11.36926   0.87555383 
    3000    238.03773   -228.84868    229018.04   -21265.512    1576.6095   -22842.121    11.438945   0.87555383 
    3100    234.10582   -228.15195    229018.04   -21255.286    1550.5671   -22805.853    11.875099   0.87555383 
    3200    237.28937    -240.1674    229018.04   -21274.395    1571.6529   -22846.048    12.380353   0.87555383 
    3300    239.38711   -284.28185    229018.04   -21225.808     1585.547   -22811.355    13.001877   0.87555383 
    3400    240.47106   -478.91516    229018.04   -21224.086    1592.7264   -22816.812    13.301178   0.87555383 
    3500    234.56776   -310.46856    229018.04   -21214.333    1553.6267    -22767.96      13.7251   0.87555383 
    3600    238.60665   -256.33366    229018.04   -21200.725    1580.3777   -22781.103    14.316025   0.87555383 
    3700    238.44094   -159.67152    229018.04   -21215.507    1579.2802   -22794.787    14.776146   0.87555383 
    3800    238.62793   -296.15725    229018.04   -21198.707    1580.5187   -22779.225    14.937152   0.87555383 
    3900    237.13258   -124.82277    229018.04   -21197.095    1570.6144    -22767.71    15.201532   0.87555383 
    4000    239.53365   -358.25409    229018.04   -21223.827    1586.5176   -22810.344    15.579667   0.87555383 
    4100    236.77213   -174.60285    229018.04   -21177.553     1568.227    -22745.78    15.857856   0.87555383 
    4200    244.56926    -266.9987    229018.04   -21154.565    1619.8702   -22774.435    16.258374   0.87555383 
    4300    250.71883   -200.17381    229018.04   -21077.171    1660.6011   -22737.772    16.328016   0.87555383 
    4400    241.31465   -315.81636    229018.04    -21086.43    1598.3138   -22684.744    16.310017   0.87555383 
    4500    240.22748   -288.92431    229018.04   -21128.079    1591.1131   -22719.192    16.439881   0.87555383 
    4600    242.88052   -329.19474    229018.04   -21169.272    1608.6851   -22777.957    16.701152   0.87555383 
    4700    237.18534   -287.63917    229018.04   -21202.944    1570.9638   -22773.907    17.188794   0.87555383 
    4800    241.55511   -391.47497    229018.04   -21163.231    1599.9064   -22763.137    17.660642   0.87555383 
    4900    239.64624    -226.7564    229018.04   -21182.696    1587.2633    -22769.96    17.996665   0.87555383 
    5000    239.02359   -246.29054    229018.04   -21212.728    1583.1393   -22795.867    18.547649   0.87555383 
    5100    237.72758   -323.44215    229018.04    -21222.45    1574.5553   -22797.005    18.939702   0.87555383 
    5200    238.54139   -367.56913    229018.04   -21190.314    1579.9455   -22770.259    18.810293   0.87555383 
    5300    236.20325   -406.24613    229018.04   -21242.762    1564.4591   -22807.221    19.184173   0.87555383 
    5400    237.38403   -438.43587    229018.04   -21206.237    1572.2799   -22778.517    19.468227   0.87555383 
    5500    235.53768   -397.49987    229018.04   -21234.377    1560.0508   -22794.427    19.788295   0.87555383 
    5600    228.94218   -211.97365    229018.04   -21247.831    1516.3665   -22764.198    20.081097   0.87555383 
    5700     240.2338   -287.02943    229018.04   -21214.454    1591.1549   -22805.609    20.496042   0.87555383 
    5800    242.25832   -332.24461    229018.04   -21130.853     1604.564   -22735.417    20.795031   0.87555383 
    5900    235.23794   -134.44807    229018.04   -21156.101    1558.0655   -22714.167    21.215637   0.87555383 
    6000    229.90174   -428.61199    229018.04    -21239.83    1522.7219   -22762.552    21.274172   0.87555383 
    6100    234.89136   -507.99915    229018.04   -21219.569      1555.77   -22775.339    21.658414   0.87555383 
    6200    241.83302   -205.17233    229018.04   -21194.437    1601.7471   -22796.184    21.762274   0.87555383 
    6300    237.97146   -189.25554    229018.04   -21159.651    1576.1706   -22735.821    21.981233   0.87555383 
    6400    239.39208   -294.89356    229018.04   -21144.056    1585.5799   -22729.636    22.126553   0.87555383 
    6500    240.78864   -188.98479    229018.04   -21162.199    1594.8299   -22757.029    22.505754   0.87555383 
    6600    237.65275   -320.73185    229018.04   -21205.358    1574.0597   -22779.418    22.718593   0.87555383 
    6700    233.00388   -276.89124    229018.04   -21242.701    1543.2686   -22785.969     23.04997   0.87555383 
    6800    238.37314   -184.25135    229018.04   -21201.635    1578.8311   -22780.467    23.503388   0.87555383 
    6900    230.15067   -152.42976    229018.04   -21245.366    1524.3707   -22769.736    23.974963   0.87555383 
    7000    236.84865   -297.91585    229018.04   -21254.563    1568.7339   -22823.297    24.639942   0.87555383 
    7100    245.51157   -190.05931    229018.04   -21162.775    1626.1115   -22788.887    24.851367   0.87555383 
    7200    238.98996   -264.04635    229018.04   -21160.642    1582.9165   -22743.558     25.35625   0.87555383 
    7300    233.94665   -384.50584    229018.04   -21223.685    1549.5129   -22773.198    25.642621   0.87555383 
    7400    232.61741   -282.09277    229018.04   -21219.026    1540.7089   -22759.735     25.97065   0.87555383 
    7500    232.61646   -264.09168    229018.04   -21237.936    1540.7026   -22778.638    26.428131   0.87555383 
    7600    235.55059   -360.64638    229018.04   -21234.887    1560.1363   -22795.024    26.692175   0.87555383 
    7700    233.34211   -451.55902    229018.04   -21190.667    1545.5088   -22736.176    27.149304   0.87555383 
    7800    238.75258   -263.96434    229018.04   -21144.882    1581.3443   -22726.227    27.391278   0.87555383 
    7900    242.98258    -252.3633    229018.04   -21133.799    1609.3611    -22743.16    27.975413   0.87555383 
    8000     239.7395   -418.45673    229018.04   -21110.494     1587.881   -22698.375    28.068462   0.87555383 
    8100    240.54095   -285.64844    229018.04   -21136.629    1593.1893   -22729.819    28.315503   0.87555383 
    8200    238.48655   -413.05604    229018.04   -21172.463    1579.5823   -22752.045    28.739086   0.87555383 
    8300    236.34921   -240.71998    229018.04   -21187.311    1565.4259   -22752.737    28.836209   0.87555383 
    8400    230.46162   -292.41607    229018.04   -21181.122    1526.4303   -22707.553    28.948697   0.87555383 
    8500    238.99036    -242.1812    229018.04   -21181.418    1582.9192   -22764.337    28.890938   0.87555383 
    8600    243.22109   -340.77188    229018.04   -21132.645    1610.9408   -22743.586    29.157363   0.87555383 
    8700    227.13526   -329.48709    229018.04   -21209.435    1504.3986   -22713.833    29.798847   0.87555383 
    8800    239.42194    -244.1213    229018.04   -21159.935    1585.7777   -22745.713     30.14389   0.87555383 
    8900    234.62161   -195.00988    229018.04   -21194.315    1553.9834   -22748.299    30.771475   0.87555383 
    9000    239.65396   -249.29426    229018.04   -21156.295    1587.3144   -22743.609    31.211255   0.87555383 
    9100    239.24284   -347.95513    229018.04   -21149.375    1584.5914   -22733.966    31.356106   0.87555383 
    9200    237.56762   -297.78782    229018.04   -21192.616    1573.4958   -22766.112    31.541379   0.87555383 
    9300    236.29572   -410.76043    229018.04   -21223.231    1565.0716   -22788.303    31.780929   0.87555383 
    9400    240.68972   -248.14681    229018.04   -21272.834    1594.1747   -22867.009    32.114573   0.87555383 
    9500    236.25384   -189.58122    229018.04   -21232.319    1564.7942   -22797.113    32.670143   0.87555383 
    9600    237.82295   -273.32782    229018.04   -21297.417     1575.187   -22872.604    32.778802   0.87555383 
    9700    238.08117    -343.4584    229018.04   -21244.133    1576.8973    -22821.03    32.882825   0.87555383 
    9800    237.28513    -236.3229    229018.04   -21256.777    1571.6249   -22828.402    33.112762   0.87555383 
    9900    233.40227   -236.36501    229018.04   -21188.458    1545.9072   -22734.366      33.2593   0.87555383 
   10000    245.52811   -375.78857    229018.04   -21095.181     1626.221   -22721.402    33.747728   0.87555383 
Loop time of 14.8197 on 64 procs for 10000 steps with 8943 atoms

Performance: 291.505 ns/day, 0.082 hours/ns, 674.779 timesteps/s
100.0% CPU use with 64 MPI tasks x no OpenMP threads

MPI task timing breakdown:
Section |  min time  |  avg time  |  max time  |%varavg| %total
---------------------------------------------------------------
Pair    | 0.00052885 | 3.7103     | 12.221     | 209.5 | 25.04
Neigh   | 0.00080692 | 0.25011    | 0.91301    |  62.4 |  1.69
Comm    | 0.023907   | 4.1909     | 12.481     | 186.4 | 28.28
Output  | 0.1934     | 0.19347    | 0.19412    |   0.0 |  1.31
Modify  | 0.31675    | 6.338      | 14.463     | 238.6 | 42.77
Other   |            | 0.1369     |            |       |  0.92

Nlocal:    139.734 ave 439 max 0 min
Histogram: 26 10 12 0 0 0 0 0 0 16
Nghost:    824.234 ave 1325 max 0 min
Histogram: 8 0 4 0 0 4 24 5 7 12
Neighs:    0 ave 0 max 0 min
Histogram: 64 0 0 0 0 0 0 0 0 0
FullNghs:  14077.6 ave 53587 max 0 min
Histogram: 40 8 0 0 0 0 0 0 6 10

Total # of neighbors = 900968
Ave neighs/atom = 100.746
Neighbor list builds = 570
Dangerous builds = 0
write_data 	    ${DIR}/data.${NAME}_eq
write_data 	    run_29/data.${NAME}_eq
write_data 	    run_29/data.ibeam_cooling_29_eq

undump              1
unfix               4



################################################
#######         Run Simulation         #########
################################################

reset_timestep      0
timestep	    10.0
log                 ${DIR}/log.run_${NAME}
log                 run_29/log.run_${NAME}
log                 run_29/log.run_ibeam_cooling_29
