
# Set production fixes - Nose/Hoover
#
fix                 4 water temp/csvr ${START_TEMP} ${END_TEMP} 500.0 928347
fix                 4 water temp/csvr 240 ${END_TEMP} 500.0 928347
fix                 4 water temp/csvr 240 227 500.0 928347


## divide "droplet" into core and surface
#region		core_reg cylinder z 135 135 44.6 20 INF units box
#region		surface_reg cylinder z 135 135 44.6 20 INF units box side out
#group		core dynamic all region core_reg
#group		surface dynamic all region surface_reg

## compute pressure core
#compute        peratom_core core stress/atom NULL
#compute        p_core core reduce sum c_peratom_core[1] c_peratom_core[2] c_peratom_core[3]
#variable       press_core equal -(c_p_core[1]+c_p_core[2]+c_p_core[3])/(3*1249982.5)


## compute pressure surface
#compute        peratom_surf surface stress/atom NULL
#compute        p_surf surface reduce sum c_peratom_surf[1] c_peratom_surf[2] #c_peratom_surf[3]
#variable       press_surf equal -(c_p_surf[1]+c_p_surf[2]+c_p_surf[3])/(3*42395)

## compute total pressure of drop
compute        peratom water stress/atom NULL
compute        p water reduce sum c_peratom[1] c_peratom[2] c_peratom[3]
variable       press equal -(c_p[1]+c_p[2]+c_p[3])/(3*58301)


# compute order parameter
compute        3 all orientorder/atom nnn NULL cutoff 3.5

# compute center of mass of bridge
compute 	4 water com

# Run simulation
thermo_style        custom step c_2 press vol etotal ke pe v_press c_1[4] c_4[*]
thermo              200
dump		     1 water custom 400 ${DIR}/prod.${NAME}.dump id type x y z vx vy vz c_3[*] c_peratom[*]
dump		     1 water custom 400 run_29/prod.${NAME}.dump id type x y z vx vy vz c_3[*] c_peratom[*]
dump		     1 water custom 400 run_29/prod.ibeam_cooling_29.dump id type x y z vx vy vz c_3[*] c_peratom[*]
run                 ${STEPS}
run                 5200000
Neighbor list info ...
  update every 1 steps, delay 0 steps, check yes
  max neighbors/atom: 2000, page size: 100000
  master list distance cutoff = 6.67472
  ghost atom cutoff = 6.67472
  binsize = 3.33736, bins = 48 11 12
  2 neighbor lists, perpetual/occasional/extra = 1 1 0
  (1) pair sw, perpetual
      attributes: full, newton on
      pair build: full/bin/atomonly
      stencil: full/bin/3d
      bin: standard
  (2) compute orientorder/atom, occasional, copy from (1)
      attributes: full, newton on
      pair build: copy
      stencil: none
      bin: none
Per MPI rank memory allocation (min/avg/max) = 0.906 | 5.941 | 7.203 Mbytes
Step c_2 Press Volume TotEng KinEng PotEng v_press c_1[4] c_4[1] c_4[2] c_4[3] 
       0    245.52811   -375.78857    229018.04   -21095.181     1626.221   -22721.402   -960.42505    33.747728    78.590976    15.908318    29.661304 
     200    239.21075   -179.47686    229018.04   -21142.268    1584.3789   -22726.647   -197.25098    34.830716      78.5886    15.904907    29.680321 
     400    240.74227   -312.40682    229018.04   -21174.515    1594.5227   -22769.038   -736.65862    37.178885    78.588271    15.903447    29.668309 
     600    230.47382    -287.4211    229018.04   -21249.722    1526.5111   -22776.233   -661.83569    38.827482    78.587605    15.904408    29.688133 
     800    236.36372   -423.50813    229018.04   -21248.025     1565.522   -22813.547    -1184.296    40.109724    78.586446     15.90351    29.700141 
    1000    245.10208   -204.88951    229018.04   -21108.225    1623.3993   -22731.624   -323.15479    41.396577    78.587426    15.900961    29.721512 
    1200    243.81888   -293.07862    229018.04   -21200.492    1614.9002   -22815.392   -668.98067    42.530109    78.586301    15.904361    29.711408 
    1400    239.10231   -240.80189    229018.04   -21098.494    1583.6606   -22682.154   -433.18606     44.20606    78.586148    15.906423     29.72151 
    1600    243.55992   -318.38306    229018.04   -21120.451     1613.185   -22733.636   -708.23545    46.062527    78.584816    15.906614    29.703101 
    1800    239.93036   -340.92711    229018.04   -21154.978    1589.1451   -22744.123   -819.79169    47.278276    78.585259     15.90815    29.684993 
    2000    245.66477   -156.14997    229018.04   -21027.772    1627.1262   -22654.898   -122.14357    48.301801    78.585683    15.907756    29.699024 
    2200    248.78845   -318.33977    229018.04   -21061.577    1647.8155   -22709.392   -738.55866    49.326521    78.585369    15.909136    29.673817 
    2400    243.64876   -232.14167    229018.04   -21122.039    1613.7735   -22735.813   -411.54995    50.272504    78.584035     15.90742    29.678057 
    2600    240.90825   -456.89145    229018.04   -21137.397    1595.6221   -22733.019   -1302.6174    52.004689    78.581731    15.910572    29.668765 
    2800    243.28837    -74.13318    229018.04   -21137.395    1611.3865   -22748.782    192.91398    53.321556    78.580141    15.909796    29.671541 
    3000     237.2452   -281.08542    229018.04   -21214.723    1571.3603   -22786.083   -583.52318    55.162458    78.579686    15.909759    29.672532 
    3200    232.14167   -313.27167    229018.04    -21223.34    1537.5578   -22760.898   -706.86489     57.47442    78.579181    15.909437    29.672078 
    3400    236.33946   -243.35277    229018.04    -21139.11    1565.3613   -22704.471   -467.70242    58.456251      78.5793    15.908212    29.665039 
    3600    235.41859   -323.17437    229018.04    -21115.14    1559.2621   -22674.402   -750.00043    60.076393    78.580035    15.906696    29.652938 
    3800    236.21688   -390.39926    229018.04   -21129.319    1564.5495   -22693.869   -989.23803    61.224584    78.581142    15.905977    29.649357 
    4000    240.48184   -306.06777    229018.04   -21177.932    1592.7978   -22770.729   -688.94116    62.977406    78.583893    15.905272    29.640686 
    4200    233.17995   -309.05517    229018.04   -21119.747    1544.4347   -22664.182   -709.15698    64.609088    78.583136    15.904955    29.626981 
    4400    243.45849   -348.07997    229018.04   -21040.005    1612.5132   -22652.519    -888.5272    65.584756    78.584912    15.903826    29.641836 
    4600    237.24185   -444.46282    229018.04   -21136.775    1571.3382   -22708.113   -1224.8203    66.645722    78.585618    15.902136    29.631927 
    4800    243.38983   -461.29523    229018.04   -21141.001    1612.0585    -22753.06    -1314.674    67.278415    78.586786    15.901823    29.616882 
    5000    236.89775   -242.73428    229018.04   -21172.969    1569.0591   -22742.028   -461.12917    68.739193    78.586247    15.904045    29.617957 
    5200    240.90125    -362.0985    229018.04   -21153.107    1595.5757   -22748.682   -933.53502    70.727053    78.585961    15.906998    29.618179 
    5400    238.86051   -518.70982    229018.04    -21162.39    1582.0591   -22744.449    -1548.746      73.5067     78.58717    15.907443    29.631631 
    5600    237.19902   -468.76855    229018.04   -21261.161    1571.0545   -22832.215   -1373.9955    74.493681     78.58882    15.908418    29.620013 
    5800    244.96279    -347.9699    229018.04   -21141.169    1622.4767   -22763.646   -867.70585    76.043189    78.588392    15.909346     29.60391 
    6000     231.8056   -336.78256    229018.04   -21314.121    1535.3319   -22849.453   -798.53332    76.575671    78.587755    15.911237    29.597606 
    6200    237.98184   -246.32607    229018.04    -21225.36    1576.2394     -22801.6   -484.00125    77.843703     78.58967    15.910966     29.61026 
    6400    242.51034   -246.67992    229018.04    -21128.57    1606.2333   -22734.803   -481.35574    80.278597    78.589209    15.910616    29.613299 
    6600     240.3585   -271.62419    229018.04   -21222.739    1591.9809    -22814.72   -562.45001    81.925087    78.588666      15.9141     29.62828 
    6800    241.81941   -220.61331    229018.04   -21161.251     1601.657   -22762.908   -353.24835     83.50253     78.58956    15.918566    29.612463 
    7000    236.90622   -136.17904    229018.04   -21223.525    1569.1152    -22792.64   -27.432958    84.101231    78.590938    15.918911    29.598669 
    7200    239.70593    -225.6951    229018.04   -21148.634    1587.6587   -22736.293   -374.14816    84.656844    78.590311    15.917992    29.624846 
    7400    236.43763   -260.98445    229018.04   -21239.523    1566.0115   -22805.535   -513.06584    86.032534    78.590212    15.917173    29.611538 
    7600    232.61624   -246.35254    229018.04   -21222.345    1540.7011   -22763.047   -431.34077    88.240653    78.591429    15.915304    29.616958 
    7800    242.61295   -278.28076    229018.04   -21135.341    1606.9129   -22742.254   -563.11646    90.290094    78.589993    15.912853    29.611832 
    8000    238.04607   -298.28798    229018.04   -21149.392    1576.6648   -22726.057   -682.72565    92.517722    78.588449      15.9156    29.610331 
    8200    239.05641   -313.03549    229018.04   -21241.522    1583.3566   -22824.879    -721.7286    92.868439    78.588345    15.916726    29.617489 
    8400    239.53822   -278.25858    229018.04   -21256.606    1586.5479   -22843.154   -563.40905    93.668704    78.588072    15.918693    29.628634 
    8600    246.88372   -224.28149    229018.04   -21146.963    1635.1997   -22782.163   -364.46578    93.883175    78.588857    15.920863     29.61333 
    8800    240.61885   -293.89707    229018.04   -21133.987    1593.7053   -22727.692   -614.74755    95.951535    78.588275    15.923157    29.628916 
    9000     237.6296    -262.8683    229018.04   -21106.622    1573.9063   -22680.529   -561.79753    97.590905    78.589269    15.925714     29.61604 
    9200    235.15917   -242.88303    229018.04   -21146.093    1557.5438   -22703.636    -469.5373    100.81251     78.58876     15.92771    29.622626 
    9400    241.47333   -318.11579    229018.04   -21209.414    1599.3648   -22808.779   -713.70213    102.23657    78.588675    15.928841      29.6264 
    9600    233.48046   -247.57935    229018.04    -21209.97    1546.4251   -22756.396   -475.55141    104.37744    78.588873    15.930163    29.611181 
    9800    242.84051   -326.09917    229018.04   -21135.065    1608.4201   -22743.485   -747.38525    106.18785    78.590292    15.930202    29.634222 
   10000    242.28503   -373.86123    229018.04   -20994.653     1604.741   -22599.394   -973.19504    107.11682    78.590956    15.929113    29.635457 
   10200    246.04849   -273.20456    229018.04    -21028.25    1629.6677   -22657.918   -607.23403    109.33474    78.592921    15.928868    29.639793 
   10400    243.04854   -288.81378    229018.04   -21054.312     1609.798    -22664.11   -659.02813    111.40779    78.593366    15.929292    29.652218 
   10600    243.36416   -244.46636    229018.04   -21034.655    1611.8884   -22646.543   -473.60472    113.51585    78.592633    15.929333    29.666085 
   10800    240.19151   -291.73143    229018.04   -21042.579    1590.8748   -22633.454   -638.69439    114.23436    78.593508    15.931756    29.698524 
   11000    239.04585   -410.82178    229018.04   -21046.572    1583.2867   -22629.858   -1120.0158    114.55639    78.591042    15.934055    29.703254 
   11200     234.4167   -378.81881    229018.04   -21022.833    1552.6262   -22575.459   -988.22503    115.96773    78.590548    15.933096    29.713981 
   11400    236.63397   -390.62043    229018.04   -21033.315     1567.312   -22600.627   -1055.6349    117.30222    78.587465     15.93354    29.699865 
   11600    239.41446   -208.58894    229018.04   -21012.245    1585.7282   -22597.973   -345.48869    119.18028    78.585226    15.934809    29.719259 
   11800    242.61269   -276.38871    229018.04   -21061.496    1606.9112   -22668.407   -580.26837    119.56475    78.586779    15.936767    29.700943 
   12000    247.21347   -345.69354    229018.04   -21030.144    1637.3838   -22667.528   -859.09371    122.50368    78.585142      15.9369    29.694605 
   12200    241.06962   -253.01636    229018.04   -21102.665    1596.6908   -22699.356   -484.18268    123.70661    78.581749    15.935375    29.702266 
   12400    246.27405   -152.00137    229018.04   -21041.659    1631.1617   -22672.821   -108.23399    124.77471    78.579988    15.932589    29.699725 
   12600    242.67702   -441.18975    229018.04   -21050.258    1607.3373   -22657.595   -1190.1632    126.62776    78.580351    15.934712    29.722766 
   12800    239.82262   -317.70764    229018.04   -21164.323    1588.4315   -22752.755   -773.66779    127.76644    78.583297    15.937198    29.724841 
   13000    234.98346   -355.91577    229018.04   -21214.874      1556.38   -22771.254   -936.62823    128.92928     78.58391    15.936175    29.729839 
   13200    240.98836   -205.28041    229018.04   -21139.992    1596.1527   -22736.145   -278.30702    129.83304    78.583507    15.939404    29.722993 
   13400    238.78996   -169.74175    229018.04   -21080.958    1581.5918    -22662.55    -170.4098    130.08693    78.582783    15.941824    29.711779 
   13600    239.84925   -229.28436    229018.04   -21065.379    1588.6079   -22653.987   -397.44961    129.93287    78.583271    15.940328    29.710729 
   13800    234.23319   -428.78434    229018.04   -21107.308    1551.4107   -22658.719   -1184.4845     132.6761    78.584838    15.939931    29.702848 
   14000    239.12662   -362.33309    229018.04   -21089.642    1583.8217   -22673.464   -921.32174    135.53969    78.584736    15.942009    29.728597 
   14200    236.12993   -158.25629    229018.04    -21160.04    1563.9735   -22724.013    -95.12678    136.66128    78.584933    15.943337    29.720454 
   14400    230.17143    -367.8511    229018.04   -21226.304    1524.5082   -22750.812   -925.24272    140.14815    78.584301    15.940699    29.730288 
   14600    243.34017   -281.71551    229018.04   -21180.396    1611.7295   -22792.126   -573.82949    139.46913    78.584284    15.940855    29.745034 
   14800    239.92308   -258.41237    229018.04   -21151.591    1589.0969   -22740.688   -538.83045    140.39228    78.587131    15.937979    29.765401 
   15000    238.26166   -195.00052    229018.04   -21138.601    1578.0927   -22716.693   -273.97004    140.99035    78.588635    15.938245    29.788564 
   15200    238.55616   -305.44055    229018.04   -21233.857    1580.0433     -22813.9   -729.48199    141.77835    78.590279    15.938375    29.791582 
   15400    241.27266   -214.44408    229018.04   -21185.068    1598.0357   -22783.104   -324.72798    142.73058    78.590754    15.938018    29.797792 
   15600    234.14341   -185.05126    229018.04   -21267.446    1550.8161   -22818.262   -237.95293    144.45408    78.591539    15.938313      29.7979 
   15800    247.75209    -390.6227    229018.04   -21160.234    1640.9513   -22801.185   -1061.7779    146.73531    78.592438    15.936492    29.770473 
   16000    235.52321   -159.72941    229018.04   -21215.028     1559.955   -22774.983   -104.07612     147.3537    78.592094    15.936968    29.776573 
   16200    248.12255   -304.49163    229018.04   -21137.967     1643.405   -22781.372   -682.80889    148.60919    78.591818    15.936153    29.774589 
   16400    241.41765    -200.1698    229018.04   -21172.055     1598.996   -22771.051   -308.08311    150.67611    78.594528    15.936916    29.761572 
   16600    244.18227   -371.74106    229018.04   -21215.734    1617.3071   -22833.041   -977.91411    152.25317    78.596368    15.935124    29.763138 
   16800    237.20503   -100.19836    229018.04   -21184.402    1571.0943   -22755.496    114.90901    155.00638     78.59424     15.93486    29.742428 
   17000    241.81767   -323.08256    229018.04   -21162.162    1601.6455   -22763.808   -756.51896    157.48103    78.594264    15.934599    29.730368 
   17200    235.71372   -286.91797    229018.04   -21195.322    1561.2168   -22756.539   -628.20019    159.20424    78.594867    15.932222    29.716473 
   17400    238.64955   -315.11821    229018.04   -21132.363    1580.6618   -22713.025   -759.48267    162.15098    78.595113    15.932153    29.713877 
   17600    242.72655   -242.30529    229018.04    -21062.77    1607.6653   -22670.435   -502.81569    163.68088    78.595393    15.931678    29.709323 
   17800    236.61884   -391.22725    229018.04   -21088.703    1567.2117   -22655.915    -1036.439    165.74849     78.59625    15.929912    29.709894 
   18000    237.75439   -110.54961    229018.04   -21120.884    1574.7329   -22695.617    42.482656    166.33508    78.597736    15.930595    29.718661 
   18200    230.86268   -279.40924    229018.04   -21170.191    1529.0866   -22699.278   -607.48295     168.1582    78.600218      15.9315    29.701758 
   18400    234.77005   -376.02105    229018.04   -21172.376    1554.9666   -22727.342   -980.10479    168.22773     78.59976    15.934303    29.687421 
   18600    242.59686   -419.51323    229018.04   -21159.901    1606.8063   -22766.707   -1152.4681    169.44567    78.598324    15.931952    29.677604 
   18800    234.98289   -350.19907    229018.04   -21152.054    1556.3763   -22708.431   -871.76934    170.99695    78.598312    15.930373     29.65659 
   19000    233.75022   -243.12632    229018.04   -21170.443    1548.2118   -22718.655    -483.9978    173.19882    78.598024    15.928345    29.634954 
   19200    238.87684   -452.81386    229018.04   -21118.055    1582.1673   -22700.223   -1295.5443    171.78116    78.597247    15.926804    29.620221 
   19400    242.81221   -104.84673    229018.04   -21081.662    1608.2326   -22689.895    137.33777    172.53009    78.597584    15.926378     29.60034 
   19600    242.82341     -294.586    229018.04   -21143.783    1608.3069    -22752.09   -646.16579    174.90569    78.597825    15.928845    29.581552 
   19800    245.57023   -202.43859    229018.04   -21122.254       1626.5   -22748.754   -293.78069    174.79817    78.598216    15.931305    29.572948 
   20000    238.23966   -104.85968    229018.04   -21170.196     1577.947   -22748.143     97.46232    177.10462    78.596369    15.931808    29.557898 
   20200    243.65902   -316.50475    229018.04   -21109.146    1613.8414   -22722.988   -740.28474    178.81325    78.596086    15.933546    29.566202 
   20400    237.56728   -300.66393    229018.04   -21209.155    1573.4936   -22782.649   -734.01574    178.44985    78.595198    15.932288    29.555699 
   20600    238.11622    -440.6611    229018.04   -21138.537    1577.1294   -22715.666   -1251.7216    179.69364    78.594736    15.932731    29.553594 
   20800    240.61238   -334.60845    229018.04   -21121.797    1593.6624   -22715.459   -831.11636    179.77377     78.59476    15.931298    29.522302 
   21000    241.85064   -63.361505    229018.04   -21114.989    1601.8638   -22716.852    202.57249    181.03814     78.59348     15.92765    29.517539 
   21200    246.80303   -267.46417    229018.04    -21068.78    1634.6653   -22703.445   -533.13437    183.59525    78.590905    15.926445    29.512394 
   21400    238.81392   -304.52083    229018.04   -21160.911    1581.7506   -22742.662   -722.37564    186.72067    78.591243    15.927608    29.537856 
   21600    245.40773   -275.72145    229018.04   -21082.102    1625.4237   -22707.526   -624.12033    189.23536     78.59312    15.928036    29.531575 
   21800    238.57297   -239.47305    229018.04   -21087.815    1580.1547   -22667.969   -450.90003    189.83082    78.593819    15.925791    29.508428 
   22000    238.94727   -356.74634    229018.04   -21152.067    1582.6338   -22734.701   -952.29091    191.91112    78.593752     15.92515     29.49115 
   22200    236.76246   -432.18863    229018.04    -21113.92     1568.163   -22682.083   -1225.9854    192.83125    78.596336    15.926604    29.495124 
   22400      239.852   -291.67257    229018.04   -21167.132    1588.6261   -22755.758   -637.17836    193.84439    78.597271    15.925478    29.487473 
   22600     244.6802    -279.4856    229018.04   -21157.953    1620.6051   -22778.558   -617.71174     194.8739     78.59441    15.922082    29.494916 
   22800    242.36921    -222.6007    229018.04    -21152.47    1605.2985   -22757.769   -392.94642    195.93971     78.59497    15.919412    29.493647 
   23000    238.09373   -168.33567    229018.04   -21162.563    1576.9805   -22739.544   -150.69965     196.4555     78.59315     15.91877    29.482453 
   23200    234.58219    -212.9758    229018.04   -21192.938    1553.7223    -22746.66   -346.59595    196.79115    78.593294    15.920365     29.46884 
   23400    244.59405   -315.66871    229018.04    -21112.92    1620.0345   -22732.955   -739.67827    197.49817    78.594104    15.918362     29.46762 
   23600    238.20587     -190.852    229018.04   -21209.943    1577.7232   -22787.666    -265.0634    197.33841    78.595279    15.915862    29.465058 
   23800     232.3276   -370.15667    229018.04    -21238.59    1538.7893   -22777.379   -964.11034    197.51753    78.596839    15.915261    29.491039 
   24000    243.27354   -380.86638    229018.04   -21128.416    1611.2882   -22739.704   -999.29926    198.53296     78.59604    15.915612    29.494128 
   24200    237.58414   -389.89897    229018.04   -21170.303    1573.6053   -22743.908   -1062.2371    200.52609    78.594684    15.916803    29.500283 
   24400    241.92405   -196.05467    229018.04   -21154.613      1602.35   -22756.963   -294.03889    200.84354    78.594479    15.915422    29.507366 
   24600    231.66348   -323.88893    229018.04   -21195.077    1534.3906   -22729.468   -774.24319    202.76089    78.593993    15.915077    29.505988 
   24800    239.79067   -307.89151    229018.04   -21160.136    1588.2199   -22748.356   -686.14686    203.36787    78.594004     15.91637    29.505776 
   25000    237.40287   -205.09236    229018.04   -21113.137    1572.4046   -22685.541   -279.82458    204.80284    78.597116    15.915669    29.512233 
   25200    244.34584   -431.13074    229018.04   -21103.753    1618.3904   -22722.144   -1206.0264    205.25221     78.59804    15.914565    29.530257 
   25400    242.20309   -249.35476    229018.04    -21114.43    1604.1982   -22718.628   -508.27655    207.40224    78.596299    15.914469    29.531756 
   25600    245.72726    -226.6407    229018.04   -21109.175    1627.5401   -22736.715   -365.19604    208.65917    78.594923    15.915909    29.519688 
   25800    237.98913   -411.17935    229018.04   -21158.923    1576.2876   -22735.211   -1167.9464    208.53427    78.595105    15.914762    29.550428 
   26000    233.32585   -312.58883    229018.04   -21183.534    1545.4011   -22728.935   -740.67154    209.86701    78.594627    15.914273    29.558902 
   26200    239.99472   -278.39977    229018.04   -21128.094    1589.5714   -22717.665   -594.57486    210.49873    78.593475    15.915976     29.54374 
   26400    238.93807   -328.32977    229018.04   -21178.458    1582.5729   -22761.031   -774.31159     210.7812    78.591663    15.917782    29.535176 
   26600    240.11783   -280.40679    229018.04   -21102.692    1590.3868   -22693.079   -639.09766    211.48886    78.589502    15.918054    29.547984 
   26800     241.5653   -313.04966    229018.04   -21062.411    1599.9739   -22662.385   -711.45594    213.94388    78.590334    15.918695    29.581668 
   27000    241.15816   -249.08516    229018.04   -21072.669    1597.2773   -22669.947   -498.38163    215.14394    78.590258    15.918115    29.573232 
   27200    240.95308   -297.12483    229018.04   -20983.872     1595.919   -22579.791   -695.09119    217.01983    78.589122    15.915832    29.552241 
   27400    238.36534   -321.70978    229018.04   -21039.908    1578.7794   -22618.688   -764.42596    217.70814    78.588658    15.913172    29.526583 
   27600     241.3965   -355.52975    229018.04   -21072.799    1598.8559   -22671.655   -967.37006    220.28034     78.59155    15.912763    29.533329 
   27800    235.79061    -96.11017    229018.04   -21198.466    1561.7261   -22760.192    111.29499    222.65798    78.592346    15.916375    29.538033 
   28000     239.5788   -188.10518    229018.04   -21117.686    1586.8166   -22704.502   -279.93422    225.00303    78.592579    15.917178    29.559671 
   28200    240.92591   -329.05568    229018.04   -21056.756     1595.739   -22652.495   -816.22733    226.51166    78.592584    15.917524    29.564363 
   28400    236.51151   -364.04451    229018.04    -21058.64    1566.5008    -22625.14    -953.7443    227.60721    78.593652    15.917397    29.581604 
   28600    244.98537   -275.70458    229018.04   -21062.098    1622.6263   -22684.725   -572.76445     229.2033    78.592942    15.917179    29.575893 
   28800    237.63882   -384.91744    229018.04   -21143.377    1573.9674   -22717.344   -1061.8487    230.47403    78.592728    15.917981    29.555931 
   29000     237.7517   -397.18827    229018.04    -21086.93    1574.7151   -22661.645   -1026.3972    231.53706    78.593924    15.917242    29.530209 
   29200    237.57533   -280.41039    229018.04   -21099.272    1573.5469   -22672.818   -579.57219    231.22931    78.592914    15.917661    29.522991 
   29400    239.96894   -301.18918    229018.04   -21080.845    1589.4007   -22670.246   -683.76889    232.50933    78.591881    15.916901    29.513078 
   29600    240.90394   -388.29246    229018.04   -21108.551    1595.5935   -22704.145    -1048.129    234.26996    78.591813    15.916101    29.514156 
   29800    237.71141   -459.98778    229018.04   -21088.767    1574.4482   -22663.215   -1301.7652    237.40374    78.591726     15.91667    29.527428 
   30000     244.2445   -267.26262    229018.04   -21101.609    1617.7192   -22719.329   -564.87139    237.03102    78.592062    15.919854    29.522046 
   30200    234.13369   -454.60296    229018.04   -21105.521    1550.7517   -22656.273   -1268.3569    238.46395    78.592545    15.922688    29.517774 
   30400     239.6958   -304.10117    229018.04   -21149.576    1587.5915   -22737.167   -675.12293    238.83256    78.592169    15.923146     29.52409 
   30600    228.58632    -395.9232    229018.04   -21247.739    1514.0095   -22761.749    -1062.764    240.06888    78.593115    15.922523    29.542946 
   30800     232.5734   -470.81741    229018.04   -21144.449    1540.4173   -22684.866   -1363.0696    242.58496    78.592286    15.921615    29.551224 
   31000    242.59823   -188.33737    229018.04   -21126.219    1606.8154   -22733.034   -256.78008    244.09422    78.592732    15.919181    29.574962 
   31200    244.37901   -363.31329    229018.04    -21063.79    1618.6102     -22682.4   -926.79302     246.0455    78.592776    15.921123    29.558611 
   31400    246.58528   -294.66061    229018.04   -21140.372    1633.2231   -22773.595   -649.46386    247.68542    78.594026    15.925018    29.564951 
   31600    244.13506    -188.4881    229018.04   -21082.032    1616.9944   -22699.026   -249.79128    249.63997     78.59285    15.926315    29.571028 
   31800    238.76707   -319.97925    229018.04   -21142.312    1581.4402   -22723.752   -744.41733    250.40171    78.592336    15.925367    29.569523 
   32000    240.54597   -210.73682    229018.04   -21104.995    1593.2226   -22698.217   -326.43448    252.26631    78.594821    15.926188    29.594829 
   32200    232.79033   -215.71982    229018.04   -21173.165    1541.8541   -22715.019   -371.05715     252.9099    78.595661    15.923548    29.593227 
   32400    236.96394   -324.69001    229018.04   -21163.327    1569.4974   -22732.824     -785.675    253.43341    78.596312    15.924173    29.592998 
   32600    237.41091   -265.10956    229018.04    -21171.42    1572.4579   -22743.878   -558.43888    253.55897    78.596006    15.926603    29.619088 
   32800    233.76379   -184.63671    229018.04   -21164.878    1548.3017    -22713.18   -235.29078    255.12448    78.597156    15.927461     29.60966 
   33000    239.96034   -335.60429    229018.04   -21127.627    1589.3437   -22716.971   -812.04445    256.01679    78.599122    15.928505     29.62211 
   33200    240.92858   -178.04802    229018.04   -21141.077    1595.7567   -22736.834   -161.37968    256.35106    78.598736    15.928026    29.622037 
   33400    239.22473   -422.08506    229018.04   -21126.793    1584.4715   -22711.265   -1124.7362    257.69591    78.599535    15.925651    29.610984 
   33600    235.29534   -231.92314    229018.04   -21208.621    1558.4457   -22767.066   -396.79636    259.15953    78.599529    15.922777     29.60851 
   33800    247.72549     -323.127    229018.04   -21106.281    1640.7751   -22747.056   -780.59031    261.24847    78.596862    15.920774    29.610704 
   34000    236.57138   -391.62696    229018.04    -21185.69    1566.8974   -22752.588   -1055.0411     261.3121    78.596932    15.918961    29.603167 
   34200    240.37246   -290.83764    229018.04   -21176.899    1592.0733   -22768.972   -618.82971    263.06106    78.595553    15.920004    29.598909 
   34400    235.63036   -179.53123    229018.04    -21193.38    1560.6647   -22754.045     -201.273     263.0874    78.593935    15.921254    29.580056 
   34600    236.46818   -364.55121    229018.04   -21149.412    1566.2139   -22715.626   -911.92428    264.54854    78.591545     15.91947    29.595749 
   34800    242.69371   -234.44603    229018.04   -21111.023    1607.4478   -22718.471   -430.36986    264.40988    78.592297    15.920211    29.572158 
   35000    235.84145   -425.80323    229018.04   -21097.156    1562.0628   -22659.219   -1167.0698    266.62806    78.593761    15.921579    29.571077 
   35200    245.18227   -233.16917    229018.04   -21114.825    1623.9305   -22738.756   -427.65334    266.52459    78.592988    15.923395    29.574984 
   35400    243.67079   -404.65522    229018.04   -21060.945    1613.9194   -22674.864   -1049.0639    267.51975    78.594353      15.9238      29.5734 
   35600    235.09586     -362.065    229018.04   -21121.171    1557.1245   -22678.296   -932.82487     270.3281    78.595969    15.921973    29.573743 
   35800    241.42447   -277.65596    229018.04   -21048.236    1599.0412   -22647.277   -587.18313    273.42197    78.596482     15.92235    29.589814 
   36000    242.16814   -301.21715    229018.04   -21140.108    1603.9668   -22744.075   -662.09475    273.94476    78.597445    15.921112    29.603879 
   36200    233.18202   -473.40314    229018.04   -21143.252    1544.4485     -22687.7   -1332.6639    277.38278    78.598552     15.92166    29.565212 
   36400    248.29344   -138.77719    229018.04   -21103.867    1644.5368   -22748.404   -82.323349    278.95613     78.59732    15.922087    29.560807 
   36600    234.11695   -394.63826    229018.04   -21119.144    1550.6408   -22669.784   -1068.0184    280.16514    78.596925    15.922702    29.556846 
   36800    239.75198   -284.16468    229018.04   -21121.764    1587.9637   -22709.728   -553.59144    278.68602    78.597633    15.920306    29.557146 
   37000    241.81696   -443.96765    229018.04   -21069.799    1601.6408    -22671.44   -1230.4975    280.42443    78.598199    15.918844     29.54843 
   37200    234.14217   -302.45662    229018.04   -21197.892    1550.8078     -22748.7   -712.91525    278.89531    78.595836     15.91963    29.511872 
   37400    236.04543   -254.99824    229018.04   -21134.734    1563.4139   -22698.148   -491.45121    280.19779    78.595382     15.92184    29.509778 
   37600    240.51253   -304.27911    229018.04   -21084.406    1593.0011   -22677.407   -712.31588    282.33357     78.59841    15.920074    29.494772 
   37800    236.16719   -348.63983    229018.04   -21123.926    1564.2203   -22688.146   -870.54199    283.40168    78.600487    15.918713     29.51319 
   38000    237.39177   -280.37486    229018.04   -21086.828    1572.3311   -22659.159   -626.47375    283.60606    78.600538    15.921837     29.50846 
   38200    238.70462   -339.63563    229018.04   -21068.361    1581.0266   -22649.387   -793.44528    288.04042    78.601255    15.924407    29.531224 
   38400    236.91069   -271.25501    229018.04   -21124.332    1569.1448   -22693.477   -565.61501    289.72409    78.599758    15.926885    29.545286 
   38600    241.88202   -280.40406    229018.04   -21140.373    1602.0717   -22742.445   -583.77093    291.08065      78.5988    15.928325    29.536358 
   38800    239.91783   -359.49413    229018.04   -21135.133    1589.0621   -22724.195   -901.21864    291.47946    78.598164     15.92571     29.54849 
   39000    246.92066   -214.26832    229018.04   -21123.236    1635.4444    -22758.68   -345.92163     292.8938    78.599576    15.926799    29.542692 
   39200    237.41764   -315.38945    229018.04    -21179.04    1572.5025   -22751.543   -746.57283    297.43143    78.601238     15.92833    29.549378 
   39400    234.14064   -55.790142    229018.04   -21113.302    1550.7977     -22664.1    243.87773     297.4297    78.603164    15.927177    29.547228 
   39600    242.36341   -251.58183    229018.04   -21144.829    1605.2601   -22750.089   -467.68892    299.88358    78.603675    15.926731    29.533952 
   39800    250.33548    -341.9606    229018.04   -20997.191     1658.062   -22655.253   -840.77601     299.0702    78.604362    15.925967    29.539366 
   40000     243.6984   -186.12135    229018.04   -21140.133    1614.1022   -22754.235   -234.71888    299.81862    78.604266    15.929404    29.515493 
   40200    231.27116   -328.14362    229018.04   -21232.173    1531.7921   -22763.965   -783.72669    300.09598    78.601707    15.929586       29.496 
   40400    236.69088   -447.40692    229018.04   -21079.064    1567.6889   -22646.753    -1261.008    300.54984    78.600104    15.933409    29.473123 
   40600    239.34622   -335.70421    229018.04   -21179.624    1585.2762     -22764.9   -802.61168    302.30964    78.600719    15.935024     29.47322 
   40800    237.91382   -361.97685    229018.04    -21128.35    1575.7889   -22704.138   -949.25004    301.92181    78.599697    15.935125     29.46795 
   41000    239.25808   -204.91693    229018.04   -21036.847    1584.6924    -22621.54   -304.95843    300.86303    78.599694    15.933711    29.438249 
   41200    243.57547   -337.54739    229018.04   -21022.794     1613.288   -22636.082    -828.7893    301.95743     78.60079    15.932606    29.458779 
   41400    240.50707   -265.39434    229018.04    -21083.24    1592.9649   -22676.205   -513.61641    306.06238    78.601165    15.932185    29.448964 
   41600    242.88616   -242.52953    229018.04   -21017.155    1608.7225   -22625.878   -430.15072    306.32646    78.602414    15.932657     29.44275 
   41800    234.63206   -317.96976    229018.04   -21065.249    1554.0526   -22619.301   -721.95199      309.269    78.602052     15.93343    29.455527 
   42000    238.22522   -502.73993    229018.04   -21115.671    1577.8514   -22693.523   -1480.0809    311.44232    78.603141    15.933528    29.435259 
   42200    233.63019   -225.82249    229018.04   -21109.821    1547.4169   -22657.238   -381.34755     312.0979    78.604362    15.932148    29.456858 
   42400    243.78741   -380.59268    229018.04   -21124.048    1614.6917    -22738.74   -999.96003    313.14094    78.602826    15.933931    29.473404 
   42600    241.06621   -267.73955    229018.04   -21158.231    1596.6683   -22754.899   -544.68024     312.3919    78.600593    15.935379    29.473765 
   42800    240.46602   -83.672292    229018.04   -21057.841     1592.693   -22650.534    166.35988    312.95896    78.600414    15.937635     29.45585 
   43000    249.44635   -107.04843    229018.04   -21052.943     1652.173   -22705.116    75.301472    314.89094    78.598577    15.936628    29.456989 
   43200    236.77524   -312.06295    229018.04   -21093.693    1568.2476   -22661.941   -733.64672    315.71466    78.598801    15.937156    29.475351 
   43400    242.61198   -370.61003    229018.04   -21119.414    1606.9065   -22726.321   -975.86473    317.71764    78.599102    15.939593    29.510105 
   43600    241.98855   -282.03832    229018.04    -21145.14    1602.7773   -22747.917   -586.07972    318.33707    78.601746    15.940002    29.509653 
   43800    235.87936   -240.08115    229018.04   -21091.423    1562.3139   -22653.737   -472.36272    318.68942    78.602205    15.938405    29.527474 
   44000    235.33593   -351.49193    229018.04   -21166.647    1558.7146   -22725.362    -897.1459    319.66138    78.603091    15.937001    29.539486 
   44200    234.30279   -216.08321    229018.04   -21096.731    1551.8717   -22648.603   -392.67222    320.08524    78.604661     15.93717    29.544671 
   44400    244.81916   -183.47532    229018.04   -21052.148    1621.5254   -22673.673   -222.13362    321.63724    78.606208    15.935346    29.557196 
   44600    238.31712   -391.90621    229018.04   -21085.086      1578.46   -22663.546   -1023.1981     323.7843    78.605379     15.93566    29.554762 
   44800     240.3107   -190.42841    229018.04   -21127.231    1591.6642   -22718.895   -195.98246    323.21038    78.605156    15.934772    29.533524 
   45000    236.69853   -417.32301    229018.04   -21143.706    1567.7396   -22711.446   -1144.6305    324.53895    78.606281    15.934323    29.549586 
   45200    248.05719   -401.64611    229018.04   -20995.934     1642.972   -22638.906   -1066.9936    328.32289    78.605484    15.935499    29.556427 
   45400    247.40911   -276.15998    229018.04   -20978.083    1638.6796   -22616.762   -591.57854    329.58717    78.606228    15.932621    29.550534 
   45600    250.68534   -202.74989    229018.04   -20984.876    1660.3792   -22645.256   -304.16394    329.62016    78.608781    15.930611    29.556618 
   45800    235.72863   -380.78628    229018.04    -21090.82    1561.3155   -22652.136   -1019.1866    330.86785    78.608913    15.931344    29.557092 
   46000    232.40424   -240.16194    229018.04    -21089.45    1539.2969   -22628.747   -425.43458    332.46306    78.608984     15.92904      29.5563 
   46200    246.37291    -155.3608    229018.04   -21049.565    1631.8165   -22681.381   -112.15247    334.59302    78.609828    15.927287    29.553374 
   46400    243.88781   -508.73237    229018.04    -21065.76    1615.3568   -22681.117   -1475.2254    337.19035    78.606945    15.925622    29.542868 
   46600    240.96774   -465.76044    229018.04   -21114.952    1596.0161   -22710.968   -1357.0313    339.47733    78.605317    15.922597    29.553262 
   46800    244.85764   -425.18754    229018.04   -21069.382    1621.7803   -22691.162   -1123.8801     340.5744     78.60634    15.920079    29.555332 
   47000    243.54172   -229.60124    229018.04   -21013.428    1613.0644   -22626.492   -410.82543    341.11043    78.606638    15.918518    29.580314 
   47200    242.45444   -222.99033    229018.04   -21064.967     1605.863    -22670.83   -381.67384     341.6775    78.607001    15.919371    29.572914 
   47400     240.6978   -180.77526    229018.04   -21106.406    1594.2282   -22700.634   -196.24799     342.7735    78.607344    15.921038    29.571126 
   47600    245.57882   -119.36527    229018.04   -21055.747    1626.5569   -22682.304  -0.10632662    343.74903    78.607942     15.92251    29.559456 
   47800    239.57982   -382.11962    229018.04   -21062.953    1586.8234   -22649.777   -1027.9646    345.52319    78.608701    15.923741    29.569935 
   48000    242.14099   -349.78902    229018.04   -21065.829    1603.7869   -22669.616    -930.4362    346.60558    78.609485    15.923475    29.565785 
   48200    237.47902     -227.487    229018.04   -21086.926     1572.909   -22659.835   -415.42527    346.98839     78.61105    15.926272    29.586425 
   48400    235.98118     -338.919    229018.04   -21076.714    1562.9883   -22639.703   -815.65671    348.48163    78.611376    15.925221    29.586294 
   48600    244.73818   -163.74848    229018.04   -21033.711    1620.9891     -22654.7   -161.43059    349.86357    78.612313    15.926079    29.599361 
   48800    245.02278   -365.58147    229018.04     -21001.8    1622.8741   -22624.675   -944.31193    350.58625    78.611711    15.926107    29.575607 
   49000    238.74439   -269.18075    229018.04   -21062.292    1581.2901   -22643.582   -573.05046    353.75843    78.612223    15.927656    29.573011 
   49200    236.99775   -256.77089    229018.04   -21051.661    1569.7214   -22621.382   -552.89719    355.69786    78.611881      15.9287    29.547489 
   49400    242.27331   -575.90864    229018.04   -21043.061    1604.6633   -22647.725   -1767.4858    359.48717    78.610178    15.927959    29.533286 
   49600    239.83803    -205.9056    229018.04   -21045.626    1588.5336   -22634.159    -328.6934    359.38193    78.610907     15.93105    29.518759 
   49800    237.47447   -374.69773    229018.04   -21078.863    1572.8789   -22651.742   -1032.3202    361.52043    78.612573    15.931553    29.534364 
   50000    238.36452   -452.88019    229018.04   -21060.113     1578.774   -22638.887   -1286.9179    362.24649    78.613571    15.929103    29.517614 
   50200    241.95351   -170.89158    229018.04   -21087.743    1602.5452   -22690.288   -209.80328    362.37151    78.612409    15.929527    29.532427 
   50400     245.4368   -250.65142    229018.04   -21098.481    1625.6163   -22724.097   -478.34949    366.26194     78.61297    15.927973     29.51168 
   50600    234.80134   -224.88773    229018.04   -21121.552    1555.1738   -22676.725   -382.04473    366.70873    78.612935    15.927919    29.492209 
   50800    235.96399   -225.30413    229018.04   -21146.666    1562.8745    -22709.54   -445.88235    367.67023    78.612382    15.926641    29.494682 
   51000    240.15385   -261.13015    229018.04   -21115.223    1590.6254   -22705.848   -541.88981    369.84504    78.613584    15.927467     29.50384 
   51200    245.75179   -334.69933    229018.04   -21106.389    1627.7026   -22734.092   -815.88483    372.10401     78.61333    15.927946    29.509583 
   51400    239.07314     -305.748    229018.04   -21188.138    1583.4675   -22771.605    -746.7676     374.9932    78.614843    15.926703    29.529769 
   51600     239.7554    -85.56939    229018.04   -21167.888    1587.9863   -22755.875     165.5345    374.66181    78.613833    15.926256    29.540243 
   51800    243.15591   -282.37151    229018.04   -21145.874    1610.5091   -22756.384   -596.17713    375.56972     78.61427    15.923672    29.576093 
   52000    242.69548   -257.83815    229018.04   -21108.648    1607.4595   -22716.107   -511.71897    376.00832    78.613473    15.924624    29.577245 
   52200    238.72524   -395.59695    229018.04   -21096.125    1581.1632   -22677.288   -1062.7608    378.72937    78.612183    15.924238    29.581626 
   52400    239.39255   -392.05599    229018.04   -21126.009     1585.583   -22711.592   -1063.8737    380.79152    78.612724    15.924141    29.587759 
   52600    236.05605    -292.2754    229018.04   -21099.317    1563.4842   -22662.802   -632.65478    382.77745    78.613257    15.926047    29.579541 
   52800    233.35109   -353.96778    229018.04   -21184.248    1545.5683   -22729.816   -909.12604    386.81443    78.612539     15.92668    29.572814 
   53000    233.48201   -257.12168    229018.04   -21145.666    1546.4354   -22692.102   -531.51068    389.42677    78.610802    15.927057    29.598531 
   53200    237.20616   -218.70682    229018.04   -21160.548    1571.1018   -22731.649    -402.2546    390.42156    78.610566    15.927118    29.593335 
   53400    242.57061   -230.42937    229018.04   -21140.331    1606.6325   -22746.963   -400.64403    390.59878    78.609676    15.929716    29.586724 
   53600    244.38293   -369.53572    229018.04   -21136.127    1618.6361   -22754.763   -946.01847    395.15863    78.609177     15.93071    29.568838 
   53800     238.7405   -152.16836    229018.04   -21166.411    1581.2643   -22747.675    -139.2047    396.92004    78.608129    15.930562    29.578125 
   54000    246.03057   -340.89594    229018.04   -21054.156     1629.549   -22683.705   -839.89538    400.11907    78.606328    15.930146    29.587806 
   54200    239.23984    -304.7382    229018.04    -21172.49    1584.5716   -22757.062    -685.8964    400.59671    78.604828    15.928622    29.601401 
   54400    235.20199   -271.46837    229018.04   -21239.982    1557.8275   -22797.809   -578.24067    397.96737    78.604769    15.928031    29.578196 
   54600    241.09578   -304.30543    229018.04   -21169.208    1596.8641   -22766.072    -730.9802     399.0606    78.605693    15.928317    29.571471 
   54800    246.49605   -69.334527    229018.04   -21131.721    1632.6321   -22764.353    216.18229     401.8531    78.605036    15.928119     29.56991 
   55000    239.59703   -238.39222    229018.04   -21167.908    1586.9374   -22754.846   -461.71582    402.02974    78.605046    15.927562    29.578092 
   55200    241.09387   -231.31445    229018.04    -21123.71    1596.8515   -22720.561   -425.95248    404.14321    78.602347    15.927038     29.58912 
   55400    239.88415   -199.23869    229018.04   -21125.245    1588.8391   -22714.084   -295.34671    403.73988    78.602375    15.924681    29.603893 
   55600    236.67734   -356.32078    229018.04   -21087.486    1567.5992   -22655.085   -889.46489    402.23039    78.602412    15.927491    29.608527 
   55800    242.19758   -332.47227    229018.04   -21108.191    1604.1618   -22712.353   -849.90753    403.39564    78.601148    15.924894    29.602099 
   56000    241.05642   -293.15241    229018.04   -21110.177    1596.6034   -22706.781    -668.1814    402.65836    78.601471    15.924932     29.60657 
   56200    246.52029   -209.36396    229018.04   -21107.502    1632.7926   -22740.295   -303.90914    405.96463    78.600831    15.922528    29.609119 
   56400    238.39001   -331.25151    229018.04   -21087.265    1578.9428   -22666.208    -814.2148    406.89247    78.601702    15.921476    29.594577 
   56600    238.70834   -241.54179    229018.04   -21175.707    1581.0513   -22756.758   -487.79109    408.19736    78.601648    15.920624    29.607298 
   56800    238.97654   -245.51478    229018.04   -21180.911    1582.8277   -22763.738   -455.31915    408.23222    78.599425    15.919487     29.61779 
   57000    234.75464   -270.25007    229018.04   -21246.643    1554.8645   -22801.508   -575.97442    408.36531    78.598871    15.918877    29.613352 
   57200     232.3577   -240.06814    229018.04   -21193.065    1538.9887   -22732.054   -447.46228    409.37107    78.598524     15.91974    29.621186 
   57400    239.05549   -297.52939    229018.04   -21206.844    1583.3506   -22790.195   -706.05822    410.85979    78.599242    15.920306    29.631577 
   57600    242.11727   -183.90649    229018.04   -21053.577    1603.6298   -22657.207   -175.01864    413.59775    78.599755    15.921452    29.632767 
   57800    239.86747   -220.16915    229018.04   -21077.474    1588.7286   -22666.203   -399.25914    413.94858    78.597773    15.919501     29.61762 
   58000    242.87883   -435.03373    229018.04   -21071.489    1608.6739   -22680.163   -1231.2196    418.71809    78.595966    15.919811    29.610589 
   58200    241.00899   -302.00167    229018.04    -21056.51    1596.2893   -22652.799   -713.49092    420.11791    78.593219     15.91985    29.638309 
   58400    231.52312   -342.16914    229018.04   -21181.339    1533.4609     -22714.8   -878.19634    419.72787    78.591342    15.922268    29.651435 
   58600    243.71828   -359.24199    229018.04    -21126.56    1614.2339   -22740.794    -915.7265    422.11839    78.589995    15.923694    29.652162 
   58800    237.41977    -66.67041    229018.04   -21164.497    1572.5166   -22737.014    221.34306    423.66775    78.589689    15.921449    29.662076 
   59000    240.36198   -414.32207    229018.04   -21168.249    1592.0039   -22760.252   -1129.3467    426.71182    78.588587    15.921698    29.660274 
   59200    240.46194   -400.97003    229018.04   -21186.829     1592.666   -22779.495   -1078.4418    428.20957    78.589443    15.919758    29.642097 
   59400    242.13453   -259.27108    229018.04   -21162.164    1603.7441   -22765.908    -520.7349    427.87011    78.588947    15.918312    29.628217 
   59600    241.90944   -238.51346    229018.04   -21094.493    1602.2533   -22696.747   -448.09827    428.87881    78.589607    15.914938    29.626627 
   59800    247.82405   -420.31123    229018.04   -21076.141    1641.4279   -22717.569   -1133.9333    432.51224    78.589614    15.914569    29.622746 
   60000    243.05804   -231.04723    229018.04   -21213.884    1609.8609   -22823.745    -436.2026    432.14693    78.590173    15.915287    29.615655 
   60200    241.87304   -297.25283    229018.04   -21133.923    1602.0122   -22735.935   -646.39881    431.17735    78.591653    15.915524    29.620759 
   60400    236.70286   -346.77521    229018.04   -21193.294    1567.7682   -22761.062    -873.7938    427.97289    78.591452    15.915603    29.624631 
   60600     234.9996   -261.94149    229018.04   -21153.481    1556.4869   -22709.968   -553.99452    428.88093    78.589348    15.917415    29.632618 
   60800    234.44447   -287.73001    229018.04   -21174.207    1552.8101   -22727.017   -656.23828    430.84168    78.587949    15.917796    29.628918 
   61000    235.58118   -352.99604    229018.04   -21207.324     1560.339   -22767.663   -928.83709    435.27085    78.587177    15.918649     29.62624 
   61200     229.7092   -246.49705    229018.04   -21293.931    1521.4467   -22815.378   -459.95309    434.15096    78.585479    15.921037    29.619344 
   61400      241.732   -187.66135    229018.04    -21194.56    1601.0781   -22795.638   -265.80473    437.56528    78.584435    15.921701    29.633862 
   61600    233.96183   -228.35954    229018.04   -21154.006    1549.6134   -22703.619   -413.63995    438.63404    78.582779    15.922906    29.644362 
   61800     243.3069   -311.65067    229018.04   -21115.861    1611.5092    -22727.37   -728.21872    440.25579    78.579982    15.925569    29.640853 
   62000    233.75987    -314.6496    229018.04   -21186.458    1548.2758   -22734.734   -729.31448    441.80381     78.57954    15.925919    29.648401 
   62200    241.66043   -405.58618    229018.04   -21110.355     1600.604   -22710.959   -1101.6596    440.99231    78.578196    15.926465    29.627969 
   62400    240.76471   -212.06521    229018.04   -21073.534    1594.6713   -22668.205   -344.54963    439.45403    78.578331    15.925266    29.623642 
   62600    241.84759   -345.14628    229018.04    -21067.94    1601.8436   -22669.784   -838.75187    439.68806    78.577614    15.927389    29.634056 
   62800      242.701   -147.26057    229018.04   -21065.296    1607.4961   -22672.792   -115.10128    442.14253    78.578551    15.926314    29.642713 
   63000    237.59952   -117.41744    229018.04   -21107.952    1573.7071   -22681.659    57.727031    444.23401    78.576569    15.925222    29.658648 
   63200    235.10687   -341.38379    229018.04   -21215.678    1557.1974   -22772.875   -870.14836    446.05034    78.574597    15.924574    29.682812 
   63400    240.30572   -228.19855    229018.04   -21081.319    1591.6313   -22672.951   -411.83462    448.69872     78.57516    15.927204    29.705916 
   63600     238.3456   -181.44096    229018.04    -21057.01    1578.6487   -22635.659   -255.45991    450.34402    78.576167    15.927426    29.703277 
   63800    236.24383   -408.67087    229018.04   -21020.563    1564.7279   -22585.291   -1088.3943    451.37352    78.575878    15.927775    29.703276 
   64000    233.67285   -467.45113    229018.04   -21095.063    1547.6994   -22642.763   -1301.8073      453.552    78.576127    15.928056    29.708292 
   64200    240.16772   -344.66384    229018.04   -21062.356    1590.7173   -22653.073   -848.48943    452.91181    78.575038    15.926002    29.698965 
   64400    242.91891   -194.28136    229018.04    -21042.18    1608.9394   -22651.119    -290.5641    453.67283    78.575713    15.925283    29.697211 
   64600    240.13017   -477.39444    229018.04   -21101.354    1590.4685   -22691.823    -1384.344    455.11064    78.576592    15.925863    29.687202 
   64800    244.17873   -320.12829    229018.04   -21036.881    1617.2836   -22654.165   -761.96416    456.80615     78.57743    15.925604    29.665904 
   65000    244.17831   -256.02733    229018.04   -21121.067    1617.2809   -22738.348   -498.90369    459.13517    78.577923     15.92626    29.659711 
   65200    242.26625   -247.91924    229018.04   -21122.933    1604.6166   -22727.549   -514.16094    460.34466    78.578576    15.927019    29.648088 
   65400    247.41531   -413.66538    229018.04   -21045.292    1638.7206   -22684.013   -1124.9555    460.61156    78.577714    15.928893    29.618243 
   65600    243.67079   -414.62636    229018.04   -21049.667    1613.9194   -22663.587   -1155.5082    462.28692    78.575977    15.927839    29.601949 
   65800    235.11035    -326.0306    229018.04   -21116.815    1557.2205   -22674.035    -777.2477    462.60325    78.574591    15.928168    29.605316 
   66000    231.24254   -326.86542    229018.04   -21157.699    1531.6026   -22689.301   -756.32269    464.76799    78.572499    15.930274    29.626595 
   66200    243.65409   -125.89207    229018.04   -21097.955    1613.8088   -22711.764     27.69138    466.86308    78.571387    15.930863    29.639482 
   66400    239.95922   -442.56992    229018.04   -21159.176    1589.3363   -22748.512   -1211.2142    470.27934    78.570281    15.929953    29.640289 
   66600    237.62498   -201.53389    229018.04   -21107.223    1573.8758   -22681.098   -346.51053    470.92464    78.569629    15.931572    29.644676 
   66800    237.35809   -513.55229    229018.04   -21179.246    1572.1081   -22751.354   -1505.2008    474.33539    78.569671    15.932613    29.625718 
   67000    237.89962   -81.862327    229018.04   -21130.619    1575.6948   -22706.314    151.20525    474.02386    78.568785    15.933827    29.627429 
   67200    232.86881   -202.04975    229018.04   -21131.088    1542.3739   -22673.462   -289.67614    476.27405    78.565301    15.929367    29.604419 
   67400    241.05087   -314.28722    229018.04   -21103.139    1596.5667   -22699.706   -736.87007    477.05419    78.565631    15.927089    29.627133 
   67600    242.21459   -235.34979    229018.04   -21122.362    1604.2744   -22726.636   -450.82908    477.01877     78.56513     15.92854    29.612245 
   67800    232.96477   -478.90851    229018.04   -21115.582    1543.0095   -22658.592   -1394.9029    476.49481     78.56331    15.928193    29.610905 
   68000    241.18736   -282.79512    229018.04   -21129.699    1597.4707    -22727.17   -608.49155    478.23876    78.564178    15.929819     29.61157 
   68200    234.85113    -294.0455    229018.04   -21172.803    1555.5036   -22728.307   -646.38058    481.73129    78.564129    15.928879    29.626708 
   68400    248.21765   -217.84352    229018.04   -21037.616    1644.0348   -22681.651   -344.52059    484.22756    78.562477    15.927768    29.652383 
   68600    242.72284   -202.07544    229018.04   -21054.539    1607.6407    -22662.18   -310.73521    485.50198    78.561135    15.925905     29.63757 
   68800    246.03877   -269.48488    229018.04    -21047.88    1629.6033   -22677.483   -526.25531    487.04092    78.561829     15.92609    29.634207 
   69000    243.98129   -261.79027    229018.04   -21038.073    1615.9759   -22654.049   -544.09045    490.83343    78.561627     15.92551    29.670406 
   69200    237.55934   -426.35405    229018.04   -21090.355     1573.441   -22663.796   -1173.4246    494.92174    78.562883    15.921011    29.678602 
   69400    234.88543   -165.06126    229018.04    -21071.83    1555.7307   -22627.561   -165.39374    498.22057    78.560819    15.919612     29.69766 
   69600    238.51737   -178.46565    229018.04   -21082.715    1579.7864   -22662.501   -210.99213    502.35547    78.559717    15.918886    29.710102 
   69800    244.15535   -419.03057    229018.04   -21092.951    1617.1287    -22710.08   -1105.1075    504.24262    78.559501    15.920723    29.716837 
   70000    236.79369   -335.22147    229018.04   -21167.162    1568.3699   -22735.532   -797.16713    506.25544     78.56194    15.921421    29.726939 
   70200    235.76333   -219.15687    229018.04   -21163.161    1561.5454   -22724.706    -379.3905    505.50386    78.561977    15.920415    29.722456 
   70400    240.26337   -307.11962    229018.04   -21145.552    1591.3508   -22736.903   -699.40491    506.59517    78.562766    15.921329    29.731834 
   70600    242.02055   -204.63314    229018.04   -21108.536    1602.9892   -22711.525   -283.04436    506.27791    78.563502    15.921332    29.716326 
   70800    237.61597   -216.03353    229018.04   -21160.859    1573.8161   -22734.675   -356.98257    507.87171    78.565211     15.92051    29.725632 
   71000    243.38996     -307.285    229018.04   -21087.032    1612.0593   -22699.091   -702.58386    508.32289     78.56558    15.922079    29.733367 
   71200    247.47135   -444.04343    229018.04   -20978.809    1639.0918     -22617.9   -1241.4386    508.86279    78.565646    15.922047    29.713076 
   71400    243.13346   -215.51908    229018.04   -21049.255    1610.3604   -22659.615   -378.50372    509.93781    78.565652    15.922933    29.739103 
   71600    242.34454   -334.52082    229018.04   -21114.325    1605.1351    -22719.46   -823.79925    513.36802    78.564822    15.925693    29.742869 
   71800    237.24038   -117.00569    229018.04   -21119.891    1571.3284    -22691.22    34.307591    515.21079     78.56327    15.926412    29.748194 
   72000     240.2026    -366.3402    229018.04   -21101.376    1590.9483   -22692.324   -926.49654    518.08569     78.56506    15.922603    29.739803 
   72200    240.79154    -296.4132    229018.04    -21092.29    1594.8491   -22687.139   -683.18994    520.83067    78.565339    15.920869     29.74211 
   72400    241.79152    -403.8049    229018.04   -21030.911    1601.4723   -22632.384   -1053.6387    522.23402    78.567312    15.923469    29.752523 
   72600    243.26599   -243.56747    229018.04   -21057.975    1611.2382   -22669.213   -452.89784    522.22757    78.566781    15.925433    29.732587 
   72800    236.19842   -286.33269    229018.04   -21103.087    1564.4271   -22667.514   -641.04547    523.07119     78.56831    15.925145    29.733996 
   73000    234.26171   -271.60112    229018.04   -21109.663    1551.5996   -22661.262   -598.97591    526.04696    78.568073    15.926823    29.715951 
   73200    246.07954   -303.63846    229018.04   -21007.259    1629.8734   -22637.132   -717.05593    529.89952    78.568385    15.928425    29.742458 
   73400    243.96186   -394.69237    229018.04   -21013.445    1615.8472   -22629.292   -1019.4565      532.537    78.568303    15.928825     29.72031 
   73600    241.72479   -125.67273    229018.04   -21080.211    1601.0303   -22681.242     17.90739    533.22372    78.568966    15.926975    29.730587 
   73800     249.7804   -99.947981    229018.04   -21026.912    1654.3855   -22681.298    105.04448    534.50167    78.570333    15.927798    29.723331 
   74000    249.08826   -300.72649    229018.04   -20943.666    1649.8012   -22593.467   -656.36566    536.22766    78.568851    15.926854    29.712897 
   74200     245.2063    -140.8494    229018.04   -21070.491    1624.0896   -22694.581   -110.78327    535.75508    78.569017    15.928431    29.717869 
   74400    238.46976   -317.03479    229018.04   -21099.519    1579.4711    -22678.99   -757.95187    539.11803    78.570394    15.927474    29.706368 
   74600    243.49941   -184.22535    229018.04   -21117.828    1612.7842   -22730.613   -222.96923    540.26953     78.57195    15.926011    29.702539 
   74800    243.01654   -302.79691    229018.04   -21081.831     1609.586   -22691.417   -720.02033    540.84444    78.571265    15.925151    29.685424 
   75000    241.94712   -230.93268    229018.04   -21101.842    1602.5028   -22704.345   -440.94327    542.73535    78.574353    15.922495    29.652566 
   75200    245.31334   -415.58404    229018.04   -21108.302    1624.7985     -22733.1   -1091.3468    548.49521    78.576765    15.921486    29.655965 
   75400    244.02418   -291.31384    229018.04   -21074.273      1616.26   -22690.533   -645.48642    551.91419    78.577902    15.922045    29.636545 
   75600      239.802   -267.34119    229018.04   -21066.841    1588.2949   -22655.136   -558.14283    557.84874     78.58161    15.924699    29.628228 
   75800    241.06933   -394.82383    229018.04   -21091.714     1596.689   -22688.403   -1059.7198    560.66207    78.581264    15.929159    29.616454 
   76000    238.58633     -182.033    229018.04   -21120.474    1580.2431   -22700.717   -215.49386      559.735    78.583021    15.930869    29.631019 
   76200    237.26953    -307.5646    229018.04   -21211.355    1571.5215   -22782.877   -715.49886     562.0946    78.584908    15.934667    29.612188 
   76400    236.43659    -328.9766    229018.04   -21239.383    1566.0046   -22805.387   -820.77291    561.96801    78.585915    15.933307    29.608655 
   76600    240.34829   -356.53052    229018.04   -21180.201    1591.9132   -22772.115   -867.37078    560.80418    78.585996    15.930848    29.609945 
   76800     243.0615   -217.66151    229018.04    -21053.32    1609.8838   -22663.204   -330.57424    560.32504    78.586275    15.929523    29.607799 
   77000     236.3965   -479.70326    229018.04   -21121.951    1565.7391    -22687.69   -1381.1079    558.80702    78.587636    15.928783    29.598754 
   77200     239.4298   -242.73183    229018.04   -21116.041    1585.8297   -22701.871   -437.51448    559.59758    78.588461    15.926298    29.604975 
   77400    240.56076   -425.75501    229018.04   -21077.098    1593.3205   -22670.419   -1168.6429    559.34219    78.588892    15.928259    29.613675 
   77600    238.25159   -300.20588    229018.04   -21062.859     1578.026   -22640.885   -653.29737    558.20281    78.587685    15.931296    29.608269 
   77800    233.18667   -428.51632    229018.04   -21114.647    1544.4793   -22659.126   -1172.5129    557.23395    78.587416     15.93074    29.592648 
   78000    236.84028   -373.36554    229018.04    -21147.84    1568.6784   -22716.518   -985.50347    557.95516      78.5879    15.932961    29.597698 
   78200    236.48629   -346.52279    229018.04   -21079.993    1566.3338   -22646.327   -860.49541    558.62974    78.588074    15.931531    29.585754 
   78400    244.16042   -221.93428    229018.04   -21045.686    1617.1624   -22662.848   -414.69773    559.27657    78.589392    15.931365    29.560453 
   78600    238.84023   -323.39441    229018.04   -21172.644    1581.9248   -22754.569   -774.40847    561.47002    78.591052    15.930553    29.537328 
   78800    235.49633   -373.29993    229018.04   -21156.445     1559.777   -22716.222   -965.95866    561.72899    78.591684    15.933163    29.527035 
   79000    237.46648   -344.33683    229018.04    -21111.52     1572.826   -22684.346   -849.60678    563.39129    78.592514    15.934458    29.520319 
   79200    238.45548   -276.53447    229018.04   -21135.562    1579.3764   -22714.938   -603.71237    564.18284    78.591694    15.934854    29.526341 
   79400     230.5513   -300.72856    229018.04   -21214.684    1527.0242   -22741.708   -708.00753    564.28056    78.592192    15.936445    29.520653 
   79600    243.21272   -260.03209    229018.04   -21182.077    1610.8854   -22792.963   -537.71304    566.41349    78.594093    15.937265    29.530431 
   79800    234.55851   -113.64278    229018.04    -21114.93    1553.5654   -22668.495    32.726511    567.24163    78.595736    15.936675    29.530176 
   80000    235.44783   -328.35357    229018.04   -21154.624    1559.4557    -22714.08   -799.98572    571.48187    78.594035    15.935806    29.543164 
   80200    236.52238   -234.61528    229018.04   -21115.262    1566.5728   -22681.835   -409.73838    571.86305    78.595098    15.934632    29.569458 
   80400    233.60199   -406.69055    229018.04   -21167.401    1547.2301   -22714.631   -1104.9403    574.74346    78.595168    15.933434    29.569444 
   80600    249.23285    -348.0651    229018.04   -21024.713    1650.7589   -22675.472   -873.98581    577.60436    78.594752    15.933361    29.584303 
   80800    239.27113   -84.882332    229018.04   -21139.866    1584.7788   -22724.645    137.42268    580.35126    78.593122    15.932065    29.584971 
   81000    243.09697   -247.06258    229018.04    -21059.11    1610.1187   -22669.228   -483.16232    582.32852    78.591222    15.931656    29.556016 
   81200     241.9543   -344.19855    229018.04   -21075.387    1602.5504   -22677.937   -841.88602    581.59745    78.591374    15.933689    29.556252 
   81400    235.89983   -411.82909    229018.04   -21132.581    1562.4495    -22695.03   -1098.6274     582.2298    78.590572    15.937273    29.579696 
   81600    239.77649    -386.5166    229018.04   -21013.148     1588.126   -22601.274   -1032.0264     587.4919    78.589819    15.936802    29.558949 
   81800    243.62957   -64.105665    229018.04   -20998.685    1613.6463   -22612.332    238.15807    585.15796    78.589503    15.935641    29.544869 
   82000    250.61403   -293.77323    229018.04   -20986.354    1659.9069   -22646.261   -652.52598    590.21728    78.589982    15.938334    29.533901 
   82200    237.69161    -313.7938    229018.04   -21077.975    1574.3171   -22652.292   -724.51827    593.33084    78.590051    15.942933    29.536281 
   82400    237.24766   -314.95362    229018.04   -21115.987    1571.3766   -22687.364   -708.16311    593.54801    78.589509    15.945875    29.516175 
   82600    242.67295   -302.16183    229018.04   -21096.212    1607.3103   -22703.523    -678.6641    595.88519    78.589464    15.948981    29.519935 
   82800    242.89086   -408.49947    229018.04   -21068.578    1608.7536   -22677.332   -1098.1922    597.97014    78.587599    15.950287     29.51194 
   83000    240.00348   -226.54858    229018.04   -21129.811    1589.6294    -22719.44   -417.63753      597.342    78.586041    15.950008    29.488681 
   83200    245.17645   -261.56257    229018.04   -21148.812    1623.8919   -22772.704   -526.40826    601.04801    78.583763    15.948088    29.485047 
   83400    239.20057   -332.67813    229018.04   -21131.071    1584.3115   -22715.382   -816.40862    605.07732    78.584973     15.94547    29.492741 
   83600    233.94967    -212.2471    229018.04   -21112.902    1549.5329   -22662.435    -350.3075     611.7168     78.58547    15.944311    29.479126 
   83800    238.84559   -405.89707    229018.04   -21152.709    1581.9603    -22734.67   -1119.5316    618.72329    78.583899    15.944101    29.472714 
   84000    234.96604   -391.53975    229018.04   -21184.194    1556.2646   -22740.459   -1014.7869    621.22318    78.581286    15.944658    29.467753 
   84200    237.90085    -261.1689    229018.04   -21176.294    1575.7029   -22751.997    -458.5463    620.24474    78.583588    15.945515    29.484247 
   84400    238.86338   -257.65245    229018.04   -21127.801    1582.0781   -22709.879   -499.11111    616.73272    78.584506    15.947537    29.466704 
   84600    237.61006   -236.34618    229018.04   -21112.327     1573.777   -22686.104   -444.22959    614.70519    78.583596     15.94967    29.452066 
   84800    236.69846   -287.01601    229018.04   -21154.152    1567.7391   -22721.891   -611.20968     615.7799    78.583326    15.949105     29.44799 
   85000    235.60219   -327.43914    229018.04   -21088.998    1560.4781   -22649.476   -789.20206      618.268    78.582646    15.951592    29.430285 
   85200    246.90436   -303.07048    229018.04   -21016.197    1635.3364   -22651.534   -640.25945    619.77426    78.583665    15.951683    29.460551 
   85400     239.2911   -457.43259    229018.04   -21069.892    1584.9111   -22654.803   -1287.4479    624.62444    78.581525    15.951891    29.446881 
   85600    239.01176   -345.15267    229018.04    -21072.81    1583.0609   -22655.871   -831.55515    626.80073     78.57997    15.951311     29.46968 
   85800    240.84599    -332.3917    229018.04   -21114.301    1595.2097   -22709.511   -795.31572    625.07254    78.579489    15.951593    29.470344 
   86000    245.89945   -182.28984    229018.04   -21073.411    1628.6805   -22702.091   -212.97193    626.52864     78.57882    15.954438    29.464397 
   86200    235.80583   -277.80256    229018.04   -21105.055    1561.8269   -22666.881   -593.97438    627.21434    78.578335    15.954259    29.450093 
   86400    237.32607   -422.32763    229018.04   -21116.571     1571.896   -22688.467   -1131.7565    626.40196    78.581993    15.956662    29.433365 
   86600    240.16283   -525.92707    229018.04   -21051.106    1590.6849   -22641.791   -1563.6205    627.34577     78.58458    15.956851    29.427415 
   86800    235.53751   -334.76549    229018.04   -21102.076    1560.0497   -22662.126   -833.55634    624.59018    78.585853    15.957833    29.418478 
   87000    240.58774   -315.91853    229018.04   -21118.662    1593.4992   -22712.161   -732.84193    623.70899    78.588788    15.962351    29.418301 
   87200    232.97246   -328.37452    229018.04   -21075.115    1543.0605   -22618.176   -838.48638    622.75593    78.587303    15.965854    29.402108 
   87400    240.70189   -296.67149    229018.04   -21085.393    1594.2553   -22679.648   -623.32237    624.46822    78.586048    15.968857    29.389612 
   87600    242.68092    -309.0911    229018.04   -20994.529    1607.3631   -22601.892    -716.0426    625.45132    78.584731    15.970058    29.378501 
   87800    233.61601    -323.9569    229018.04   -21164.285    1547.3229   -22711.608   -760.32349    624.67436    78.582926    15.971516    29.389959 
   88000    246.52837   -477.49416    229018.04   -20998.361    1632.8461   -22631.207   -1375.0552    623.70353    78.584988    15.969804    29.394133 
   88200    251.43379   -319.26491    229018.04    -21009.35    1665.3365   -22674.687   -785.46752    624.10442    78.586054    15.967781    29.416434 
   88400    237.41538   -339.75093    229018.04   -21017.528    1572.4875   -22590.015   -832.81427    628.82125    78.585206    15.968964    29.409797 
   88600    237.64159   -393.35771    229018.04   -21131.711    1573.9858   -22705.696   -1027.7949    627.77874    78.585741    15.968965    29.380759 
   88800    238.40376   -320.04821    229018.04   -21168.526    1579.0339    -22747.56   -771.97466    628.17807    78.583112    15.970306    29.383756 
   89000    231.71034   -224.05646    229018.04   -21231.652     1534.701   -22766.353   -423.00391    628.72778    78.581693    15.971292    29.409656 
   89200     239.3236    -240.9065    229018.04     -21160.8    1585.1264   -22745.927   -435.06059    626.40319    78.582909     15.97199    29.423265 
   89400    242.02526   -479.60225    229018.04   -21120.818    1603.0204   -22723.838   -1395.1698    623.09837    78.582014     15.97179    29.452933 
   89600    236.88765    -274.7891    229018.04   -21215.779    1568.9922   -22784.772   -589.75107    621.13889      78.5808    15.972325    29.435547 
   89800    239.29841   -223.09842    229018.04   -21149.906    1584.9595   -22734.866   -361.33029    620.67655    78.579361    15.973063    29.445937 
   90000     245.2482   -247.40312    229018.04   -21089.552    1624.3671    -22713.92    -478.1538    622.36074    78.578881    15.975332    29.457504 
   90200    242.28812   -353.41973    229018.04   -21100.834    1604.7614   -22705.595   -916.66212    624.09967    78.579892    15.977295    29.440097 
   90400    233.29849   -278.01689    229018.04   -21132.473    1545.2199   -22677.693   -592.35186    624.60825    78.578357    15.977996    29.430919 
   90600    235.76732    -346.7369    229018.04   -21130.882    1561.5718   -22692.454   -877.31875    622.87302    78.579996    15.977389    29.430391 
   90800    243.66038   -64.792589    229018.04   -21020.956    1613.8504   -22634.806    231.93946    624.44247    78.580762    15.974884    29.447092 
   91000    238.50404   -358.56933    229018.04   -21128.764    1579.6981   -22708.462   -883.20906    625.57358     78.58333    15.973082    29.438418 
   91200     235.5642   -367.57489    229018.04   -21159.934    1560.2265   -22720.161   -928.88039    625.09982    78.583847    15.973685    29.434014 
   91400    243.91656   -168.33395    229018.04   -21131.466    1615.5472   -22747.013   -196.93928    624.75926    78.584061    15.974161    29.442048 
   91600     244.9742    -321.2153    229018.04   -21077.235    1622.5523   -22699.788   -753.86314     626.9908    78.585224     15.97524    29.452121 
   91800    245.97087   -261.37272    229018.04   -21047.602    1629.1536   -22676.755   -516.85449    631.18598    78.587672     15.97473    29.463977 
   92000    237.36843   -423.45543    229018.04   -21117.871    1572.1766   -22690.047   -1185.2319    631.96509    78.586621    15.974052     29.43574 
   92200    239.58354   -211.95966    229018.04   -21129.303     1586.848   -22716.151   -378.90681    629.61353    78.585282    15.971702    29.451805 
   92400    244.56492   -349.02306    229018.04   -21086.808    1619.8415    -22706.65   -880.30313    634.63563    78.585348    15.971494      29.4573 
   92600    237.92226    -252.9905    229018.04   -21098.621    1575.8447   -22674.466   -527.17456    635.22553    78.586118    15.968649    29.474189 
   92800    235.23658   -389.64972    229018.04   -21191.677    1558.0566   -22749.733   -1018.4547    635.84836    78.585686    15.966983    29.469822 
   93000    230.22101   -364.45459    229018.04   -21227.831    1524.8366   -22752.668   -912.86646    636.75712    78.586168    15.967894    29.477427 
   93200    243.26855   -325.16405    229018.04   -21149.269    1611.2552   -22760.524   -799.62457    636.67775    78.585164    15.966855    29.479416 
   93400    232.01852   -385.38699    229018.04   -21211.237    1536.7422   -22747.979   -1061.3344    635.62215    78.582205    15.966632    29.455355 
   93600    242.46317   -304.44358    229018.04   -21176.616    1605.9208   -22782.537   -718.37166    637.04033    78.580806    15.964696    29.471949 
   93800    238.27842   -381.08746    229018.04    -21067.38    1578.2038   -22645.584   -960.17722    636.19901    78.579469    15.964372    29.443497 
   94000     244.7361   -428.62183    229018.04   -21092.693    1620.9753   -22713.668    -1214.946    640.22149    78.580894    15.965623    29.423827 
   94200    240.46259   -210.68898    229018.04   -21143.935    1592.6703   -22736.605    -373.2778    640.43253    78.580978    15.964674    29.448577 
   94400    251.60842   -353.61225    229018.04   -21056.424    1666.4932   -22722.918   -891.54579    641.20967    78.580386    15.964581    29.459253 
   94600    241.54726   -344.04123    229018.04   -21109.596    1599.8544    -22709.45   -857.49361    641.88194    78.581834    15.961854    29.466877 
   94800    245.57927   -321.15514    229018.04   -21025.766    1626.5599   -22652.325   -757.91934    641.03335     78.58415    15.960811    29.462624 
   95000    250.51679   -177.21758    229018.04   -21047.531    1659.2629   -22706.794   -184.14125    642.63423    78.584339    15.959881    29.451309 
   95200    233.54414   -323.59939    229018.04   -21141.898    1546.8469   -22688.745   -791.96327     645.1507    78.585189    15.956524    29.466028 
   95400    236.21935   -222.05272    229018.04   -21135.672    1564.5658   -22700.238   -388.00295    647.84992    78.585098    15.954363    29.463336 
   95600     235.0254   -374.86147    229018.04    -21126.55    1556.6578   -22683.208   -1012.3368    648.07367    78.583476    15.955026    29.493248 
   95800    237.96981   -528.84084    229018.04   -21073.806    1576.1597   -22649.965   -1558.0254    651.43436    78.585507    15.955234    29.488223 
   96000     240.2542   -271.37398    229018.04   -21128.893    1591.2901   -22720.183   -547.17736    653.26376    78.585898    15.955531    29.471725 
   96200    237.66819   -312.40892    229018.04   -21185.928     1574.162    -22760.09   -732.75851    654.10832    78.583689     15.95643    29.473511 
   96400     241.9773    -381.1353    229018.04   -21150.274    1602.7027   -22752.977    -1003.641    654.85258    78.584308    15.956747    29.457821 
   96600    233.13276   -345.97154    229018.04   -21214.464    1544.1222   -22758.586   -892.62952     654.3187    78.585042    15.957323     29.48126 
   96800    233.88765   -100.50557    229018.04   -21176.279    1549.1221   -22725.401     125.9743     650.7958    78.585472    15.958357    29.496229 
   97000    236.58405   -308.85105    229018.04    -21132.99    1566.9813   -22699.971   -710.87163    651.94628    78.586357    15.960296    29.481645 
   97200     243.5217   -306.13404    229018.04   -21114.618    1612.9319    -22727.55   -715.41595    652.61912    78.588119    15.962252    29.479566 
   97400    239.53818   -285.01944    229018.04   -21083.087    1586.5476   -22669.634   -631.20417    654.32905    78.589411    15.961481    29.501241 
   97600    240.55484    -337.9944    229018.04   -21138.339    1593.2813    -22731.62    -854.1583    655.37487    78.589845    15.962664    29.496317 
   97800    229.97797   -221.38872    229018.04   -21181.686    1523.2268   -22704.913   -354.38709    655.27127    78.590346    15.963387    29.495813 
   98000    230.72538    -388.2332    229018.04   -21290.985    1528.1772   -22819.162   -1021.4258    656.43522    78.591173    15.964712    29.504395 
   98200    237.24438   -263.74926    229018.04   -21279.298    1571.3549   -22850.653   -520.52615    657.20582    78.589747    15.964228    29.479834 
   98400    239.39753   -294.63403    229018.04   -21224.227     1585.616   -22809.843   -662.24184    660.56014    78.589315    15.962178    29.472012 
   98600    236.55443   -185.91906    229018.04   -21177.624    1566.7851   -22744.409   -235.32206    663.26729    78.588539    15.957915    29.479333 
   98800    249.47884   -345.20046    229018.04   -21053.866    1652.3881   -22706.254   -850.06018    664.54524    78.587279    15.955455    29.482381 
   99000    243.12616   -261.27818    229018.04    -21030.63     1610.312   -22640.942   -538.60894    666.71736    78.584979    15.950241    29.473335 
   99200    239.97569   -449.04603    229018.04   -21086.731    1589.4454   -22676.177   -1244.0346    669.94432    78.585867     15.94914    29.470045 
   99400    232.85029   -354.81403    229018.04   -21147.963    1542.2513   -22690.214    -947.8468    671.66428    78.585703    15.949172    29.444206 
   99600    243.48253   -305.59808    229018.04    -21106.06    1612.6724   -22718.733   -693.31882     674.6177    78.584862    15.949113    29.437274 
   99800    247.56214   -292.74254    229018.04   -21090.608    1639.6931   -22730.301   -668.49783    676.83301    78.584638    15.950094    29.436008 
  100000    238.24327   -484.21759    229018.04   -21124.785     1577.971   -22702.756   -1411.1881    677.06138    78.582886    15.946994     29.44496 
  100200    244.54042    -112.0287    229018.04   -21066.864    1619.6792   -22686.543    22.430127    676.17914    78.582325    15.947359    29.452564 
  100400    242.18827   -181.02322    229018.04   -21091.565    1604.1001   -22695.665   -238.96005     679.0897    78.581571     15.94711    29.449891 
  100600    236.68542    -387.2537    229018.04   -21140.336    1567.6527   -22707.988   -1063.9638    681.33691    78.580084    15.946997    29.435792 
  100800    245.58159    -161.6899    229018.04   -21115.688    1626.5753   -22742.263   -197.06665     681.7447    78.579371    15.948198    29.435716 
[...]
 5175800    227.45096   -100.26924    229018.04   -23339.614    1506.4896   -24846.104    69.592984    10615.542     80.29296    15.014615    30.045421 
 5176000    222.30945   -264.36865    229018.04   -23468.296    1472.4355   -24940.731   -571.45553    10621.652    80.294432     15.01461    30.037299 
 5176200    219.84536   -129.31133    229018.04   -23465.124    1456.1149   -24921.239   -51.786676    10616.198     80.29521    15.014503    30.019745 
 5176400    226.82815   -70.920315    229018.04   -23413.188    1502.3645   -24915.552    162.01415    10616.848    80.296832    15.015001    30.026247 
 5176600    228.22188   -267.84294    229018.04   -23376.401    1511.5957   -24887.996   -617.42808    10622.149    80.298757    15.015211     30.02786 
 5176800    220.97586   -83.328886    229018.04   -23433.812    1463.6027   -24897.414    117.52975    10615.714    80.300403    15.014102    30.020522 
 5177000    229.38823   -139.21407    229018.04   -23328.764    1519.3208   -24848.085   -98.805782    10617.427    80.302262    15.012599    30.025819 
 5177200    229.68922   -263.02175    229018.04   -23326.969    1521.3144   -24848.284   -556.32348    10621.266    80.305434    15.013371    30.036919 
 5177400    223.71125   -62.977662    229018.04   -23371.327    1481.7201   -24853.047    211.73551    10617.095    80.306228    15.013035    30.023251 
 5177600    224.45542   -106.90692    229018.04   -23369.662     1486.649   -24856.311    17.139884    10617.114    80.307588    15.012445    30.030827 
 5177800    227.52061   -206.16044    229018.04   -23340.587    1506.9509   -24847.538    -332.2809    10618.423     80.30995    15.011973    30.016844 
 5178000    222.53981   -13.236316    229018.04   -23420.965    1473.9613   -24894.927    420.45426    10616.291    80.311701      15.0118    30.037297 
 5178200     222.1197   -135.78561    229018.04    -23425.11    1471.1787   -24896.289   -86.193353    10615.273    80.313941     15.01132    30.032064 
 5178400    226.25357   -203.14962    229018.04   -23313.922    1498.5588   -24812.481    -302.8971    10617.672    80.314694    15.010312    30.031538 
 5178600     225.9054   -151.24695    229018.04   -23385.903    1496.2528   -24882.156   -142.55051    10619.257    80.315682     15.01103    30.034607 
 5178800    229.86365   -104.74991    229018.04   -23344.918    1522.4697   -24867.387    38.958854    10617.134    80.316667    15.008511    30.036248 
 5179000      231.023   -203.19102    229018.04   -23308.444    1530.1485   -24838.593   -342.88994     10619.15     80.31734    15.006685    30.034444 
 5179200    233.91652    -163.6501    229018.04   -23374.627    1549.3133    -24923.94   -168.43038    10618.551    80.320209    15.006071    30.042326 
 5179400    225.43035   -64.073583    229018.04   -23399.218    1493.1064   -24892.325    185.80724    10617.631    80.321956    15.004637    30.041079 
 5179600    226.74249   -185.97729    229018.04   -23373.736    1501.7971   -24875.534   -265.25513    10620.413    80.322709    15.003236     30.03315 
 5179800    225.05913    -159.2073    229018.04   -23359.713    1490.6476   -24850.361   -156.24387    10617.868    80.323382     15.00198    30.034991 
 5180000    221.33683   -116.67562    229018.04   -23391.784    1465.9935   -24857.777   -37.963077    10617.459    80.323154    15.001562    30.024059 
 5180200    225.81442   -189.31295    229018.04   -23416.299    1495.6502   -24911.949   -289.03415    10616.299    80.324082    14.999329    30.027623 
 5180400    222.64828   -169.72093    229018.04   -23398.069    1474.6797   -24872.749   -188.40657    10619.088    80.324908    14.996679    30.032202 
 5180600    225.57423    -213.6394    229018.04   -23406.442    1494.0593   -24900.501   -413.07053    10617.536    80.324628    14.994911    30.035414 
 5180800     219.2052   -134.68233    229018.04   -23422.832    1451.8749   -24874.707   -95.950123    10617.639    80.325909    14.993837    30.028029 
 5181000     223.9641   -207.85312    229018.04   -23388.176    1483.3948   -24871.571   -343.28074     10620.31    80.326213    14.993684    30.046238 
 5181200    230.60773   -70.548869    229018.04   -23341.051     1527.398   -24868.449    146.27059    10616.395    80.326132    14.991812    30.038223 
 5181400    224.68017   -196.09991    229018.04   -23345.704    1488.1377   -24833.842    -288.4885    10617.314    80.326073    14.989952    30.032923 
 5181600    227.44097   -150.60533    229018.04   -23344.864    1506.4234   -24851.287   -136.15186    10617.577    80.325812    14.988693    30.032877 
 5181800     222.0422   -156.36067    229018.04   -23440.173    1470.6654   -24910.838   -180.50306    10619.762    80.326722    14.987518    30.052961 
 5182000    222.33239    -187.3675    229018.04   -23435.854    1472.5874   -24908.441   -278.74868    10617.409    80.326634    14.987336    30.037496 
 5182200    227.28902   -123.65277    229018.04    -23358.01     1505.417   -24863.427    -21.36215    10616.705    80.326896    14.986137    30.025413 
 5182400    228.83512   -80.502764    229018.04   -23357.176    1515.6574   -24872.833    121.80052     10619.22    80.326366    14.984798    30.031631 
 5182600    229.14506   -196.87048    229018.04    -23330.66    1517.7102    -24848.37   -319.10443    10616.212    80.325358    14.984322    30.045285 
 5182800    224.58112   -206.06208    229018.04   -23335.695    1487.4816   -24823.176   -338.74627    10614.622    80.324594    14.982926    30.032949 
 5183000    225.28239   -130.26131    229018.04   -23326.866    1492.1264   -24818.992   -58.824049    10618.892    80.324891    14.981843    30.030346 
 5183200    226.62592    -176.1492    229018.04   -23341.486     1501.025   -24842.511   -202.86279    10616.318    80.323136    14.982197       30.036 
 5183400     223.0477   -208.40525    229018.04   -23366.003    1477.3252   -24843.328   -342.84733    10615.732    80.322687    14.981785    30.026049 
 5183600    226.77935   -119.21067    229018.04   -23368.289    1502.0413   -24870.331    7.2811595    10615.151    80.322882     14.98287    30.035284 
 5183800     221.4291   -230.66467    229018.04   -23419.005    1466.6046   -24885.609   -440.98029    10619.736    80.322171    14.982932    30.041276 
 5184000    229.97537   -146.52254    229018.04   -23379.321    1523.2097    -24902.53   -110.30933    10615.955    80.321351    14.983731    30.032804 
 5184200    226.35777   -91.610121    229018.04   -23385.835     1499.249   -24885.084    66.497775    10614.553      80.3205    14.984337    30.038926 
 5184400    222.60148   -247.84582    229018.04   -23360.892    1474.3697   -24835.262   -509.83293    10619.068    80.319226    14.984335    30.030771 
 5184600    232.94845   -57.173322    229018.04   -23362.685    1542.9014   -24905.587     236.0203    10613.828    80.318205    14.984444    30.031731 
 5184800    230.69715   -85.390343    229018.04    -23346.63    1527.9903    -24874.62    115.76952    10617.028    80.317411    14.984123     30.03021 
 5185000    229.91601   -210.00179    229018.04   -23345.785    1522.8165   -24868.602   -373.02469    10618.569    80.319026    14.984176    30.040433 
 5185200    223.29094   -99.480817    229018.04   -23371.885    1478.9362   -24850.821    66.156524    10615.175    80.319161     14.98296    30.037272 
 5185400    222.95066   -110.55575    229018.04   -23401.694    1476.6825   -24878.377   -14.516358    10615.828    80.319621    14.983691    30.031809 
 5185600    222.86135    -195.3081    229018.04   -23366.611    1476.0909   -24842.701   -306.24849    10618.153    80.320117     14.98341    30.019652 
 5185800    232.37388   -131.06616    229018.04   -23273.455    1539.0959   -24812.551   -74.688124    10614.982    80.320002    14.984025    30.013665 
 5186000     230.3078   -232.36139    229018.04   -23319.166    1525.4115   -24844.577   -420.81989    10618.393    80.321311    14.984726    30.018454 
 5186200    226.85957    -204.9662    229018.04   -23390.648    1502.5726   -24893.221   -355.45302    10619.554    80.320921     14.98424    30.022977 
 5186400    224.11359    -133.0804    229018.04   -23409.959     1484.385   -24894.344   -57.910784    10618.114    80.321714    14.984986    30.028666 
 5186600       222.79   -105.09873    229018.04   -23328.914    1475.6183   -24804.532     53.67087    10618.183    80.321666    14.985449    30.028307 
 5186800    224.67751   -176.12794    229018.04   -23344.858      1488.12   -24832.978   -235.24513    10618.903    80.321668    14.984117      30.0233 
 5187000    224.67351   -112.91598    229018.04   -23344.872    1488.0935   -24832.966   -15.710462    10617.211    80.323572    14.984334     30.02226 
 5187200    225.65582   -111.70806    229018.04   -23359.038    1494.5997   -24853.637    23.264092     10617.09    80.324497    14.984128    30.021951 
 5187400    232.90846   -128.75515    229018.04   -23340.879    1542.6366   -24883.516   -63.782956    10618.884    80.327021    14.983799    30.024193 
 5187600    226.52404    -106.8952    229018.04   -23363.881    1500.3503   -24864.231    33.130322    10616.448     80.32665     14.98425    30.029866 
 5187800    227.71879    -142.2636    229018.04   -23347.264    1508.2635   -24855.527   -122.96059    10618.636    80.327325    14.986079    30.028193 
 5188000    222.62602   -129.34482    229018.04   -23348.466    1474.5323   -24822.998   -23.448139    10618.013    80.328063    14.986251    30.025927 
 5188200    227.74331   -94.091539    229018.04   -23332.433    1508.4259   -24840.859    85.488059    10621.709    80.328803    14.984924     30.02504 
 5188400    222.20563   -145.00585    229018.04   -23371.338    1471.7479   -24843.086   -130.21976    10616.766    80.328929    14.983882    30.029607 
 5188600    232.21902   -152.96786    229018.04   -23302.821    1538.0702   -24840.892   -163.86181    10619.392    80.329316    14.985103    30.030445 
 5188800    231.52159   -53.697312    229018.04   -23340.911    1533.4509   -24874.362    257.29736    10616.522    80.329727    14.984058    30.033872 
 5189000    223.25333   -85.155525    229018.04   -23335.186    1478.6872   -24813.874    108.18248    10618.422    80.330983    14.984055    30.032489 
 5189200      231.738    -148.1072    229018.04   -23356.907    1534.8842   -24891.791    -176.7565    10617.456    80.331128    14.983583     30.04698 
 5189400    223.38496   -200.96039    229018.04   -23339.568     1479.559   -24819.127    -324.1027    10619.177    80.332871    14.981743    30.036919 
 5189600    227.28088   -120.07554    229018.04   -23335.394    1505.3631   -24840.757   -55.033822    10617.587    80.334144    14.979205    30.046564 
 5189800    226.18231   -169.48159    229018.04   -23377.225    1498.0868   -24875.312   -160.89399    10618.887    80.335135    14.978337    30.038503 
 5190000    226.66152   -133.65038    229018.04   -23349.419    1501.2608    -24850.68   -73.598567    10618.308     80.33608    14.976073    30.035731 
 5190200    229.75082   -217.55682    229018.04   -23336.823    1521.7224   -24858.545   -438.24954    10619.326    80.335562    14.974706    30.027043 
 5190400    228.62777   -131.39371    229018.04   -23359.758     1514.284   -24874.042   -76.069483    10618.679    80.334846    14.972119    30.024988 
 5190600     229.7844   -154.07367    229018.04   -23339.809    1521.9448   -24861.754    -163.6609    10618.558    80.334863    14.971786    30.033271 
 5190800    230.09401   -184.23921    229018.04   -23367.852    1523.9955   -24891.848   -262.04708    10621.004    80.334082    14.970922    30.030666 
 5191000    223.16507   -19.848892    229018.04   -23468.084    1478.1026   -24946.187    370.32494    10616.399    80.332644    14.970342    30.026676 
 5191200    223.78899   -181.89856    229018.04   -23389.907     1482.235   -24872.142   -274.37963    10621.351    80.333628    14.969448    30.038697 
 5191400    228.65985    -181.9155    229018.04   -23368.012    1514.4965   -24882.509   -299.39075    10619.527     80.33395    14.967186    30.035578 
 5191600    223.74591   -70.372144    229018.04   -23384.955    1481.9497   -24866.904    173.95533    10616.804    80.333888    14.965019    30.034371 
 5191800    231.49602   -237.91021    229018.04   -23337.717    1533.2815   -24870.999   -513.97717    10621.021    80.334135     14.96348    30.027162 
 5192000    231.00239   -136.91824    229018.04   -23337.862     1530.012   -24867.874   -71.398604    10619.493    80.333443    14.963007    30.026656 
 5192200    226.35953   -4.5108517    229018.04    -23365.82    1499.2606    -24865.08    400.12027    10618.231    80.333732    14.962811    30.035135 
 5192400     222.5217    -225.3668    229018.04   -23405.522    1473.8413   -24879.363   -432.00213    10621.946    80.334792    14.962131    30.042795 
 5192600    224.74107   -161.84359    229018.04    -23412.34     1488.541   -24900.881   -181.31984    10618.294    80.333587    14.962892    30.036334 
 5192800    228.97341   -27.110517    229018.04   -23332.877    1516.5733    -24849.45     343.6615    10619.711    80.331451    14.963191    30.042484 
 5193000    224.58604   -151.44921    229018.04   -23374.116    1487.5142   -24861.631   -124.74633    10620.877     80.33029     14.96365    30.037511 
 5193200     226.7138   -180.61233    229018.04   -23373.651    1501.6071   -24875.258   -274.03854    10621.657    80.329532    14.964987    30.031636 
 5193400    228.93489   -72.782894    229018.04   -23320.855    1516.3181   -24837.174    152.79163    10617.834    80.328425    14.966895    30.039211 
 5193600    226.88659   -149.59299    229018.04   -23369.605    1502.7516   -24872.356   -126.19563    10621.128      80.3275    14.967823     30.03271 
 5193800    228.61827   -114.82992    229018.04   -23394.744    1514.2211   -24908.965   -16.156265    10621.237     80.32622    14.967999    30.020778 
 5194000    225.95162    -67.39694    229018.04   -23393.666    1496.5589   -24890.225    197.83454    10622.468    80.325303    14.970261    30.027707 
 5194200    225.68656   -122.20727    229018.04   -23373.055    1494.8033   -24867.858   -18.065494    10621.758    80.323823      14.9712    30.030694 
 5194400    225.87979   -70.365526    229018.04   -23371.931    1496.0831   -24868.014    193.70669    10619.655    80.322745    14.969963    30.027355 
 5194600    225.48887   -92.358219    229018.04   -23395.758    1493.4939   -24889.252    75.750359    10620.089    80.322201    14.969822    30.030379 
 5194800    222.22167   -198.77906    229018.04   -23411.358    1471.8541   -24883.212   -345.71068     10622.07    80.320551    14.970964    30.024245 
 5195000    231.52988      -57.522    229018.04   -23331.586    1533.5057   -24865.092    223.18664    10621.247    80.319908    14.970344    30.028276 
 5195200    224.91572   -82.579067    229018.04   -23392.853    1489.6978    -24882.55    110.80244    10621.541    80.318708    14.970098    30.025774 
 5195400    229.35565   -87.565959    229018.04   -23316.917     1519.105   -24836.022    117.97056    10620.228    80.317596    14.969668     30.02688 
 5195600    228.84397   -79.200606    229018.04   -23368.129     1515.716   -24883.845    110.60358    10621.795    80.316232    14.969903     30.03982 
 5195800    230.60651   -101.33104    229018.04   -23328.381    1527.3899   -24855.771    96.095214    10620.235    80.314894    14.971744    30.032682 
 5196000    229.31393   -105.50208    229018.04   -23328.963    1518.8287   -24847.791    102.11521    10619.332    80.314899    14.972557    30.022557 
 5196200    229.56687   -186.59765    229018.04   -23293.525     1520.504   -24814.029    -311.2006    10622.966    80.313159    14.973239    30.021982 
 5196400    226.04222   -44.710127    229018.04   -23348.931     1497.159   -24846.089    294.46589    10621.038     80.31204     14.97331    30.028029 
 5196600    219.14048   -171.58426    229018.04   -23453.155    1451.4463   -24904.601   -212.39695    10621.689    80.311695    14.974674    30.032932 
 5196800    230.12199   -192.66368    229018.04   -23348.404    1524.1808   -24872.585   -303.51373    10623.083    80.312277    14.975687     30.02585 
 5197000    220.62904   -72.795466    229018.04   -23382.628    1461.3055   -24843.934    151.57076    10618.635    80.312801     14.97568    30.029561 
 5197200      235.595   -117.69239    229018.04   -23283.592    1560.4305   -24844.023    3.4237122    10620.287    80.311404    14.975425    30.035201 
 5197400    225.50784   -136.86653    229018.04   -23376.202    1493.6196   -24869.821   -128.57328    10622.472    80.309736    14.976151    30.035462 
 5197600    226.95031   -107.13368    229018.04    -23363.31    1503.1736   -24866.483   -1.4016215    10623.436    80.308844    14.976813    30.031618 
 5197800    229.39968   -70.726128    229018.04   -23262.167    1519.3967   -24781.564    170.25104    10622.555    80.308648    14.977928    30.027164 
 5198000    233.00452   -143.90922    229018.04   -23260.683    1543.2728   -24803.955   -117.48315    10625.363    80.309204    14.978242    30.023574 
 5198200    229.95616   -129.07319    229018.04   -23319.413    1523.0824   -24842.496   -89.815351    10624.864    80.308367    14.978919     30.00973 
 5198400    232.80965   -119.99874    229018.04   -23342.417    1541.9821   -24884.399   -8.1538483    10620.999    80.307683    14.978597    30.003617 
 5198600    226.17397   -142.94134    229018.04   -23394.616    1498.0316   -24892.647   -80.433964    10623.556    80.306248    14.980377    30.005509 
 5198800    220.71041   -126.50948    229018.04   -23389.008    1461.8445   -24850.853   -61.286465    10622.186    80.305802    14.980854    30.000773 
 5199000    228.04516   -75.158115    229018.04   -23306.053    1510.4252   -24816.479     162.0686    10620.381    80.306205    14.979437    30.005816 
 5199200    228.42633   -162.02026    229018.04    -23351.57    1512.9498    -24864.52   -191.39411      10621.3    80.307771    14.978344    29.996728 
 5199400    227.58426   -169.78507    229018.04   -23383.342    1507.3724   -24890.715   -240.35407    10622.652    80.307655    14.976449    30.002216 
 5199600    234.01389   -64.774374    229018.04   -23350.917    1549.9582   -24900.876    171.21281    10623.132    80.307194    14.974542    30.003905 
 5199800    221.52167    -141.1932    229018.04   -23397.146    1467.2177   -24864.363   -89.990004    10623.769    80.307803    14.974758     30.00409 
 5200000    233.58477   -197.36308    229018.04   -23327.865     1547.116   -24874.981   -364.79253    10623.506    80.308168    14.973787    30.009068 
Loop time of 7881.59 on 64 procs for 5200000 steps with 8943 atoms

Performance: 570.037 ns/day, 0.042 hours/ns, 659.765 timesteps/s
100.0% CPU use with 64 MPI tasks x no OpenMP threads

MPI task timing breakdown:
Section |  min time  |  avg time  |  max time  |%varavg| %total
---------------------------------------------------------------
Pair    | 0.28352    | 1847.8     | 5973.3     |4668.9 | 23.44
Neigh   | 0.74434    | 242.92     | 923.5      |1943.1 |  3.08
Comm    | 19.212     | 2180.3     | 6299.5     |4096.3 | 27.66
Output  | 233.94     | 234.02     | 234.24     |   0.3 |  2.97
Modify  | 153.65     | 3304.4     | 7558.6     |5361.5 | 41.93
Other   |            | 72.13      |            |       |  0.92

Nlocal:    139.734 ave 439 max 0 min
Histogram: 25 9 14 0 0 0 0 0 0 16
Nghost:    821.328 ave 1296 max 0 min
Histogram: 8 0 2 2 0 4 24 2 10 12
Neighs:    0 ave 0 max 0 min
Histogram: 64 0 0 0 0 0 0 0 0 0
FullNghs:  14021.9 ave 53785 max 0 min
Histogram: 40 8 0 0 0 0 0 0 6 10

Total # of neighbors = 897400
Ave neighs/atom = 100.347
Neighbor list builds = 561826
Dangerous builds = 0
write_data 		${DIR}/data.${NAME}_run
write_data 		run_29/data.${NAME}_run
write_data 		run_29/data.ibeam_cooling_29_run
Total wall time: 2:11:36
