
### Dimensions ###


### IMPORT ATOMS ###
read_data ../Box_Setup/data.Ibeam_235K
Reading data file ...
  orthogonal box = (0.0000000 0.0000000 0.0000000) to (78.752000 72.975319 40.002420)
  4 by 4 by 4 MPI processor grid
  reading atoms ...
  9010 atoms
  reading velocities ...
  9010 velocities
  read_data CPU = 0.079 seconds
group water type 2
2386 atoms in group water
group graphite type 1
6624 atoms in group graphite


# Define potential
#
pair_style          sw
pair_coeff * * MLC_e.sw C mW

# Add velocity/set timestep
#

fix		1 graphite setforce 0.0 0.0 0.0
velocity 	graphite set 0.0 0.0 0.0
velocity            water create ${START_TEMP} ${SEED} rot yes dist gaussian
velocity            water create 235 ${SEED} rot yes dist gaussian
velocity            water create 235 408 rot yes dist gaussian
timestep            5.0

# Define output
#
compute 1 water msd
compute 2 water temp


thermo	            100
thermo_style custom step c_2 press vol etotal ke pe c_1[4] density

# Neighbor lists
#
neigh_modify        delay 0 every 1 check yes


# Set fixes
#
fix                 2 water momentum 10 linear 1 1 1 rescale
fix                 3 all nve
fix                 4 water temp/csvr ${START_TEMP} ${START_TEMP} 500.0 928347
fix                 4 water temp/csvr 235 ${START_TEMP} 500.0 928347
fix                 4 water temp/csvr 235 235 500.0 928347

# Run 0.05 ns equilibration
#
dump                1 all custom 100 ${DIR}/eq.${NAME}.dump id type x y z vx vy vz
dump                1 all custom 100 run_6/eq.${NAME}.dump id type x y z vx vy vz
dump                1 all custom 100 run_6/eq.ibeam_cooling_6.dump id type x y z vx vy vz
run                 10000
Neighbor list info ...
  update every 1 steps, delay 0 steps, check yes
  max neighbors/atom: 2000, page size: 100000
  master list distance cutoff = 6.6747184
  ghost atom cutoff = 6.6747184
  binsize = 3.3373592, bins = 24 22 12
  1 neighbor lists, perpetual/occasional/extra = 1 0 0
  (1) pair sw, perpetual
      attributes: full, newton on
      pair build: full/bin/atomonly
      stencil: full/bin/3d
      bin: standard
Per MPI rank memory allocation (min/avg/max) = 3.602 | 4.441 | 4.793 Mbytes
Step c_2 Press Volume TotEng KinEng PotEng c_1[4] Density 
       0          235   -397.42353       229892   -22660.138    1670.6695   -24330.807            0   0.88510766 
     100    232.47598   -346.99509       229892     -22656.4    1652.7257   -24309.125   0.80100355   0.88510766 
     200    232.46171    -379.0402       229892   -22683.031    1652.6242   -24335.655    1.1517796   0.88510766 
     300    231.67231    -237.7899       229892   -22670.409    1647.0122   -24317.421     1.395429   0.88510766 
     400    233.68325   -257.36426       229892   -22674.882    1661.3084   -24336.191    1.7138747   0.88510766 
     500    232.02487   -342.33035       229892   -22644.768    1649.5186   -24294.286    2.0190448   0.88510766 
     600    240.64464   -406.45737       229892   -22576.331    1710.7985    -24287.13    2.3680071   0.88510766 
     700    232.44349   -316.97589       229892   -22586.595    1652.4947    -24239.09    2.7528108   0.88510766 
     800     237.0431   -239.06257       229892   -22567.143    1685.1944   -24252.337    2.9356165   0.88510766 
     900    237.39285   -319.57407       229892   -22589.419    1687.6809     -24277.1    3.2231675   0.88510766 
    1000    232.58022   -443.85985       229892   -22610.186    1653.4667   -24263.653    3.6462335   0.88510766 
    1100    242.80728    -192.9445       229892   -22596.078    1726.1733   -24322.251     3.895679   0.88510766 
    1200    235.80812   -473.12819       229892   -22615.781    1676.4146   -24292.196    4.1322747   0.88510766 
    1300    243.10725   -391.59638       229892   -22574.485    1728.3058   -24302.791    4.3312826   0.88510766 
    1400    236.23163    -406.3624       229892   -22620.166    1679.4255   -24299.591    4.5219091   0.88510766 
    1500    231.02248   -323.84363       229892   -22646.478    1642.3924   -24288.871    4.7600979   0.88510766 
    1600    236.87851   -422.64083       229892   -22629.968    1684.0242   -24313.992    4.9045864   0.88510766 
    1700    234.30641   -393.81535       229892   -22646.055    1665.7386   -24311.794    5.2255757   0.88510766 
    1800    238.36548   -282.19758       229892   -22611.554    1694.5955   -24306.149    5.6269422   0.88510766 
    1900    229.92742    -437.8083       229892   -22568.478    1634.6074   -24203.086     6.061042   0.88510766 
    2000    240.13327   -409.10988       229892    -22524.44    1707.1631   -24231.604    6.2118272   0.88510766 
    2100    234.63002   -337.53002       229892   -22626.079    1668.0393   -24294.118    6.5875794   0.88510766 
    2200    236.19744   -361.12144       229892   -22597.203    1679.1824   -24276.386     6.892516   0.88510766 
    2300    241.82716   -422.48741       229892   -22579.742    1719.2054   -24298.948     7.081758   0.88510766 
    2400    237.09136   -309.22088       229892    -22583.98    1685.5375   -24269.518    7.2579045   0.88510766 
    2500    233.28232   -331.47413       229892   -22619.696    1658.4581   -24278.154    7.5780806   0.88510766 
    2600    230.44055   -381.40673       229892   -22625.856    1638.2553   -24264.111    7.7159691   0.88510766 
    2700    231.05236     -298.084       229892   -22613.912    1642.6049   -24256.517    7.9787293   0.88510766 
    2800    239.68034   -259.22362       229892   -22552.698    1703.9431   -24256.641    8.2680829   0.88510766 
    2900    237.54512   -389.47541       229892   -22551.278    1688.7633   -24240.041    8.6363026   0.88510766 
    3000    234.00122   -232.80363       229892   -22547.899    1663.5689   -24211.468    9.3133599   0.88510766 
    3100    241.56644   -327.15239       229892   -22533.571    1717.3519   -24250.923    9.7940237   0.88510766 
    3200    239.56922    -210.4295       229892   -22603.354    1703.1532   -24306.507    10.029978   0.88510766 
    3300    228.38037   -552.41976       229892   -22663.201     1623.609    -24286.81    10.468442   0.88510766 
    3400    228.45137   -243.12348       229892   -22599.105    1624.1138   -24223.218    10.903934   0.88510766 
    3500    227.86697   -448.62167       229892   -22586.458    1619.9591   -24206.417    11.315036   0.88510766 
    3600    231.90368     -481.822       229892   -22570.103     1648.657    -24218.76     11.75074   0.88510766 
    3700    234.70365   -410.45548       229892   -22536.529    1668.5627   -24205.091    11.792952   0.88510766 
    3800    237.75882   -127.15091       229892   -22535.131    1690.2826   -24225.414    11.901815   0.88510766 
    3900    237.09487   -419.50541       229892    -22550.54    1685.5624   -24236.103    12.350438   0.88510766 
    4000    235.30558   -455.63021       229892   -22590.994     1672.842   -24263.836    12.624403   0.88510766 
    4100    232.82287   -229.88123       229892   -22579.638    1655.1918    -24234.83    12.875924   0.88510766 
    4200    235.76125   -488.39329       229892   -22549.239    1676.0814    -24225.32    13.323313   0.88510766 
    4300    229.90812   -332.87841       229892   -22621.165    1634.4701   -24255.635    14.052274   0.88510766 
    4400    230.80544   -460.90285       229892   -22582.117    1640.8494   -24222.966    14.378869   0.88510766 
    4500     234.9948   -425.60848       229892   -22613.103    1670.6325   -24283.736    14.826635   0.88510766 
    4600    230.76319   -220.51455       229892    -22668.52     1640.549   -24309.069    15.274854   0.88510766 
    4700     232.8591   -389.06567       229892   -22603.258    1655.4493   -24258.707    15.377561   0.88510766 
    4800    235.91539    -436.0879       229892   -22567.207    1677.1773   -24244.384    15.649109   0.88510766 
    4900    243.97996   -364.26429       229892   -22535.991    1734.5102   -24270.501    15.898974   0.88510766 
    5000    232.67301   -303.48618       229892   -22592.532    1654.1264   -24246.658    16.117428   0.88510766 
    5100    238.83849   -431.86339       229892   -22560.027    1697.9583   -24257.985    16.243914   0.88510766 
    5200    235.88896   -279.08905       229892   -22618.655    1676.9894   -24295.644    16.407279   0.88510766 
    5300    227.59548   -426.35863       229892   -22679.989    1618.0291   -24298.018    17.053373   0.88510766 
    5400    234.84578   -519.06608       229892   -22669.194    1669.5731   -24338.768    17.555334   0.88510766 
    5500    232.47046   -347.48884       229892   -22663.023    1652.6864   -24315.709    18.148786   0.88510766 
    5600     235.3569   -291.15978       229892   -22672.751    1673.2068   -24345.958    18.649127   0.88510766 
    5700    229.52803   -441.83207       229892   -22650.854     1631.768   -24282.622    19.016398   0.88510766 
    5800    235.77719    -325.3127       229892   -22623.916    1676.1947   -24300.111      19.3109   0.88510766 
    5900    231.24987    -334.7635       229892   -22633.039     1644.009   -24277.048    19.451585   0.88510766 
    6000    230.54422   -275.98921       229892   -22653.975    1638.9923   -24292.967    19.639482   0.88510766 
    6100     229.8308   -226.94256       229892   -22677.219    1633.9205   -24311.139    19.811034   0.88510766 
    6200    233.46821   -288.53427       229892   -22685.103    1659.7797   -24344.882    19.969211   0.88510766 
    6300    235.99173   -411.76534       229892   -22609.138    1677.7199   -24286.858    20.241267   0.88510766 
    6400    234.72978     -165.139       229892   -22653.303    1668.7485   -24322.052    20.391958   0.88510766 
    6500    234.29918   -306.77473       229892   -22668.778    1665.6872   -24334.465    20.517231   0.88510766 
    6600    232.04284   -296.91951       229892   -22667.449    1649.6464   -24317.095    20.680159   0.88510766 
    6700    233.69307   -327.80753       229892   -22684.684    1661.3783   -24346.062    20.847821   0.88510766 
    6800    230.68588   -439.65395       229892    -22668.03    1639.9994   -24308.029    20.938208   0.88510766 
    6900    236.04974   -407.18138       229892   -22613.481    1678.1324   -24291.614    21.133767   0.88510766 
    7000    229.91581   -392.70212       229892   -22611.172    1634.5248   -24245.697    21.539511   0.88510766 
    7100    240.70246   -303.23347       229892   -22622.654    1711.2096   -24333.863    21.722456   0.88510766 
    7200    228.90456   -377.00027       229892   -22670.705    1627.3356   -24298.041    21.826875   0.88510766 
    7300    234.17282   -411.27881       229892   -22697.957    1664.7889   -24362.746    22.110001   0.88510766 
    7400     231.1695   -506.05783       229892    -22673.62    1643.4376   -24317.057    22.777997   0.88510766 
    7500    234.24579   -203.74273       229892   -22643.654    1665.3077   -24308.962    23.115509   0.88510766 
    7600    235.78896   -537.47101       229892   -22609.005    1676.2784   -24285.283    23.675692   0.88510766 
    7700    237.83677   -322.84404       229892   -22628.075    1690.8368   -24318.912    24.057358   0.88510766 
    7800    229.13434   -345.52506       229892    -22686.32    1628.9691   -24315.289    24.062718   0.88510766 
    7900    239.54144   -297.10297       229892   -22660.721    1702.9557   -24363.676    24.201135   0.88510766 
    8000    236.30449   -399.64366       229892   -22586.544    1679.9434   -24266.487    24.493475   0.88510766 
    8100    235.59436   -456.61713       229892   -22563.107     1674.895   -24238.002    24.792813   0.88510766 
    8200     237.6193   -306.75561       229892   -22580.591    1689.2907   -24269.882    24.905603   0.88510766 
    8300    244.17877    -229.3831       229892   -22553.141    1735.9235   -24289.064    24.814429   0.88510766 
    8400    235.32027    -354.4007       229892   -22531.533    1672.9464    -24204.48    24.855008   0.88510766 
    8500    230.99099   -435.99291       229892   -22562.912    1642.1685   -24205.081    25.054847   0.88510766 
    8600    232.22805   -434.16935       229892    -22567.18    1650.9631   -24218.143    25.259368   0.88510766 
    8700    240.18451   -233.56978       229892   -22606.707    1707.5274   -24314.235    25.455833   0.88510766 
    8800    238.13266    -307.2332       229892   -22606.535    1692.9403   -24299.476    25.788851   0.88510766 
    8900    232.17078   -283.05573       229892   -22638.783     1650.556   -24289.339    26.316384   0.88510766 
    9000    235.46364   -302.74055       229892   -22609.219    1673.9656   -24283.184    26.422821   0.88510766 
    9100    236.21119   -438.84106       229892   -22633.468    1679.2801   -24312.748     26.66646   0.88510766 
    9200    238.05156    -374.7176       229892   -22571.845    1692.3638   -24264.209    26.793637   0.88510766 
    9300    233.82235   -420.23447       229892   -22648.607    1662.2973   -24310.904    26.981331   0.88510766 
    9400    231.82882    -323.2234       229892   -22607.882    1648.1248   -24256.007    27.502559   0.88510766 
    9500    231.94305   -229.85983       229892    -22644.63     1648.937   -24293.567    27.973168   0.88510766 
    9600     230.2444   -397.91547       229892   -22639.481    1636.8609   -24276.342    28.453511   0.88510766 
    9700    232.38994   -241.03134       229892   -22592.173     1652.114   -24244.287    28.924999   0.88510766 
    9800    235.51926   -413.17865       229892   -22541.097     1674.361   -24215.458    29.197964   0.88510766 
    9900      236.524   -413.13468       229892   -22554.016     1681.504    -24235.52    29.139206   0.88510766 
   10000    230.67481   -383.76257       229892   -22549.657    1639.9207   -24189.577    29.549132   0.88510766 
Loop time of 18.1605 on 64 procs for 10000 steps with 9010 atoms

Performance: 237.879 ns/day, 0.101 hours/ns, 550.647 timesteps/s
99.1% CPU use with 64 MPI tasks x no OpenMP threads

MPI task timing breakdown:
Section |  min time  |  avg time  |  max time  |%varavg| %total
---------------------------------------------------------------
Pair    | 0.0013289  | 4.8531     | 14.741     | 242.8 | 26.72
Neigh   | 0.001354   | 0.2903     | 1.018      |  66.0 |  1.60
Comm    | 0.71718    | 7.0865     | 14.103     | 175.1 | 39.02
Output  | 0.20385    | 0.20514    | 0.20724    |   0.2 |  1.13
Modify  | 0.45237    | 5.4212     | 17.046     | 258.5 | 29.85
Other   |            | 0.3042     |            |       |  1.68

Nlocal:        140.781 ave         426 max           0 min
Histogram: 24 3 21 0 0 0 0 0 0 16
Nghost:        808.891 ave        1174 max          36 min
Histogram: 8 0 0 8 0 0 0 24 0 24
Neighs:         0.00000 ave           0 max           0 min
Histogram: 64 0 0 0 0 0 0 0 0 0
FullNghs:      13992.6 ave       52360 max           0 min
Histogram: 37 11 0 0 0 0 0 0 5 11

Total # of neighbors = 895528
Ave neighs/atom = 99.392675
Neighbor list builds = 572
Dangerous builds = 0
write_data 	    ${DIR}/data.${NAME}_eq
write_data 	    run_6/data.${NAME}_eq
write_data 	    run_6/data.ibeam_cooling_6_eq
System init for write_data ...

undump              1
unfix               4



################################################
#######         Run Simulation         #########
################################################

reset_timestep      0
timestep	    10.0
log                 ${DIR}/log.run_${NAME}
log                 run_6/log.run_${NAME}
log                 run_6/log.run_ibeam_cooling_6
