
# Set production fixes - Nose/Hoover
#
fix                 4 water temp/csvr ${START_TEMP} ${END_TEMP} 500.0 928347
fix                 4 water temp/csvr 235 ${END_TEMP} 500.0 928347
fix                 4 water temp/csvr 235 225 500.0 928347


## divide "droplet" into core and surface
#region		core_reg cylinder z 135 135 44.6 20 INF units box
#region		surface_reg cylinder z 135 135 44.6 20 INF units box side out
#group		core dynamic all region core_reg
#group		surface dynamic all region surface_reg

## compute pressure core
#compute        peratom_core core stress/atom NULL
#compute        p_core core reduce sum c_peratom_core[1] c_peratom_core[2] c_peratom_core[3]
#variable       press_core equal -(c_p_core[1]+c_p_core[2]+c_p_core[3])/(3*1249982.5)


## compute pressure surface
#compute        peratom_surf surface stress/atom NULL
#compute        p_surf surface reduce sum c_peratom_surf[1] c_peratom_surf[2] #c_peratom_surf[3]
#variable       press_surf equal -(c_p_surf[1]+c_p_surf[2]+c_p_surf[3])/(3*42395)

## compute total pressure of drop
compute        peratom water stress/atom NULL
compute        p water reduce sum c_peratom[1] c_peratom[2] c_peratom[3]
variable       press equal -(c_p[1]+c_p[2]+c_p[3])/(3*58187)


# compute order parameter
compute        3 all orientorder/atom nnn NULL cutoff 3.5

# compute center of mass of bridge
compute 	4 water com

# Run simulation
thermo_style        custom step c_2 press vol etotal ke pe v_press c_1[4] c_4[*]
thermo              200
dump		     1 water custom 400 ${DIR}/prod.${NAME}.dump id type x y z vx vy vz c_3[*] c_peratom[*]
dump		     1 water custom 400 run_6/prod.${NAME}.dump id type x y z vx vy vz c_3[*] c_peratom[*]
dump		     1 water custom 400 run_6/prod.ibeam_cooling_6.dump id type x y z vx vy vz c_3[*] c_peratom[*]
run                 ${STEPS}
run                 4000000
Neighbor list info ...
  update every 1 steps, delay 0 steps, check yes
  max neighbors/atom: 2000, page size: 100000
  master list distance cutoff = 6.6747184
  ghost atom cutoff = 6.6747184
  binsize = 3.3373592, bins = 24 22 12
  2 neighbor lists, perpetual/occasional/extra = 1 1 0
  (1) pair sw, perpetual
      attributes: full, newton on
      pair build: full/bin/atomonly
      stencil: full/bin/3d
      bin: standard
  (2) compute orientorder/atom, occasional, copy from (1)
      attributes: full, newton on
      pair build: copy
      stencil: none
      bin: none
Per MPI rank memory allocation (min/avg/max) = 6.106 | 6.685 | 7.323 Mbytes
Step c_2 Press Volume TotEng KinEng PotEng v_press c_1[4] c_4[1] c_4[2] c_4[3] 
       0    230.67481   -383.76257       229892   -22549.657    1639.9207   -24189.577   -999.21776    29.549132     39.43881    35.562169    26.708348 
     200    235.68061   -227.49952       229892   -22565.884    1675.5081   -24241.392   -343.07299    31.268084    39.437527    35.560736    26.679839 
     400    237.59969   -409.96024       229892   -22555.124    1689.1513   -24244.275   -1085.5753    32.995903    39.434497    35.559412    26.673741 
     600    239.11118   -189.60192       229892   -22479.567    1699.8968   -24179.464   -222.75217    34.240514    39.435392    35.560661    26.687543 
     800    235.39863   -272.05551       229892   -22498.273    1673.5035   -24171.776    -548.4769    36.826057    39.434793    35.560811    26.698986 
    1000    233.02631   -423.20282       229892   -22545.403    1656.6381   -24202.041   -1093.2226    38.519801    39.434279    35.560068    26.712372 
    1200    231.78793   -467.45507       229892   -22519.625    1647.8341   -24167.459   -1353.7498    39.366248    39.435916     35.56004    26.709879 
    1400    231.35539   -318.92615       229892   -22532.167    1644.7591   -24176.926   -717.16445    39.519207    39.435563    35.558146    26.692382 
    1600    237.10012   -230.68594       229892   -22532.057    1685.5998   -24217.657    -368.4009    40.754864    39.436678    35.558984    26.679519 
    1800    236.44235   -346.20985       229892   -22512.295    1680.9235   -24193.218   -836.48494    42.943746    39.437276    35.558691    26.669439 
    2000    241.54768   -341.70766       229892   -22450.791    1717.2185   -24168.009   -798.05748    43.926244    39.437881    35.557064    26.689517 
    2200    237.57163   -418.96347       229892   -22558.712    1688.9518   -24247.663    -1082.625    43.671947    39.438201    35.557167    26.676809 
    2400    236.83295   -356.62464       229892   -22554.687    1683.7004   -24238.387    -827.3134    44.434011    39.438305    35.558772    26.672244 
    2600    231.93547   -527.48741       229892   -22593.307    1648.8831    -24242.19    -1543.649    46.205078    39.436713    35.561323    26.688774 
    2800    237.97445   -534.29992       229892   -22507.422    1691.8155   -24199.238    -1590.767    47.956611    39.435923    35.561602    26.709278 
    3000    235.67095   -204.52712       229892   -22534.239    1675.4394   -24209.678   -284.90992    49.036915    39.439507    35.563379    26.694219 
    3200    230.55309   -325.58737       229892   -22604.385    1639.0554    -24243.44   -708.08459     50.69139    39.440398    35.564386    26.694357 
    3400    233.02204    -240.3309       229892   -22579.498    1656.6077   -24236.106    -395.6255    51.063916     39.44089      35.5623    26.686737 
    3600    227.89246   -422.86211       229892   -22582.229    1620.1404   -24202.369   -1090.3518     51.74686    39.440986    35.562192    26.700954 
    3800    232.90917   -428.88587       229892   -22500.254    1655.8053    -24156.06   -1145.5452    52.806185    39.440227    35.559941    26.709258 
    4000    234.51088   -343.25032       229892   -22540.565    1667.1922   -24207.757    -778.4892    53.567483    39.440354    35.557247     26.71233 
    4200    236.40369   -206.51099       229892   -22469.134    1680.6487   -24149.782   -269.53453    55.572535    39.440765    35.557557    26.704132 
    4400    231.95455   -362.51928       229892   -22503.283    1649.0187   -24152.302   -906.75034    56.618592    39.441615    35.559565    26.719376 
    4600    230.16704   -222.85349       229892   -22598.949    1636.3109    -24235.26   -359.24881    58.226265    39.442635    35.561138    26.709764 
    4800    239.65677   -336.87521       229892   -22470.849    1703.7756   -24174.624   -818.19046     59.71334    39.445245    35.564067    26.702007 
    5000     228.2721   -379.68927       229892   -22521.886    1622.8393   -24144.725   -907.06392    60.913894    39.445223    35.566772    26.715351 
    5200    228.19797   -478.39537       229892   -22511.978    1622.3123    -24134.29   -1332.9101    61.880697    39.445061    35.569195    26.744365 
    5400    233.67962   -401.82226       229892   -22544.227    1661.2826   -24205.509   -1043.2633    62.091187    39.445821    35.569618    26.751967 
    5600    235.92146   -393.83015       229892   -22573.504    1677.2204   -24250.725   -1027.2256    63.922862    39.449052    35.569479    26.747764 
    5800    236.83778   -299.76541       229892   -22546.267    1683.7347   -24230.002   -637.55161    65.421248    39.449613    35.568939    26.733778 
    6000    238.34703   -352.13268       229892   -22596.118    1694.4643   -24290.582   -853.08128    66.292873    39.450961    35.569716    26.733302 
    6200    230.36569    -411.1899       229892   -22629.395    1637.7232   -24267.118   -1056.1575     66.69227    39.453264    35.570994    26.745401 
    6400    234.72415   -315.44477       229892   -22578.054    1668.7084   -24246.762   -700.36833    68.233959    39.452322    35.573501    26.755228 
    6600    240.11225   -226.87374       229892    -22598.09    1707.0137   -24305.104   -308.44556    68.853114    39.451182    35.574856    26.747726 
    6800    236.88291   -269.82728       229892   -22608.575    1684.0556    -24292.63   -533.84422     69.21659    39.450888    35.573565     26.77304 
    7000    236.21385   -331.53043       229892   -22559.012     1679.299   -24238.311   -785.29198    70.358435    39.450723     35.57317    26.781514 
    7200     233.5306   -369.12185       229892   -22629.889    1660.2232   -24290.112   -919.51336    71.818122    39.452305    35.572478    26.808233 
    7400    232.61291   -213.32932       229892   -22595.981    1653.6991    -24249.68   -284.22888    71.315276    39.452763    35.573647     26.81065 
    7600    242.41649   -349.02102       229892    -22521.27     1723.395   -24244.665   -814.64498    72.773102    39.452778    35.576765    26.823905 
    7800    233.39688   -241.27324       229892   -22604.213    1659.2726   -24263.486   -390.53042    73.625042     39.45171    35.577542    26.823512 
    8000    241.20977   -399.15561       229892   -22495.749    1714.8162   -24210.565   -1009.8314    75.308872    39.451922    35.577182    26.839395 
    8200     239.7288   -439.01808       229892    -22531.01    1704.2876   -24235.297   -1156.1857    77.413599    39.452193    35.578024    26.846905 
    8400    240.93314   -356.47442       229892   -22496.671    1712.8496    -24209.52   -850.71554    77.334462    39.451424    35.577109    26.847415 
    8600    234.62657   -224.38577       229892   -22568.651    1668.0147   -24236.665   -305.21952    79.442076    39.454181    35.580722    26.850422 
    8800    227.58203   -470.64099       229892   -22545.741    1617.9334   -24163.675   -1334.6207    80.351647    39.455157    35.581878    26.867842 
    9000    238.61694   -485.77635       229892   -22545.788    1696.3832   -24242.171   -1353.7233    80.269194    39.454654    35.581031    26.851475 
    9200    239.84153   -344.52501       229892   -22536.821    1705.0891    -24241.91   -795.27613    80.756233     39.45303     35.58161    26.856467 
    9400    239.26149   -423.62161       229892   -22583.498    1700.9655   -24284.463   -1160.4357    81.737532    39.453478    35.582251    26.855394 
    9600    232.85059   -269.59383       229892   -22634.094    1655.3889   -24289.483   -521.29028    84.275385    39.452617    35.584706     26.86314 
    9800    238.67365   -277.08614       229892    -22544.52    1696.7863   -24241.307   -574.31816    85.769553    39.454357    35.585318    26.858666 
   10000    234.01895   -407.83099       229892   -22613.697     1663.695   -24277.392   -1009.8047    85.990991    39.456373    35.583859     26.87016 
   10200     239.8302   -355.10822       229892   -22531.044    1705.0085   -24236.052   -841.04763    87.665592    39.457201    35.582305    26.855369 
   10400    236.29883   -313.86886       229892   -22545.676    1679.9032   -24225.579    -688.7644    88.221832    39.455851    35.579473    26.865247 
   10600    235.73891   -398.30327       229892   -22597.097    1675.9226    -24273.02   -999.14868    89.019517    39.457296    35.577245     26.86898 
   10800    235.70188   -478.97735       229892   -22623.197    1675.6593   -24298.857   -1317.4348    89.841398    39.458566    35.576446    26.843883 
   11000    226.80047   -290.75295       229892   -22631.985    1612.3772   -24244.362   -602.80439    91.121094    39.459368    35.576463    26.831121 
   11200    231.94945    -432.6799       229892   -22595.799    1648.9824   -24244.782   -1122.5278    92.695384    39.459655    35.578308    26.825881 
   11400    237.57849   -554.16161       229892   -22595.476    1689.0006   -24284.477   -1628.7206    93.480291      39.4608    35.579978    26.816336 
   11600    242.63129   -236.97082       229892   -22518.345    1724.9221   -24243.267   -389.04735    94.335107    39.462129    35.582246    26.808994 
   11800    240.60897   -318.65089       229892   -22525.861    1710.5449   -24236.406   -707.16752    96.342946    39.462355    35.582089    26.826709 
   12000    236.37705   -300.62698       229892   -22510.037    1680.4593   -24190.497   -657.23437    96.741714    39.463246    35.581799    26.834609 
   12200    238.94294    -387.9871       229892   -22556.018    1698.7008   -24254.719   -972.96073    98.631111    39.463766    35.583076    26.841273 
   12400    229.68743    -427.9491       229892   -22579.312    1632.9012   -24212.213   -1127.5341    99.513733     39.46309     35.58441    26.837725 
   12600    242.90948   -278.81305       229892   -22496.819    1726.8998   -24223.719   -541.01892    100.18343    39.463595    35.584411    26.821642 
   12800    237.33778   -449.95334       229892   -22546.026    1687.2893   -24233.315   -1232.2562     101.0612    39.464859    35.585378    26.812288 
   13000    233.51332   -221.76945       229892   -22568.268    1660.1003   -24228.368   -331.00338    101.30008    39.464714    35.585792    26.819137 
   13200     231.1545   -427.32376       229892   -22600.995    1643.3309   -24244.326   -1163.4945    101.96735    39.464192    35.586843    26.809615 
   13400    234.51318   -173.53875       229892   -22688.321    1667.2086    -24355.53   -156.10842    102.80894    39.464972    35.585354    26.795668 
   13600    230.51664   -309.52275       229892   -22616.529    1638.7963   -24255.325    -679.4752    105.06676    39.464979    35.586926    26.789408 
   13800    234.23483   -300.09446       229892   -22548.452    1665.2298   -24213.682   -621.11807    106.00967    39.463126    35.587207     26.82274 
   14000    242.95816   -241.37196       229892   -22470.868    1727.2459   -24198.114    -424.5746    106.33501    39.464453    35.587132     26.81177 
   14200     232.4409   -424.20011       229892   -22550.213    1652.4762    -24202.69   -1160.4185    108.24016    39.463227    35.586159    26.803146 
   14400    227.82299   -263.71529       229892   -22590.022    1619.6465   -24209.669   -467.47525    109.03359    39.463302    35.583751    26.789456 
   14600    237.99234   -392.87653       229892   -22583.939    1691.9427   -24275.882   -1001.9211    109.15149    39.462207    35.582412    26.798896 
   14800    237.56642   -467.65509       229892   -22520.007    1688.9148   -24208.921   -1300.1208    109.44158    39.460649    35.582656    26.798156 
   15000    236.70944    -450.4518       229892   -22581.928    1682.8223    -24264.75   -1253.4855    110.98401    39.457131    35.584124    26.834508 
   15200    232.86674   -364.81606       229892   -22539.835    1655.5037   -24195.339   -867.24749    112.11118    39.457777    35.586932    26.845776 
   15400    237.99491   -419.87164       229892   -22616.411     1691.961   -24308.372   -1123.7918    113.41863     39.45619    35.586712    26.822755 
   15600    241.23037   -372.49349       229892   -22504.914    1714.9626   -24219.877   -957.39601      114.166    39.455634    35.583235     26.82066 
   15800    233.82419   -329.60668       229892   -22504.808    1662.3104   -24167.119   -747.40538    114.45952    39.456376    35.582533    26.810368 
   16000     234.0721   -293.52291       229892    -22523.53    1664.0728   -24187.603   -609.53575     114.4956    39.456377    35.583302    26.830302 
   16200     236.9593   -480.02774       229892   -22479.192    1684.5986   -24163.791   -1350.0713     115.7157    39.458493    35.587286    26.849562 
   16400    231.86895    -633.5524       229892    -22514.91    1648.4101    -24163.32   -1962.9718    116.98304    39.459687    35.587693    26.847784 
   16600    238.69028   -346.37272       229892   -22449.159    1696.9045   -24146.063   -859.06156    118.11533    39.457531    35.586789    26.842167 
   16800    238.71998   -322.14826       229892   -22553.651    1697.1157   -24250.767   -728.16002    120.18601    39.455826     35.58569    26.824321 
   17000    230.02153    -541.7341       229892   -22574.632    1635.2764   -24209.908   -1555.6447    123.80009     39.45306    35.586676    26.818629 
   17200    236.84767   -349.77732       229892   -22546.759     1683.805   -24230.564   -837.21747    125.24341    39.452226    35.587663    26.805658 
   17400     225.7109   -327.36578       229892   -22630.684    1604.6311   -24235.315   -782.66913    126.83561    39.450929    35.587079    26.819222 
   17600    232.64977   -324.15158       229892   -22552.184    1653.9612   -24206.146   -734.59425    127.25961    39.452666    35.590674     26.81346 
   17800    233.58483   -296.49112       229892   -22571.884    1660.6088   -24232.493    -634.3497    127.86458    39.453973     35.59132    26.834866 
   18000    233.97285   -245.09293       229892   -22523.995    1663.3673   -24187.362   -406.02945    126.67829    39.453619    35.590625     26.82053 
   18200     238.4844   -309.65931       229892   -22548.815    1695.4409   -24244.256   -690.74433    126.44052    39.455867    35.588799    26.824369 
   18400    229.99006   -348.42438       229892   -22526.021    1635.0527   -24161.074   -832.37999    127.43099    39.456178    35.588066    26.832606 
   18600    238.44846   -420.37208       229892   -22509.569    1695.1854   -24204.754   -1148.3652    130.01909    39.456023    35.588921    26.832313 
   18800    233.71937   -452.97916       229892   -22567.531    1661.5652   -24229.096   -1256.6611    130.85694    39.456848    35.589462    26.824738 
   19000    227.08241   -482.66652       229892   -22476.243    1614.3815   -24090.624   -1350.5092    130.75339    39.457722    35.589046    26.827637 
   19200    231.83648   -191.54718       229892   -22486.807    1648.1793   -24134.987   -239.61608    131.66556    39.456555     35.58886    26.842534 
   19400    236.37766   -331.69261       229892   -22425.544    1680.4636   -24106.007   -750.41086    133.58015    39.454883    35.587879    26.874523 
   19600    237.15344   -234.48474       229892   -22431.481    1685.9788    -24117.46    -386.5506    135.92576    39.452347    35.589417     26.88063 
   19800    233.81006   -436.88194       229892   -22442.039    1662.2099   -24104.249   -1130.4207    137.10526    39.452211     35.58691     26.89659 
   20000    229.19459   -469.16949       229892   -22499.076    1629.3975   -24128.474   -1337.8678     136.9852    39.451018    35.585774    26.909211 
   20200    238.02847   -355.04773       229892   -22617.323    1692.1996   -24309.523   -839.93625    136.65556    39.451323    35.586878    26.891668 
   20400    232.73688   -398.72987       229892   -22525.421    1654.5805   -24180.002   -991.99943    137.62757    39.451534    35.589591    26.877751 
   20600    237.23233   -364.73051       229892   -22591.345    1686.5397   -24277.885   -907.23125    137.90255    39.451154    35.590792    26.881093 
   20800    239.24175   -395.36092       229892   -22543.718    1700.8251   -24244.544   -1022.0615    139.50063    39.451626    35.590952    26.881781 
   21000    235.60561   -253.22625       229892   -22572.418    1674.9749   -24247.393   -445.38489    139.36906    39.451959    35.590137    26.880885 
   21200    235.71609   -425.24358       229892   -22553.894    1675.7603   -24229.654   -1117.4184    140.07582    39.451668    35.589497    26.877019 
   21400    235.54324   -239.64659       229892   -22531.821    1674.5315   -24206.352   -413.33281    141.21333    39.449205    35.588919    26.881394 
   21600    242.30547     -346.807       229892   -22455.093    1722.6058   -24177.698   -783.30268    142.41744     39.44884    35.587567      26.8902 
   21800    237.14707   -111.29865       229892   -22553.325    1685.9335   -24239.259    103.67816    143.49994    39.450985    35.589569    26.903751 
   22000    231.19124   -319.07718       229892    -22623.43    1643.5921   -24267.022   -714.95501    144.92063     39.44921    35.589338     26.89787 
   22200    230.36762   -374.51006       229892   -22635.478    1637.7369   -24273.215   -946.83808    147.14013    39.451684    35.589062    26.900733 
   22400    235.95851   -248.56852       229892   -22489.109    1677.4837   -24166.593   -428.53349     147.7899    39.453048    35.587161    26.897052 
   22600    236.35181   -202.59159       229892   -22569.664    1680.2799   -24249.944   -266.50184    148.54512    39.452842    35.586879    26.890367 
   22800    235.73213   -411.17854       229892   -22508.708    1675.8744   -24184.582   -1078.2697    150.80824    39.452743    35.585596    26.853465 
   23000    235.09626   -362.98083       229892   -22568.989    1671.3538   -24240.343   -866.15984    151.69877     39.45067    35.584153    26.823482 
   23200     237.8326   -329.11019       229892   -22489.569    1690.8071   -24180.376   -726.12498    152.51672    39.449581    35.584144     26.81449 
   23400    236.72682   -267.40081       229892   -22501.222    1682.9459   -24184.168   -558.27438    154.08182    39.447818    35.582534    26.810897 
   23600    238.58926   -250.69927       229892    -22464.52    1696.1864   -24160.706   -473.31549    155.15382    39.447843    35.578896    26.829084 
   23800    235.10987   -374.69572       229892   -22505.729    1671.4506    -24177.18   -938.72872    156.74809    39.446979     35.57758    26.858059 
   24000    235.34477     -284.629       229892   -22529.613    1673.1206   -24202.734    -578.4905    158.15743    39.446893    35.577437    26.851859 
   24200    229.81797   -452.16899       229892   -22564.647    1633.8292   -24198.476   -1252.2573    158.70581     39.44574    35.578148    26.839504 
   24400    234.07286   -306.95781       229892   -22595.486    1664.0783   -24259.564   -659.45002    159.56519    39.446955    35.578064    26.830518 
   24600    236.01955   -163.56954       229892   -22608.007    1677.9178   -24285.924   -126.40783    161.22361    39.446401    35.579701    26.827925 
   24800    229.04563   -288.90978       229892   -22552.152    1628.3385   -24180.491   -591.28451     162.7497    39.445773    35.582608    26.801938 
   25000    229.20983   -324.84313       229892   -22545.471    1629.5058   -24174.977   -745.58117    164.61059     39.44315      35.5822    26.792857 
   25200    222.51246   -453.93616       229892   -22684.062    1581.8927   -24265.955   -1234.8823    165.25792    39.441348    35.583491    26.788081 
   25400    231.97881   -475.31256       229892   -22593.546    1649.1912   -24242.737    -1358.035    166.23756    39.440443    35.585385    26.792785 
   25600    241.15989   -290.83409       229892   -22493.812    1714.4616   -24208.274    -587.8964    166.66422    39.439279    35.585749    26.772422 
   25800    235.38752   -464.18892       229892   -22543.607    1673.4245   -24217.031   -1292.5592    168.31761    39.437846    35.583484    26.763181 
   26000    227.74756   -353.23227       229892   -22573.308    1619.1102   -24192.418   -876.25208    170.58438    39.437548    35.583633    26.756743 
   26200    237.64523   -336.03135       229892    -22576.67    1689.4751   -24266.145    -761.3685    171.15608     39.43953    35.582154    26.738755 
   26400    228.79447    -279.5394       229892   -22630.734     1626.553   -24257.287   -551.57653    172.09957    39.441659    35.580201    26.722652 
   26600    237.58715   -325.34272       229892   -22534.011    1689.0622   -24223.074   -726.05216    174.14945    39.440892    35.583123     26.73616 
   26800    233.97102   -243.10804       229892   -22533.268    1663.3543   -24196.622   -417.24341    175.73965    39.441211    35.583617      26.7393 
   27000    237.98729   -397.58959       229892   -22450.564    1691.9068   -24142.471   -1008.7271     176.9313    39.442688    35.583173    26.725174 
   27200    236.43541   -375.59985       229892   -22525.931    1680.8742   -24206.805   -928.04161    177.00559    39.441541    35.583455    26.736311 
   27400    237.85681   -67.388454       229892   -22426.278    1690.9792   -24117.258    244.16212    178.46908     39.44258    35.582344    26.735386 
   27600    233.74687   -368.08647       229892    -22590.95    1661.7607    -24252.71   -888.61987    180.58631     39.44508    35.582448    26.723953 
   27800    239.80813   -433.38104       229892   -22518.388    1704.8516   -24223.239     -1138.15    181.04494    39.444998    35.579865     26.71399 
   28000     231.4579   -317.86555       229892   -22633.659    1645.4879   -24279.146   -710.34978    182.87915    39.446151    35.579306    26.707626 
   28200      236.798   -405.03065       229892   -22611.252    1683.4519   -24294.704   -1018.7367    182.90578    39.445014    35.580112    26.718755 
   28400    234.65545   -270.72288       229892   -22586.567      1668.22   -24254.787   -549.77976    184.13105    39.443514    35.578503    26.716293 
   28600    235.14106   -507.58455       229892   -22602.676    1671.6724   -24274.348   -1412.5235    185.84299    39.445736    35.579887     26.71666 
   28800    236.56417    -508.0111       229892   -22586.558    1681.7896   -24268.348   -1427.5855    187.35031    39.445839    35.580768    26.708623 
   29000    237.31027   -303.40478       229892   -22537.972    1687.0938   -24225.066   -613.08829    188.26218    39.445025    35.582556    26.697943 
   29200    233.12631   -466.36931       229892   -22515.161     1657.349    -24172.51   -1305.6737    188.56168    39.447188    35.580972    26.713778 
   29400     234.6311    -398.7386       229892   -22488.273    1668.0469   -24156.319   -1029.6801    190.17693    39.449274    35.579058    26.691161 
   29600    241.72164   -235.05885       229892   -22486.849    1718.4552   -24205.304   -373.92614    192.39856    39.451567     35.57705    26.668343 
   29800     232.7561   -416.58592       229892   -22613.112    1654.7171   -24267.829    -1080.758    194.71322    39.450555    35.578654    26.658106 
   30000    224.37814   -471.53267       229892   -22685.216    1595.1563   -24280.372   -1297.8922    195.27376    39.450811    35.580204     26.67299 
   30200    237.40417   -531.80411       229892   -22562.902    1687.7613   -24250.663   -1556.2827    195.30213    39.447621    35.578801    26.676283 
   30400    230.96977   -509.80867       229892   -22570.829    1642.0177   -24212.846   -1435.3555    195.57462    39.447562    35.577775    26.677796 
   30600    230.70725   -329.27428       229892   -22631.835    1640.1514   -24271.986   -739.52164    196.22277    39.448797    35.576724     26.69018 
   30800    233.33985   -417.71339       229892    -22585.46    1658.8671   -24244.327   -1102.6098    197.04763    39.448273    35.573893    26.707629 
   31000    234.52541   -307.87382       229892   -22579.588    1667.2956   -24246.883   -613.59564    196.72199    39.449151    35.571524     26.72654 
   31200    227.23006   -381.14298       229892   -22588.145    1615.4312   -24203.576   -962.83949    198.07655    39.451233    35.571401    26.729224 
   31400    237.90569   -395.28881       229892    -22575.66    1691.3268   -24266.986   -1010.1869    197.11803    39.450454    35.569288    26.735341 
   31600    229.34398   -391.06101       229892   -22599.727    1630.4596   -24230.187   -1011.7108    198.09442     39.45235    35.566214    26.749779 
   31800      231.627   -258.03154       229892   -22498.913    1646.6901   -24145.603   -466.50022    198.86703    39.450704     35.56521    26.748082 
   32000    235.75416   -237.96694       229892   -22595.507     1676.031   -24271.538    -430.2549    200.35993     39.44771    35.565911    26.760559 
   32200     229.5922   -296.69784       229892    -22597.43    1632.2242   -24229.654   -634.85232    200.86938    39.446811    35.563865    26.777885 
   32400     226.4418   -337.47161       229892   -22582.446    1609.8273   -24192.273   -772.76841    202.12515     39.44684    35.563934    26.779839 
   32600    240.77056   -335.67649       229892   -22510.952    1711.6938   -24222.646   -780.33869     203.3494    39.444743    35.563639     26.81254 
   32800    238.58175    -308.3697       229892   -22503.652     1696.133   -24199.785   -664.49521    203.56661    39.445663    35.564576    26.816652 
   33000     231.7488   -312.20548       229892   -22493.575     1647.556   -24141.131   -682.76864    204.96372     39.44576    35.563619    26.820327 
   33200    237.27472   -380.18882       229892    -22511.49     1686.841   -24198.331   -944.81367    206.74208    39.446223    35.564101    26.839272 
   33400    231.22072    -280.4524       229892   -22574.718    1643.8017    -24218.52   -560.23733    207.36209    39.449394    35.565192    26.833042 
   33600    234.22746   -339.44535       229892   -22573.911    1665.1774   -24239.089   -776.07688    208.67063    39.450398    35.566565    26.825962 
   33800    246.18382   -362.23007       229892   -22468.465    1750.1779   -24218.643   -878.45061    208.27503     39.45044    35.567993    26.792808 
   34000    236.38778   -399.71209       229892   -22577.364    1680.5355   -24257.899     -1027.08    208.87008    39.447986    35.569695    26.774496 
   34200    234.17079   -355.74376       229892   -22565.889    1664.7744   -24230.663   -860.21252    209.60802    39.448103    35.570721    26.775822 
   34400    235.20716   -313.64459       229892    -22577.33    1672.1423   -24249.473   -685.79856    210.14428    39.447109    35.570362     26.74502 
   34600    235.38247   -333.00685       229892   -22448.063    1673.3886   -24121.451   -759.84069     210.8818    39.448982    35.572187     26.74096 
   34800    233.82251   -454.86361       229892   -22554.439    1662.2985   -24216.738   -1241.7106    211.95635    39.448665    35.572845    26.728593 
   35000    237.68907   -306.02687       229892   -22630.842    1689.7867   -24320.629   -637.02511    212.73794    39.446131    35.573256    26.723012 
   35200    234.05473   -419.56739       229892   -22538.559    1663.9494   -24202.509   -1081.4639    215.08892    39.444401    35.570333    26.720661 
   35400     238.7531   -377.84846       229892   -22561.802    1697.3511   -24259.153   -953.31633    217.12974     39.44437    35.571351     26.71304 
   35600    236.56416   -555.18189       229892   -22571.508    1681.7895   -24253.298   -1630.8128    217.44842    39.445879    35.571787    26.706051 
   35800    239.91152   -278.94817       229892   -22466.655    1705.5866   -24172.242   -544.26129    217.68215    39.446047    35.569444    26.698796 
   36000    230.39829   -461.28569       229892   -22589.839    1637.9549   -24227.793   -1285.8043    218.79193    39.444864    35.568848     26.70233 
   36200    231.88545   -317.25959       229892   -22590.954    1648.5275   -24239.482   -725.48703    218.57903    39.442964    35.569589    26.689059 
   36400    234.70075   -356.18397       229892   -22565.896     1668.542   -24234.439   -866.60964    220.92163    39.440945    35.567434    26.687816 
   36600    229.57876   -391.41438       229892   -22551.326    1632.1286   -24183.454   -999.65021     220.8279    39.442451    35.565665    26.692098 
   36800      233.572    -399.8689       229892   -22625.364    1660.5175   -24285.882   -1039.0351    223.38392    39.442422    35.565427    26.700705 
   37000    234.61994    -400.2653       229892   -22659.961    1667.9676   -24327.928   -1075.5064    223.62849    39.442432    35.565887    26.702627 
   37200    230.01397   -355.98651       229892   -22646.652    1635.2227   -24281.875    -845.1914    225.63101    39.443328    35.566446    26.705448 
   37400    230.51363   -307.10128       229892   -22595.018    1638.7748   -24233.793   -692.89984    224.90248    39.440781     35.56705    26.712858 
   37600    232.99613   -265.97766       229892   -22592.735    1656.4236   -24249.159   -504.53017    225.78937    39.442317     35.56722    26.710614 
   37800    230.75157   -340.47389       229892   -22619.353    1640.4664   -24259.819   -794.92587    227.53051    39.442102    35.567727    26.719688 
   38000    239.02916   -335.72645       229892   -22516.275    1699.3137   -24215.588   -775.58453    229.05232    39.442426    35.567593    26.721722 
   38200    234.43455   -359.88028       229892   -22540.446    1666.6496   -24207.096   -859.29702    229.22671    39.442953    35.568558    26.738039 
   38400    237.66209   -175.33329       229892   -22499.947    1689.5949   -24189.542   -199.28202    230.29379    39.441947    35.570016    26.736121 
   38600    238.38264   -290.62988       229892   -22564.834    1694.7175   -24259.551   -636.73691     231.4423    39.443246    35.572642    26.742722 
   38800    235.03191   -345.20048       229892   -22565.551    1670.8964   -24236.447    -802.8286    232.73875    39.444356     35.57304    26.720136 
   39000    235.96058   -349.90445       229892   -22521.544    1677.4985   -24199.043   -844.27479     232.8328    39.445222    35.572427    26.701455 
   39200    227.32919    -312.9501       229892   -22575.125    1616.1359   -24191.261   -696.11446     234.2703    39.446797    35.572434    26.699083 
   39400    230.06938   -329.30759       229892       -22547    1635.6166   -24182.616   -747.70615    233.89576    39.446555      35.5719    26.685999 
   39600     238.3645   -391.93378       229892   -22485.755    1694.5885   -24180.344   -1001.7816    235.06658    39.445481    35.570323    26.698269 
   39800     237.4141   -274.08393       229892   -22533.141    1687.8319   -24220.973   -544.46509    236.25193    39.444731    35.569664    26.712982 
   40000    238.15935   -633.51006       229892   -22527.106    1693.1301   -24220.236   -1989.0223    238.06767    39.444283    35.570545    26.710316 
   40200    232.61776    -360.2261       229892   -22558.504    1653.7336   -24212.237   -867.96968    240.11499    39.445321    35.571251    26.733212 
   40400    229.20662   -542.76085       229892   -22601.345    1629.4831   -24230.828   -1568.5648    240.31141       39.445    35.571201    26.752988 
   40600    238.38849   -244.51539       229892   -22492.008    1694.7591   -24186.767   -419.62202    240.72381     39.44517     35.57219    26.764475 
   40800     232.7697    -310.5401       229892   -22583.758    1654.8138   -24238.572   -673.55348    244.82364    39.443667     35.57274     26.76898 
   41000    234.06445   -317.75641       229892   -22528.348    1664.0185   -24192.367   -716.28487    245.02168    39.443334    35.573375    26.798241 
   41200    235.80432   -273.88935       229892   -22471.643    1676.3876   -24148.031   -525.49384    245.53289    39.444421    35.576151     26.79454 
   41400    239.36947   -518.84016       229892   -22518.273    1701.7331   -24220.006   -1493.9843    247.17946    39.445748    35.579902    26.785435 
   41600    235.47217   -480.87985       229892   -22536.139    1674.0263   -24210.165   -1325.9839    248.92728    39.446149    35.582133    26.775264 
   41800    232.43586   -399.18912       229892   -22549.539    1652.4404    -24201.98   -1047.0926    250.80319    39.445449     35.58257    26.799193 
   42000    234.88207   -265.94412       229892   -22615.786    1669.8312   -24285.617   -510.24023    251.02327    39.442656    35.583411    26.812203 
   42200    229.37001   -237.05248       229892   -22640.262    1630.6446   -24270.907   -379.48869    252.56503    39.438695    35.584917    26.808498 
   42400    236.76654   -293.49308       229892   -22595.123    1683.2282   -24278.352   -642.08418    253.47715    39.440018    35.582856    26.811129 
   42600    238.43951   -403.98639       229892   -22635.448    1695.1218    -24330.57   -1016.0559    253.22975    39.439898    35.582898    26.790075 
   42800    234.79816   -274.16176       229892   -22575.504    1669.2346   -24244.739   -543.06624    254.01534    39.440064    35.582435     26.77639 
   43000    230.94554   -388.58059       229892   -22535.511    1641.8454   -24177.356   -971.93242    254.39887    39.442008    35.581206    26.761851 
   43200    225.65562   -259.19522       229892   -22561.473    1604.2382   -24165.711   -482.21716    254.84161    39.442159    35.583661    26.756014 
   43400    231.75929   -411.23192       229892   -22548.761    1647.6305   -24196.392   -1032.2566    256.87133    39.441158    35.584392    26.764939 
   43600    234.31684   -320.97216       229892   -22565.675    1665.8128   -24231.488   -694.66492    259.16056    39.442388    35.585154    26.768202 
   43800    231.44602   -141.85582       229892   -22614.374    1645.4034   -24259.778    23.105319    257.95375    39.443506    35.586645     26.78094 
   44000    230.52529   -367.63628       229892   -22660.161    1638.8577   -24299.019   -873.27559    260.73528     39.44219    35.589024    26.753759 
   44200    234.82837   -219.85297       229892   -22563.237    1669.4494   -24232.686   -321.45658    261.51547    39.445349    35.591122    26.757963 
   44400    230.84123   -274.23857       229892    -22600.59    1641.1038   -24241.693   -499.08996    262.25912    39.444301    35.590531    26.731409 
   44600    234.24921   -343.04033       229892   -22598.523     1665.332   -24263.855   -805.34786    262.69106     39.44268    35.590597      26.7369 
   44800    237.93788   -305.22047       229892   -22631.203    1691.5556   -24322.759   -655.97621    261.77639    39.443196    35.591577    26.733188 
   45000    233.62499   -336.06262       229892   -22621.528    1660.8943   -24282.422   -727.74489    263.43314    39.442378    35.593562    26.733157 
   45200    233.69161   -433.96473       229892   -22545.705    1661.3678   -24207.073   -1142.7266     264.8803    39.441386    35.597706    26.746802 
   45400    231.45481   -437.39333       229892   -22655.177     1645.466   -24300.643   -1174.7936    264.95136    39.441608    35.598185     26.73849 
   45600    234.95684   -414.74722       229892   -22567.402    1670.3627   -24237.765   -1078.5086     267.1253    39.441577    35.597806    26.753218 
   45800    230.22728   -480.90881       229892   -22592.585    1636.7392   -24229.324   -1345.9127    266.96662    39.441348    35.598009    26.774338 
   46000     238.4386   -383.59135       229892   -22519.027    1695.1153   -24214.142   -920.23002    266.91515    39.441106    35.598025    26.774075 
   46200    230.64847   -314.81018       229892   -22476.802    1639.7335   -24116.535   -665.33892    268.32157    39.440634    35.597187    26.756356 
   46400    235.02635   -340.94262       229892     -22546.7    1670.8569   -24217.557   -784.61208    268.58071    39.440951    35.596793     26.75419 
   46600     235.8677   -335.21064       229892   -22543.921    1676.8382   -24220.759   -760.74394    268.86341    39.440573    35.599568    26.737945 
   46800    236.40484   -333.97271       229892   -22509.312    1680.6568   -24189.969    -768.7591    269.60471    39.438824    35.601329    26.730759 
   47000     236.5295   -366.19165       229892   -22492.392    1681.5431   -24173.935    -913.6548    271.06297    39.438804    35.599928    26.715302 
   47200    228.28855   -358.07108       229892   -22590.779    1622.9563   -24213.736   -833.98154    273.42298     39.43814    35.597595    26.702028 
   47400    234.66816   -328.68079       229892   -22519.958    1668.3104   -24188.268   -739.37882    275.75468    39.436332    35.596545    26.703119 
   47600    235.27255   -391.52066       229892   -22537.303    1672.6071    -24209.91    -1019.046    277.29684     39.43454    35.595516    26.723276 
   47800    227.21107   -245.09765       229892   -22567.868    1615.2962   -24183.164   -394.68898     278.7036    39.434695    35.594913    26.743218 
   48000    232.54645   -441.73133       229892   -22589.469    1653.2267   -24242.696   -1229.1931    279.23492    39.435592    35.594022    26.728294 
   48200    234.56296   -466.34473       229892   -22596.555    1667.5625   -24264.117   -1338.8263     281.0511    39.435958    35.594882    26.744391 
   48400    228.65984   -420.39884       229892   -22563.443    1625.5959   -24189.039   -1106.0229    281.68716    39.435396    35.594097    26.745017 
   48600    233.09957   -380.43598       229892   -22661.072    1657.1589   -24318.231   -943.70161    282.04578    39.434087    35.593645    26.756414 
   48800    237.39071   -369.12732       229892   -22653.041    1687.6656   -24340.707   -899.42578    280.34403    39.433485    35.594377    26.776752 
   49000     229.9109   -496.83633       229892    -22644.54    1634.4899    -24279.03    -1394.599    281.93191    39.434818    35.599667    26.786726 
   49200    236.92705   -243.48421       229892   -22566.696    1684.3693   -24251.066   -390.82112    281.80552    39.434693    35.603184    26.777764 
   49400    238.52041   -385.01193       229892   -22627.226    1695.6969   -24322.923   -986.49538    281.38714    39.434232    35.607168    26.772643 
   49600    234.53179   -252.15689       229892   -22647.081    1667.3409   -24314.422   -437.12036      282.823    39.435296    35.607777    26.766455 
   49800    238.50084   -232.97172       229892   -22617.034    1695.5578   -24312.592   -350.09854    282.37583     39.43646    35.609121    26.769355 
   50000    228.35737   -226.09308       229892   -22620.429    1623.4455   -24243.874   -343.46026    281.35118     39.43827    35.611834    26.773763 
   50200    236.30222   -268.30679       229892   -22553.537    1679.9273   -24233.464   -489.86093    282.33266    39.436946    35.613923    26.774631 
   50400    232.05394   -438.06092       229892   -22591.721    1649.7253   -24241.447   -1157.0359    282.72451    39.437072    35.615557    26.776007 
   50600    247.01104   -476.14602       229892   -22493.207    1756.0588   -24249.266   -1292.3805     282.5365     39.43704    35.614759    26.789706 
   50800    230.02971   -248.55909       229892   -22646.956    1635.3346    -24282.29   -402.31864     284.1959    39.436712    35.616693    26.776491 
   51000    235.52688   -366.19885       229892   -22591.282    1674.4152   -24265.697   -870.56602    285.93999     39.43762    35.615186    26.768017 
   51200     228.7856   -393.63217       229892   -22614.716    1626.4899   -24241.206   -1001.3902    288.00792    39.440479    35.611469    26.774487 
   51400    234.69676   -422.33631       229892   -22592.778    1668.5137   -24261.292   -1109.3999    288.67047    39.442387    35.610127    26.778764 
   51600    230.49522    -88.11183       229892   -22618.946     1638.644    -24257.59     210.2797     290.4061    39.443676    35.608637    26.779808 
   51800    232.39108   -389.91377       229892   -22614.937    1652.1221   -24267.059   -933.56182    289.60007    39.445189    35.609181    26.784964 
   52000    233.56579   -394.95959       229892   -22664.419    1660.4734   -24324.893    -980.6621    290.80382    39.447433    35.609273     26.78159 
   52200    231.76271   -317.11133       229892   -22683.839    1647.6549   -24331.494   -681.54566    290.50517    39.447149    35.610454    26.782453 
   52400    230.38339   -251.00332       229892   -22708.386    1637.8489   -24346.235   -452.79947     288.1874    39.446848    35.611103    26.776799 
   52600    236.25106   -201.46938       229892   -22572.576    1679.5636   -24252.139   -220.71737     289.3235    39.446161     35.60943    26.771219 
   52800    243.41457   -289.05258       229892   -22510.669    1730.4907    -24241.16   -553.63021    290.80825     39.44526    35.608885    26.776785 
   53000    239.16136   -297.53467       229892   -22525.511    1700.2536   -24225.765   -627.84435    290.40439     39.44401    35.608255    26.779756 
   53200    235.97216   -320.44234       229892   -22592.115    1677.5808   -24269.696   -703.78814    291.05698     39.44326    35.606796    26.787661 
   53400    237.56637    -333.7192       229892   -22567.582    1688.9145   -24256.497   -773.49228    293.51068    39.440785    35.605803    26.788929 
   53600    228.82669   -212.32843       229892   -22602.874     1626.782   -24229.656   -291.36725     295.6416    39.441154    35.605592    26.780545 
   53800    231.59933   -337.96076       229892   -22564.956    1646.4933    -24211.45   -794.43099    295.76718    39.441219    35.605739    26.808565 
   54000    235.71431   -379.36779       229892   -22538.762    1675.7477    -24214.51   -933.97582    296.76229    39.441258    35.607555    26.826701 
   54200    237.60755   -445.66154       229892   -22492.363    1689.2072    -24181.57   -1199.0606    299.62546    39.439102    35.610683    26.834867 
   54400    238.98445   -449.54806       229892   -22490.961    1698.9959   -24189.957   -1231.0118    299.61879    39.440405    35.608007    26.836091 
   54600      239.312   -242.10726       229892   -22506.931    1701.3245   -24208.256    -388.2417    301.00991    39.439413    35.610119    26.848225 
   54800    236.52816   -307.24242       229892   -22488.938    1681.5335   -24170.472   -687.45156    299.88356    39.437992    35.607784    26.821666 
   55000    231.38646    -330.8458       229892   -22455.561      1644.98   -24100.541   -775.93645    298.41618    39.438487    35.610494    26.809183 
   55200    226.60868   -237.64232       229892   -22570.949    1611.0136   -24181.963   -380.41191    300.04589    39.437543    35.612916    26.817972 
   55400    237.58894   -400.47307       229892   -22500.421    1689.0749   -24189.496   -1068.9382     301.0788    39.438432    35.614711    26.822265 
   55600    239.98956   -231.65936       229892   -22493.692    1706.1415   -24199.833   -367.05726    303.04345    39.437603    35.617698    26.838368 
   55800    239.54437   -213.48205       229892   -22402.203    1702.9765    -24105.18   -297.16751    301.01084    39.438184    35.616748    26.853663 
   56000    234.00371   -398.16941       229892   -22439.816    1663.5866   -24103.403   -1007.6971    302.45001    39.439264    35.616771    26.853602 
   56200    235.32503   -381.32157       229892   -22459.317    1672.9802   -24132.298   -960.41192    302.86327    39.439682    35.617835    26.863776 
   56400    232.39513   -345.75278       229892     -22541.8    1652.1509   -24193.951   -831.25609    303.77438    39.438574    35.618364    26.873173 
   56600    225.06258   -304.20847       229892   -22608.728    1600.0221    -24208.75   -696.31249    305.50661    39.439674    35.620021    26.880045 
   56800    230.38742   -225.50474       229892   -22545.552    1637.8776    -24183.43   -346.14193    306.39828    39.441247    35.620463    26.874927 
   57000    231.14633   -296.42331       229892   -22610.547    1643.2729    -24253.82   -623.58888    306.39586    39.441001    35.618675    26.887639 
   57200    234.63329   -333.27641       229892   -22490.129    1668.0625   -24158.192   -733.03671    307.97065    39.440952    35.620048    26.881115 
   57400    237.73054   -210.53415       229892   -22551.509    1690.0816   -24241.591   -326.98903    307.09668    39.441056    35.619942    26.875001 
   57600    232.99582   -471.95453       229892   -22577.996    1656.4213   -24234.418   -1333.9269    308.14347    39.441359     35.62002    26.899009 
   57800    230.80064   -245.99287       229892   -22549.781    1640.8153   -24190.596   -402.37344    309.77452     39.44101    35.621234    26.899286 
   58000    235.84247   -290.06029       229892   -22578.752    1676.6588   -24255.411   -597.84219    312.06719    39.439244    35.621066    26.912647 
   58200     241.5298   -494.90701       229892   -22530.142    1717.0913   -24247.233   -1358.5603    312.79812    39.438238    35.620488    26.920079 
   58400     235.2179   -356.94007       229892   -22574.416    1672.2186   -24246.635    -843.4277     313.5216    39.437566    35.622554    26.907989 
   58600    233.91875   -284.09153       229892     -22587.1    1662.9826   -24250.083   -624.89853    313.59435    39.437923    35.622849    26.909765 
   58800    235.24182   -409.77868       229892   -22573.442    1672.3887   -24245.831   -1081.3815    315.79582    39.438204    35.623625    26.907045 
   59000    241.48842   -242.78424       229892   -22520.494    1716.7972   -24237.291   -412.03943    317.27014    39.440604    35.622022    26.888895 
   59200    226.63271   -530.07748       229892   -22557.102    1611.1845   -24168.286   -1533.9688    320.07114    39.439984    35.622568     26.90729 
   59400      232.979   -452.11266       229892   -22536.771    1656.3017   -24193.073   -1232.5154    320.61647    39.440874    35.619703     26.93235 
   59600    229.90645    -274.8537       229892   -22570.215    1634.4583   -24204.673   -532.26762    321.61799     39.44007    35.619651    26.909883 
   59800    233.50135   -275.13698       229892    -22524.72    1660.0153   -24184.736   -533.27341    323.99231    39.439582    35.619856    26.911836 
   60000    237.82255   -354.92636       229892   -22520.672    1690.7357   -24211.408   -855.41816    324.27727    39.438538    35.619355    26.913393 
   60200    237.33488   -251.08137       229892   -22552.096    1687.2687   -24239.365   -439.17438     324.3627     39.43802    35.619445    26.919356 
   60400     234.2562   -431.40726       229892   -22540.592    1665.3816   -24205.973   -1160.8557    327.76412    39.438739    35.620255    26.942278 
   60600    238.46194   -263.29945       229892   -22506.981    1695.2812   -24202.262   -490.40364    330.19748    39.439048    35.620309    26.937906 
   60800    238.99551   -289.45224       229892   -22411.666    1699.0745   -24110.741   -588.35046    330.50578    39.438363     35.61954    26.922778 
   61000    234.84255   -267.66147       229892   -22533.445    1669.5501   -24202.995   -513.40762    332.23314    39.438754    35.620409    26.913874 
   61200    236.11276   -337.29183       229892   -22550.926    1678.5804   -24229.507   -803.76386    334.36902    39.440233     35.62064     26.91401 
   61400    239.09363   -316.08507       229892   -22585.363    1699.7721   -24285.135   -701.49607    334.86045    39.438659    35.618634    26.894224 
   61600    236.62303   -271.58266       229892   -22592.848     1682.208   -24275.056   -528.01166    333.28251     39.43708     35.61805    26.887396 
   61800    232.21517   -521.78134       229892   -22616.339    1650.8715   -24267.211   -1505.7905    335.89227    39.437687    35.618688    26.879082 
   62000      235.565   -385.87978       229892   -22544.964    1674.6862    -24219.65   -958.34992    337.31507    39.438168    35.618696    26.868313 
   62200    233.82537   -413.86883       229892    -22580.48    1662.3188   -24242.799   -1059.7643    338.09135    39.438604    35.618596    26.861176 
   62400    235.03589   -282.74629       229892    -22581.66    1670.9246   -24252.585   -562.52289     338.4387    39.441247    35.615339    26.859921 
   62600     227.2695   -393.22482       229892   -22549.773    1615.7116   -24165.485   -975.53406    339.58111    39.443319    35.614275    26.877537 
   62800    234.25908   -341.23592       229892   -22620.482    1665.4021   -24285.884   -811.48727    341.40457    39.444028    35.615841    26.884169 
   63000    239.38565   -319.87263       229892    -22522.71    1701.8481   -24224.558   -705.60278    342.22312    39.446217    35.620109    26.888466 
   63200    233.20628   -371.52642       229892   -22587.589    1657.9175   -24245.507    -902.4441    343.88135    39.449037    35.621313    26.901294 
   63400    230.12483   -463.25747       229892   -22608.592    1636.0108   -24244.603   -1272.9564    345.06268    39.451178    35.621442    26.907472 
   63600    233.11225   -384.49301       229892   -22607.309     1657.249   -24264.558   -952.36172    346.02791    39.450242    35.623134    26.898662 
   63800    229.85111   -377.11175       229892   -22629.717    1634.0649   -24263.782   -957.38071    347.24776    39.448164    35.626109    26.875491 
   64000    241.62167   -465.24242       229892   -22559.574    1717.7445   -24277.318   -1265.5019    349.05493    39.448519     35.62724    26.851876 
   64200    233.30951   -403.14299       229892   -22566.688    1658.6514   -24225.339   -1054.5075    348.72593    39.448865    35.626128    26.837921 
   64400    234.18794   -359.57499       229892   -22602.006    1664.8964   -24266.903     -864.089    349.48826      39.4494    35.625299    26.828441 
   64600    233.07457   -328.92597       229892   -22591.221    1656.9812   -24248.202   -745.48372    350.98533    39.449729    35.623152    26.816543 
   64800    227.12837   -255.44973       229892   -22576.545    1614.7083   -24191.253   -472.11327    348.99792    39.448252    35.623631    26.792498 
   65000    236.67579   -179.92278       229892   -22484.789    1682.5831   -24167.372   -138.63206     351.3016    39.446849    35.624655    26.782486 
   65200    232.11171   -469.62296       229892   -22570.085     1650.136    -24220.22   -1280.5849    351.47178    39.446022    35.622291    26.789952 
   65400     229.4609   -408.48288       229892   -22622.292    1631.2908   -24253.582   -1077.7977    351.76409    39.445275    35.621747    26.797361 
   65600    238.77644   -478.18086       229892   -22553.936    1697.5171   -24251.453   -1336.5406     353.1582    39.446215      35.6195    26.809642 
   65800    234.51075   -337.81658       229892   -22553.268    1667.1913    -24220.46   -738.51347    355.22193    39.445765    35.617855    26.789292 
   66000    237.74838   -459.95673       229892   -22526.601    1690.2084    -24216.81   -1221.7608    356.84654    39.445474    35.619377    26.805784 
   66200    227.33082   -386.42197       229892   -22622.541    1616.1475   -24238.689   -948.64125    357.26825    39.442538     35.62041    26.818054 
   66400    236.31649   -245.32686       229892    -22602.39    1680.0288   -24282.419   -429.75477    357.89535    39.440831    35.619642    26.823481 
   66600    237.71882   -334.88313       229892   -22667.706    1689.9983   -24357.704   -787.10519    359.79015    39.441072    35.617177    26.805663 
   66800    234.50227   -342.18187       229892    -22643.19     1667.131   -24310.321   -746.86835     357.9032    39.439062    35.618416    26.811181 
   67000    228.36607   -457.82658       229892    -22671.63    1623.5074   -24295.137   -1213.0627     359.1503    39.440667    35.617447    26.800774 
   67200    233.55097   -370.61418       229892   -22604.716     1660.368   -24265.084   -882.08685    360.02175    39.442666    35.619628    26.811337 
   67400    233.17567   -360.40626       229892   -22590.926    1657.6999   -24248.625   -876.77845    359.95119    39.442103    35.620788    26.813793 
   67600    236.69235   -408.05449       229892   -22534.844    1682.7008   -24217.545   -1017.7675    360.36546    39.442672    35.621633    26.832483 
   67800     236.8845   -377.22609       229892   -22535.222    1684.0669   -24219.289   -934.36526    361.58889     39.44338     35.62144    26.821137 
   68000    229.82979   -423.15096       229892   -22609.778    1633.9133   -24243.692   -1122.8471    363.35286    39.446211    35.621678    26.822046 
   68200    236.06351   -414.81158       229892   -22576.459    1678.2302   -24254.689   -1064.8584      365.267    39.445989    35.622593    26.833897 
   68400    231.79391   -371.95826       229892   -22563.643    1647.8767    -24211.52   -918.38111    365.84592    39.446069    35.620969    26.813696 
   68600    234.17884   -373.21146       229892   -22604.224    1664.8317   -24269.056   -928.08269    366.78221      39.4465     35.62019    26.833795 
   68800    245.83245   -228.47369       229892   -22547.982    1747.6799   -24295.662   -356.67507    370.64747    39.445333    35.620488    26.821653 
   69000    234.05297   -370.73956       229892   -22534.241    1663.9368   -24198.178   -870.15537    370.78751     39.44339    35.617263    26.813177 
   69200    230.26098   -393.12551       229892   -22599.297    1636.9787   -24236.276   -1005.0221    371.01571    39.442949    35.614745     26.81626 
   69400    234.38213   -467.05875       229892   -22622.434    1666.2769   -24288.711   -1303.4041    370.81284    39.444896    35.614635    26.820323 
   69600    237.42753   -200.18974       229892   -22474.648    1687.9274   -24162.576   -233.83868    370.72424    39.444203    35.613534     26.82424 
   69800    234.82859   -373.94922       229892    -22513.31    1669.4509   -24182.761   -955.18413     371.1778    39.444779    35.614418    26.845189 
   70000    233.77434   -432.84231       229892   -22587.508     1661.956   -24249.464   -1187.5611    372.79366    39.444971    35.615288    26.842233 
   70200    242.46598   -467.98571       229892   -22477.052    1723.7469   -24200.799   -1303.0179    374.07077    39.445104    35.614076    26.818574 
   70400     236.5693   -359.26368       229892   -22491.305    1681.8261   -24173.131   -866.32028    376.28767    39.444006     35.61306    26.811311 
   70600     235.8815   -412.48446       229892   -22569.992    1676.9363   -24246.928   -1115.3785    377.78993    39.441149    35.611027    26.796894 
   70800    236.72834   -411.53581       229892   -22613.433    1682.9567    -24296.39   -1126.9389    376.99354     39.43978    35.609111    26.791944 
   71000    238.52918   -278.97405       229892   -22634.478    1695.7593   -24330.237   -542.54173     376.5264    39.438653    35.608972    26.785639 
   71200    235.55714   -392.02476       229892   -22625.332    1674.6303   -24299.963   -992.11031    377.20417    39.437468    35.608875    26.789539 
   71400    234.60338   -385.74509       229892   -22655.402    1667.8499   -24323.252   -1000.6002     379.0341    39.435143    35.609879    26.800812 
   71600    236.81929   -442.73738       229892   -22565.708    1683.6033   -24249.311   -1170.4609    379.42363    39.432577    35.611291    26.806267 
   71800    232.36332   -414.77568       229892   -22641.261    1651.9247   -24293.186   -1074.5312    380.73111    39.430918    35.611695    26.795709 
   72000    229.46941    -371.7988       229892   -22641.137    1631.3513   -24272.489   -924.59604    379.91837    39.428263    35.609989    26.799944 
   72200    242.12886   -417.65037       229892   -22504.356    1721.3502   -24225.707   -1079.4651    381.64161    39.426688    35.610552    26.784995 
   72400    232.90015   -340.05503       229892   -22583.681    1655.7412   -24239.422   -822.18598    382.56542    39.425409     35.61073    26.800151 
   72600    233.28423   -231.92941       229892   -22563.994    1658.4717   -24222.466   -349.81526    382.03387    39.425272    35.610413    26.802944 
   72800    229.25563   -527.33971       229892   -22557.195    1629.8314   -24187.027   -1541.2538    384.11644    39.425703    35.610686    26.790173 
   73000    240.16298   -266.77466       229892   -22569.065    1707.3743   -24276.439   -501.45932    383.32217    39.425562    35.607925    26.794378 
   73200    231.83016   -378.12672       229892   -22486.473    1648.1344   -24134.608   -961.10516    384.94968    39.424807    35.606128    26.793099 
   73400    238.31536   -510.83452       229892   -22469.123    1694.2392   -24163.362   -1476.1976    387.47536    39.424578    35.605349    26.804615 
   73600    234.97274   -326.40088       229892   -22534.215    1670.4757   -24204.691    -713.5059    387.58662    39.426226    35.604332    26.807599 
   73800    224.48827   -418.26258       229892   -22608.504    1595.9392   -24204.443   -1089.5137    388.88446    39.427639    35.604465    26.796792 
   74000    235.52739   -189.13615       229892   -22602.626    1674.4189   -24277.044   -200.81776    388.46741    39.428466    35.604774    26.797632 
   74200    237.37641     -323.254       229892    -22500.48     1687.564   -24188.044   -749.69104    388.63558    39.427422    35.604074    26.809321 
   74400    235.41249   -448.68998       229892   -22498.432     1673.602   -24172.034   -1218.4886    389.99777    39.428827     35.60217     26.80524 
   74600    239.64626   -248.89461       229892   -22533.995    1703.7009   -24237.696   -428.87058    390.18572    39.429825    35.599708    26.808716 
   74800    235.02896   -259.58454       229892   -22574.375    1670.8754   -24245.251   -457.04999    392.46558    39.429129    35.599996    26.801946 
   75000     233.9087   -458.80574       229892   -22551.315    1662.9112   -24214.227   -1239.0238     394.9489    39.429029    35.602296    26.818912 
   75200    242.41276   -381.56731       229892   -22461.329    1723.3686   -24184.697   -1003.8639    394.29864    39.428034    35.602311    26.809809 
   75400    233.46063    -324.2034       229892   -22545.604    1659.7258    -24205.33   -757.15522    396.78735    39.426948    35.602192    26.832715 
   75600    230.96711   -361.18012       229892   -22525.938    1641.9988   -24167.937   -881.76672    398.32002    39.427722    35.600172     26.82477 
   75800    241.40761   -171.38309       229892   -22467.121    1716.2227   -24183.344     -108.351    397.09899    39.426515    35.601126    26.823843 
   76000    242.90713   -447.95768       229892    -22468.25    1726.8831   -24195.133   -1210.1078    400.21424    39.427384    35.601417    26.827721 
   76200    231.89302   -434.03172       229892   -22603.074    1648.5812   -24251.655    -1141.427    399.78569    39.427316     35.60088    26.810802 
   76400    239.75496   -444.00658       229892   -22560.909    1704.4736   -24265.383   -1159.9765    401.76444    39.425191    35.603069      26.8309 
   76600    234.38096   -322.76485       229892    -22534.89    1666.2686   -24201.158   -722.47835    401.64261    39.423228    35.602924    26.835508 
   76800    239.04353    -368.5378       229892   -22549.671    1699.4159   -24249.087   -901.16202    404.50015    39.422792    35.601383     26.83307 
   77000    234.18646   -459.09948       229892   -22556.262    1664.8859   -24221.148   -1243.9545    403.56292    39.421834    35.601635    26.833742 
   77200    239.45317   -414.10636       229892   -22511.515    1702.3281   -24213.843   -1109.1561    404.64453    39.422429    35.602942    26.827529 
   77400    236.50665   -356.67533       229892   -22531.684    1681.3806   -24213.065    -861.0863    405.09578    39.421398    35.601793     26.82039 
   77600    234.63898   -332.43371       229892   -22567.535     1668.103   -24235.638   -766.33522    405.36623     39.42276    35.601197    26.827676 
   77800     237.5936   -309.11413       229892   -22602.425     1689.108   -24291.533   -664.72106    407.33709    39.424174    35.602239    26.834257 
   78000    233.74654   -284.99714       229892   -22583.503    1661.7584   -24245.261   -552.76469    409.17046    39.426071      35.6033    26.850277 
   78200    232.31419   -328.67366       229892   -22609.744    1651.5754    -24261.32   -710.41475    407.82745    39.425119    35.603409    26.854539 
   78400    237.88152   -563.91913       229892   -22567.809    1691.1549   -24258.964   -1646.5856    408.75447    39.425241    35.606009    26.859015 
   78600    229.26693   -326.30533       229892   -22593.981    1629.9118   -24223.893   -750.76363    409.81085    39.424668     35.60467    26.861537 
   78800    236.20494   -307.57313       229892   -22561.512    1679.2357   -24240.748   -660.43382    410.74893    39.425378    35.603853    26.866273 
   79000    232.71922    -263.1019       229892   -22583.279    1654.4549   -24237.734   -489.78722    411.23504    39.426442    35.602514    26.870638 
   79200    234.71516   -208.83469       229892   -22513.849    1668.6446   -24182.493   -295.56474    413.92617    39.423623    35.600553    26.890526 
   79400    235.05885   -447.72866       229892   -22511.883    1671.0879   -24182.971   -1207.4559    413.75223    39.423553    35.602643    26.888667 
   79600    231.85751   -429.72401       229892   -22602.473    1648.3288   -24250.802     -1145.21    413.58291    39.426687    35.600615    26.879137 
   79800    230.44133   -401.68116       229892   -22589.603    1638.2609   -24227.864    -1032.035    414.14928    39.427163    35.600508    26.882802 
   80000    232.89626   -420.63551       229892   -22635.914    1655.7135   -24291.628   -1087.8669    414.74301    39.426418    35.600887    26.880675 
   80200    233.55715   -416.53914       229892   -22643.641     1660.412   -24304.053   -1045.2392    415.10644    39.425928    35.599441    26.873864 
   80400    225.96011   -319.63126       229892   -22646.847    1606.4028    -24253.25   -689.69213    414.18068    39.426021    35.598195     26.86824 
   80600    234.22831   -459.22594       229892   -22621.303    1665.1834   -24286.486   -1274.6781    415.59993     39.42564    35.600079    26.847895 
   80800    238.50305   -87.865712       229892   -22585.859    1695.5735   -24281.433    225.81221    416.02332    39.425091    35.598668    26.867963 
   81000    234.26401   -388.16515       229892    -22585.56    1665.4372   -24250.997    -1030.438    416.87635    39.429311    35.597784    26.858943 
   81200     236.5751   -427.50676       229892   -22519.895    1681.8673   -24201.762   -1151.1112    419.07985    39.428621    35.596275    26.875308 
   81400    234.12229   -362.25762       229892   -22488.456    1664.4297   -24152.885   -850.39187    419.70914    39.428163    35.597046    26.854654 
   81600     227.4395   -307.29128       229892   -22557.351    1616.9201   -24174.271    -634.7571    421.43816    39.426641    35.594109    26.829878 
   81800    230.97399   -370.15462       229892     -22607.3    1642.0477   -24249.348   -873.06979    423.79962    39.427047    35.591802    26.814976 
   82000    230.90235   -370.35768       229892   -22534.721    1641.5383    -24176.26   -881.09971     426.1423    39.427589    35.591739    26.788191 
   82200    238.74979   -338.84364       229892   -22489.271    1697.3277   -24186.599   -795.64725    428.11985    39.428262    35.590418    26.767199 
   82400    234.30047   -489.05314       229892   -22520.434    1665.6964   -24186.131   -1355.9588    431.73784    39.427203    35.586788    26.758736 
   82600    232.91126     -292.905       229892   -22438.426    1655.8202   -24094.246   -568.78879    433.23377    39.427993    35.586524    26.765114 
   82800    235.89228   -183.79572       229892   -22581.494     1677.013   -24258.507   -160.03648    433.48504    39.428709    35.585135    26.745025 
   83000     239.0679   -409.24256       229892   -22472.664    1699.5892   -24172.253   -1059.5524    436.62798    39.427862    35.585064    26.743343 
   83200    237.92267   -263.36143       229892   -22479.946    1691.4474   -24171.393   -433.20896    437.40536    39.429035    35.583755    26.760423 
   83400    241.71295    -271.3889       229892   -22474.929    1718.3935   -24193.322   -503.10549    438.77823    39.428412    35.581684    26.750052 
   83600    229.65362   -393.57369       229892   -22586.187    1632.6609   -24218.848   -976.33956    438.93856    39.427337    35.581481    26.783506 
   83800    234.65744   -358.59107       229892   -22539.211    1668.2342   -24207.445   -854.58448    440.96969    39.426742    35.582194     26.80123 
   84000    231.86167   -312.49374       229892   -22552.525    1648.3584   -24200.884   -662.92343    441.08112    39.424917    35.580798    26.812553 
   84200    235.31473   -356.77544       229892   -22514.159     1672.907   -24187.066   -816.10619    441.55121    39.423895    35.579537    26.811398 
   84400    233.83919   -287.10435       229892   -22549.953     1662.417    -24212.37   -559.68538    441.17005    39.425069    35.578509    26.799902 
   84600    237.12081   -128.07688       229892   -22482.537    1685.7468   -24168.283    57.489803    439.70808    39.428151    35.578645    26.793099 
   84800    237.93639   -303.05005       229892    -22515.99     1691.545   -24207.535   -640.53541    440.76794    39.428379    35.578841    26.803315 
   85000    234.80159   -443.18087       229892   -22491.921    1669.2589    -24161.18   -1166.3392    442.40402    39.427631    35.578176     26.81153 
   85200     236.6969   -398.99043       229892   -22485.251    1682.7332   -24167.984   -1023.4384    442.66586    39.425614    35.579355    26.793017 
   85400    231.42369   -238.40122       229892   -22582.392    1645.2447   -24227.636   -365.44053    443.17186    39.427684    35.579522     26.77269 
   85600    231.92744   -345.95008       229892   -22546.425     1648.826   -24195.251   -802.54758    444.02739    39.426946     35.57926    26.759886 
   85800     230.6861    -397.4878       229892   -22534.132     1640.001   -24174.133   -993.82333    446.92375    39.429739    35.581085    26.750391 
   86000    231.23838   -419.22087       229892   -22515.019    1643.9273   -24158.946   -1092.6992    449.07866    39.431391    35.583105    26.745393 
   86200    234.56147   -495.11959       229892   -22472.591    1667.5519   -24140.143   -1388.5924    449.62388    39.430828    35.583595    26.765866 
   86400    237.10603   -434.86867       229892   -22595.954    1685.6418   -24281.596   -1168.3719    449.56991    39.432267    35.586542    26.773213 
   86600    237.34402   -295.48802       229892   -22541.458    1687.3337   -24228.792   -627.25335     452.0086    39.433161    35.588418    26.781848 
   86800    230.09382   -399.51394       229892   -22594.475    1635.7903   -24230.265   -1009.1867    452.50607    39.433596    35.586674    26.773018 
   87000    235.57251   -88.373742       229892   -22571.186    1674.7396   -24245.925    204.73927    451.91956    39.430918    35.584631    26.742175 
   87200    230.22804   -197.56154       229892   -22516.676    1636.7445    -24153.42   -209.66239    452.21752    39.430899    35.583652    26.736245 
   87400    230.58999   -253.07043       229892   -22607.199    1639.3177   -24246.517   -444.97366     454.5085    39.432284    35.585762    26.730198 
   87600    236.08783   -144.73115       229892   -22517.676    1678.4031   -24196.079    -2.104955    454.86042    39.435318    35.586236    26.742471 
   87800     235.5363   -381.12677       229892    -22557.45    1674.4822   -24231.932   -942.10016    455.45044    39.435607    35.585219    26.751114 
   88000    235.59735   -274.58142       229892   -22574.968    1674.9162   -24249.885   -515.99357    456.40049    39.435029    35.580398    26.746162 
   88200    232.38386   -299.86895       229892    -22573.08    1652.0708   -24225.151   -648.80879    456.42606    39.433997    35.582899    26.742615 
   88400     239.8022   -280.01289       229892   -22527.546    1704.8095   -24232.355   -586.53043    455.98974    39.432647    35.585444    26.743693 
   88600    233.11564   -318.14377       229892   -22586.435    1657.2732   -24243.708   -689.75136    458.18732    39.433039    35.586402    26.776279 
   88800     233.3326   -347.77067       229892   -22581.555    1658.8156   -24240.371   -834.30478    459.04978     39.43285    35.588306    26.785378 
   89000    231.81078   -340.73722       229892   -22519.961    1647.9966   -24167.958   -806.71979    461.17726    39.430974    35.588465     26.78277 
   89200    236.31833   -284.27336       229892    -22521.16    1680.0418   -24201.202   -611.55471    459.89922    39.430441     35.58714    26.767034 
   89400    233.97462   -360.05056       229892   -22484.319    1663.3798   -24147.699   -894.95244    461.94458    39.430656    35.586172    26.754611 
   89600    230.43497   -550.53734       229892   -22622.701    1638.2157   -24260.916   -1599.2047    461.40528    39.432707    35.585719      26.7387 
   89800    236.29665   -305.01755       229892   -22509.894    1679.8877   -24189.782   -664.72715    460.18806    39.434594    35.587694    26.743125 
   90000    233.69632   -359.48437       229892    -22530.22    1661.4014   -24191.621    -853.5263    461.14158    39.437869    35.590463    26.759712 
   90200    230.30501   -466.49375       229892   -22584.087    1637.2917   -24221.378   -1345.2168    464.02423    39.437633    35.590668     26.77549 
   90400    239.92219   -228.57471       229892   -22542.899    1705.6625   -24248.562   -323.63018     462.7919    39.436803    35.592425    26.782442 
   90600    233.90442   -361.51761       229892   -22576.226    1662.8808   -24239.107   -835.11298    464.42194     39.43619    35.593262    26.774075 
   90800    236.97857   -243.25477       229892   -22597.241    1684.7356   -24281.976   -422.11634      462.884    39.437203    35.594081    26.771772 
   91000    233.37603   -241.94842       229892   -22626.625    1659.1243   -24285.749    -469.9174    462.97784    39.438799    35.595018    26.775979 
   91200    228.65637   -319.39496       229892   -22711.632    1625.5712   -24337.203   -731.88166    465.84538    39.439175    35.594324    26.782997 
   91400    234.20104   -386.25698       229892   -22611.974    1664.9895   -24276.964   -975.91259    466.26076     39.43945    35.594384    26.789443 
   91600     242.8822   -196.85447       229892   -22529.084    1726.7059    -24255.79   -223.06551    467.97244    39.436561    35.594556    26.806872 
   91800    234.43586   -233.95607       229892    -22537.25    1666.6589   -24203.909    -405.3256     467.2208    39.434552    35.597793     26.80582 
   92000    235.53981   -402.57977       229892   -22542.555    1674.5072   -24217.062     -1024.16     467.8836    39.435403    35.601131    26.814126 
   92200    230.99713   -319.88661       229892   -22552.935    1642.2122   -24195.147   -677.89316    468.51745    39.433627    35.599916    26.817112 
   92400    233.49386   -179.74593       229892   -22511.504     1659.962   -24171.466   -148.88979     468.8939    39.434207    35.601568     26.80753 
   92600    238.92831   -416.06763       229892   -22455.317    1698.5968   -24153.913    -1145.938    470.04847     39.43509    35.602482     26.81519 
   92800    237.27824   -314.63288       229892   -22590.023     1686.866   -24276.889   -682.35648    471.14376    39.433961    35.602529    26.835128 
   93000    231.24597   -380.80307       229892   -22594.595    1643.9812   -24238.576   -917.41087    471.69199    39.433694    35.603595    26.844123 
   93200     229.3375   -415.15871       229892   -22589.849    1630.4135   -24220.262   -1093.8537    473.35566    39.432356    35.605159    26.857974 
   93400    232.65894    -380.3886       229892   -22663.919    1654.0264   -24317.945   -963.36908    474.90341    39.430707    35.604131    26.850502 
   93600     231.8092   -349.87693       229892   -22624.751    1647.9854   -24272.737   -844.62009    475.85236    39.429942    35.604648    26.839184 
   93800    231.42171   -325.02393       229892    -22693.52    1645.2306   -24338.751    -717.6413     477.0244    39.428608    35.605318    26.854261 
   94000    227.39075   -176.50689       229892    -22705.14    1616.5736   -24321.714   -135.32772    479.12673    39.427281    35.606489    26.859015 
   94200    236.92295   -258.96175       229892   -22555.699    1684.3402   -24240.039   -452.54129    479.67632    39.427089    35.605537    26.869335 
   94400    232.65115   -334.64368       229892   -22584.539     1653.971    -24238.51   -763.33442    479.72055      39.4264    35.605947    26.893907 
   94600    234.93374   -409.19274       229892   -22583.853    1670.1984   -24254.051   -1090.9079    479.75583    39.427022    35.606535    26.898871 
   94800    237.19122    -357.8695       229892   -22551.837    1686.2474   -24238.085   -865.15849     481.3355    39.427461    35.605468     26.90156 
   95000    230.76959   -488.89574       229892   -22584.304    1640.5946   -24224.899   -1418.4999    481.17396    39.426128     35.60484    26.906368 
   95200    231.51477   -362.01996       229892   -22538.812    1645.8922   -24184.704   -871.01371    482.55962    39.424222    35.604054    26.918186 
   95400    233.98147   -514.06996       229892   -22490.404    1663.4285   -24153.833   -1504.8882    483.96744     39.42202    35.603688    26.918493 
   95600    232.24218   -366.76912       229892   -22519.796    1651.0635    -24170.86   -875.91965      486.569     39.42133    35.602555    26.913893 
   95800     234.4363   -341.29255       229892   -22502.845     1666.662   -24169.507   -777.65454     488.8528    39.418431    35.602694     26.91519 
   96000    237.43087   -611.07117       229892   -22502.088    1687.9512    -24190.04   -1775.2683    488.63204     39.41932    35.600014    26.896044 
   96200    243.02461   -354.73455       229892   -22460.106    1727.7183   -24187.824   -839.83779    489.41721    39.416682    35.599934    26.894086 
   96400    232.72527   -314.32106       229892   -22533.273    1654.4979   -24187.771   -692.20754    489.08269    39.416651    35.600786       26.871 
   96600    230.18397   -413.32676       229892   -22560.786    1636.4312   -24197.217    -1090.543    490.92244    39.419351    35.601252    26.868809 
   96800    235.57722   -293.25427       229892   -22498.851    1674.7731   -24173.624   -603.58719    490.55241    39.421227    35.598804    26.884274 
   97000    229.92735   -471.77203       229892   -22546.977    1634.6068   -24181.584    -1323.284    491.84211    39.420431    35.598302    26.890403 
   97200    233.66539   -371.57734       229892   -22548.378    1661.1815    -24209.56   -904.40039    494.75703    39.420285    35.596922    26.906764 
   97400    233.52277   -461.52639       229892   -22535.318    1660.1675   -24195.486   -1233.1442    496.86134    39.420243    35.596832    26.897522 
   97600    239.59143   -509.79987       229892   -22480.997    1703.3111   -24184.308   -1457.3032    498.92368    39.422476    35.596037     26.88951 
   97800    237.86238   -357.07714       229892   -22502.298    1691.0188   -24193.317   -885.29486    497.52958    39.421085     35.59471    26.889739 
   98000    228.13625   -354.83731       229892    -22547.01    1621.8735   -24168.884   -835.56626    498.57003    39.421177    35.595521    26.863068 
   98200    235.70499    -242.4704       229892   -22560.765    1675.6815   -24236.446     -360.494     499.0364    39.424695     35.59602    26.864339 
   98400    241.24575   -416.62201       229892   -22513.551     1715.072   -24228.623   -1071.0677    499.41482    39.424389    35.596592    26.876412 
   98600    226.64337   -506.18284       229892    -22547.43    1611.2603    -24158.69   -1469.1824    501.10719    39.422862    35.599069    26.864625 
   98800    235.49404   -414.68954       229892   -22559.244    1674.1817   -24233.425   -1048.1675    500.93656    39.423157    35.600148    26.858982 
   99000    235.95676   -355.44587       229892   -22603.936    1677.4713   -24281.408   -866.56905    502.97293    39.422634    35.599589    26.865375 
   99200    229.50262   -339.23268       229892    -22575.71    1631.5874   -24207.298    -796.2899    503.84531    39.423631    35.600891    26.859049 
   99400     232.8574   -274.63595       229892   -22525.958    1655.4372   -24181.395   -516.29231    503.53896    39.422915    35.598894    26.848381 
   99600    233.98415   -127.85194       229892   -22505.061    1663.4476   -24168.508     42.57192    504.27531    39.423529    35.598411    26.845457 
   99800    232.04845   -421.43143       229892   -22530.595    1649.6863   -24180.281   -1089.5401    503.17265    39.423164    35.596357    26.842839 
  100000    235.49757   -203.20163       229892   -22568.849    1674.2069   -24243.055   -250.14959     504.2584     39.42224    35.596299    26.840016 
  100200    231.74002   -346.40138       229892   -22582.065    1647.4936   -24229.559    -807.5332    503.78297    39.420767    35.597792    26.826528 
  100400    240.50469   -205.00152       229892    -22552.01    1709.8036   -24261.814   -213.38795    502.80296    39.420032    35.602854    26.829249 
  100600    235.79994   -334.86897       229892   -22546.835    1676.3565   -24223.192   -752.06391    505.35914    39.419026    35.604775    26.846466 
  100800    234.96363   -208.63413       229892   -22585.981     1670.411   -24256.392   -291.26477    506.17389    39.417809    35.605693     26.83892 
[...]
 3976000    222.82382   -356.93318       229892   -24742.281    1584.1062   -26326.387    -878.8875    3254.7105    38.211545    34.970555    26.802623 
 3976200    225.40793   -457.29423       229892   -24748.442    1602.4773   -26350.919   -1303.9326    3255.8099    38.210621    34.971377    26.800436 
 3976400     220.5524   -424.27747       229892    -24776.74    1567.9582   -26344.698   -1134.1928    3255.3044    38.210395     34.97082    26.801837 
 3976600    221.38161   -381.23971       229892   -24775.538    1573.8532   -26349.391   -985.00089    3255.5935    38.210421    34.971483    26.823648 
 3976800    224.08222   -380.16951       229892   -24705.317    1593.0525    -26298.37   -968.38796    3256.0198    38.211097    34.971144    26.825221 
 3977000    222.87421   -385.35278       229892   -24815.856    1584.4644   -26400.321   -970.81916    3255.5473    38.210844    34.970712    26.816874 
 3977200    226.61754   -461.31581       229892   -24723.696    1611.0767   -26334.773   -1317.5375    3255.0817    38.210039    34.970218    26.826375 
 3977400    226.83497   -367.80507       229892   -24745.272    1612.6224   -26357.895   -959.23685    3256.2555    38.208941    34.969872    26.821472 
 3977600    217.89079   -474.74491       229892    -24764.88    1549.0362   -26313.916   -1357.1162     3255.927    38.208611    34.969589    26.823148 
 3977800    227.11943   -391.61353       229892   -24740.272    1614.6447   -26354.917   -1039.5976    3255.8207    38.208891    34.968426    26.827971 
 3978000    214.87011   -233.58332       229892   -24783.676    1527.5615   -26311.238   -393.84007    3255.3603    38.209601    34.968375      26.8139 
 3978200    224.50593    -414.6099       229892   -24714.747    1596.0647   -26310.812   -1106.9287    3256.0204    38.209015    34.968047    26.808841 
 3978400    225.35704   -391.53199       229892   -24767.702    1602.1155   -26369.817   -1019.3602    3255.4264    38.209191    34.967589    26.812906 
 3978600    222.60969   -389.44213       229892   -24746.323    1582.5839   -26328.907   -1007.2208    3254.7738    38.209062    34.966131    26.822999 
 3978800    225.98159   -207.25856       229892   -24716.625    1606.5556   -26323.181   -286.41029    3254.1374    38.208727    34.965629    26.828857 
 3979000    225.08068   -341.60343       229892   -24727.398    1600.1508   -26327.548    -785.6109    3255.4099    38.207609    34.965334    26.828294 
 3979200    217.02471   -435.79575       229892   -24757.332     1542.879   -26300.211   -1179.9499    3256.6093    38.206933    34.964931    26.811601 
 3979400    227.92362   -342.64805       229892    -24733.13    1620.3619   -26353.492   -801.28407    3255.1495    38.207148    34.964829     26.81507 
 3979600    223.95605   -291.25345       229892   -24754.996    1592.1555   -26347.151   -626.24671    3254.6053    38.207947      34.9645    26.823649 
 3979800    222.85662    -389.4797       229892   -24741.041    1584.3394   -26325.381   -1018.5324    3255.5583    38.208457    34.964224     26.82124 
 3980000    224.60341   -347.54611       229892    -24742.85    1596.7578   -26339.608   -853.40571    3255.7018    38.208364    34.963678    26.828322 
 3980200    226.44381   -339.38023       229892   -24733.005    1609.8415   -26342.847   -761.91315    3255.4808    38.208344    34.963168     26.81915 
 3980400    222.04274   -383.85763       229892   -24733.395    1578.5534   -26311.948   -1013.9707    3255.8061    38.209374     34.96326    26.823134 
 3980600     225.6629   -511.96307       229892   -24678.296    1604.2899   -26282.586   -1471.7284    3256.7198    38.209249    34.963412    26.821936 
 3980800     221.2989   -403.22187       229892   -24696.007    1573.2652   -26269.272   -1013.2484    3255.1651    38.209084    34.963792    26.814109 
 3981000    227.93939   -266.53713       229892   -24717.664     1620.474   -26338.138   -527.18449    3255.4332    38.209332     34.96438    26.805746 
 3981200    226.41718   -361.58028       229892   -24706.249    1609.6522   -26315.901   -902.41715    3254.2623    38.209809    34.964774    26.809761 
 3981400    230.44324   -450.39603       229892   -24700.798    1638.2745   -26339.073   -1244.1277     3255.755     38.20911    34.964748    26.816275 
 3981600    220.39183   -464.97592       229892   -24762.511    1566.8167   -26329.328   -1280.2814    3255.5625    38.209407    34.964376    26.810766 
 3981800    226.18576   -238.20347       229892   -24739.165     1608.007   -26347.172    -440.5611    3254.7336    38.209715    34.963987    26.799656 
 3982000    223.49139   -337.99593       229892    -24773.84    1588.8522   -26362.693   -808.44771    3254.7891    38.210336     34.96359    26.802092 
 3982200    220.49364   -412.91679       229892   -24788.885    1567.5404   -26356.425   -1102.2462    3253.7153    38.210069      34.9635    26.803395 
 3982400    222.67594   -302.39922       229892   -24722.855    1583.0549    -26305.91   -704.78547    3254.4029    38.210617    34.964978    26.801643 
 3982600    223.68647   -299.11876       229892   -24748.555     1590.239   -26338.794   -653.91528      3254.42    38.210323    34.963755    26.806555 
 3982800    229.73509   -496.78945       229892   -24691.079      1633.24   -26324.319   -1436.3865     3255.109    38.209716    34.963717     26.81954 
 3983000    230.97377   -451.92704       229892   -24673.462    1642.0461   -26315.508   -1225.6563    3253.8328    38.209046    34.963752    26.820935 
 3983200    232.42675   -384.13258       229892    -24692.58    1652.3757   -26344.956   -999.00517    3253.3603    38.208386    34.964566    26.832316 
 3983400    229.96142    -296.0789       229892   -24647.689    1634.8491   -26282.538   -622.16721    3253.1939    38.208191    34.964703    26.832435 
 3983600    224.99753    -554.4374       229892   -24709.326    1599.5596   -26308.885     -1646.56    3253.9892    38.207381    34.964167    26.827314 
 3983800     223.8673   -492.63272       229892    -24693.28    1591.5246   -26284.805   -1360.8287    3255.3646    38.207124    34.964788     26.80614 
 3984000    219.57374   -364.15636       229892   -24729.938    1561.0006   -26290.939    -901.2864    3254.9943    38.205563     34.96462    26.804468 
 3984200    225.95376   -357.97503       229892   -24708.226    1606.3577   -26314.583   -880.71998    3254.9573    38.204842     34.96325    26.805074 
 3984400     224.2464   -457.05929       229892   -24733.488    1594.2197   -26327.708   -1228.8375    3254.8864    38.203557    34.963305    26.815696 
 3984600    221.55145   -453.88449       229892   -24735.378    1575.0606   -26310.438   -1211.5963      3255.41    38.202606    34.963791    26.824303 
 3984800    225.22716   -302.37308       229892     -24717.4    1601.1921   -26318.592   -674.06265    3254.3235    38.201847    34.963783    26.829335 
 3985000    227.84394   -360.50197       229892   -24740.376    1619.7954   -26360.172   -881.04728    3254.9555    38.200885    34.962999    26.814024 
 3985200    219.94647   -557.04892       229892   -24723.962    1563.6504   -26287.613   -1649.6987    3256.4218    38.200093    34.962936    26.822555 
 3985400    221.62216   -462.40392       229892    -24732.94    1575.5634   -26308.504   -1291.9321     3255.638    38.199381    34.963059    26.816639 
 3985600    227.61091   -236.80671       229892   -24714.268    1618.1388   -26332.407   -438.45637    3254.4081    38.198848    34.962794    26.819001 
 3985800    226.56596    -341.4183       229892   -24734.971    1610.7099   -26345.681   -811.28792    3253.7629    38.198173    34.963029    26.817725 
 3986000    235.14962    -491.7873       229892   -24633.361    1671.7332   -26305.094     -1398.04     3255.131    38.198438    34.962752    26.815248 
 3986200    233.25135   -250.36942       229892   -24651.332    1658.2379    -26309.57   -482.18273    3255.3438    38.197927    34.962667    26.815738 
 3986400    220.31289    -245.2575       229892   -24775.642    1566.2554   -26341.898   -485.83191    3253.2281    38.197266    34.962388    26.818933 
 3986600     225.0009   -345.13581       229892   -24748.833    1599.5836   -26348.416   -809.11927    3254.8023    38.197103    34.962341    26.816098 
 3986800    223.10642   -446.08019       229892   -24735.417    1586.1153   -26321.532   -1229.4593    3253.8523    38.197026    34.962487    26.808556 
 3987000    228.91147   -351.56121       229892   -24710.521    1627.3847   -26337.906   -886.06707    3253.3138    38.197132    34.962575    26.804612 
 3987200    225.58756   -396.15919       229892    -24823.57    1603.7543   -26427.324   -999.05954    3254.3412    38.197159     34.96286    26.812873 
 3987400    221.44704   -482.84523       229892   -24747.657    1574.3184   -26321.975   -1373.9752    3254.5289    38.196134     34.96263    26.821434 
 3987600    226.20238   -400.68262       229892   -24701.505    1608.1252   -26309.631   -1048.1781    3254.4919    38.196139    34.961855    26.816318 
 3987800    226.85623   -310.49581       229892   -24737.264    1612.7736   -26350.038   -691.85307    3254.9518    38.195637    34.961122    26.808987 
 3988000    224.20598   -509.56787       229892    -24702.27    1593.9323   -26296.202     -1444.59     3255.094    38.194475    34.960826    26.806297 
 3988200    230.41268   -467.75673       229892   -24726.076    1638.0572   -26364.134   -1300.2221    3255.4591    38.193207    34.960637    26.805376 
 3988400    231.77831   -334.64259       229892   -24732.586    1647.7658   -26380.352   -801.14631    3254.0339    38.193087    34.960967    26.794443 
 3988600     223.7209   -307.21449       229892   -24768.394    1590.4838   -26358.878    -647.1814    3254.2289    38.192483    34.960749    26.806465 
 3988800     226.4002    -482.3479       229892   -24745.933    1609.5315   -26355.464   -1393.7957    3254.7128    38.192017    34.960513    26.805606 
 3989000    226.74978   -460.06099       229892   -24680.174    1612.0168   -26292.191   -1285.4969    3255.0259    38.191812     34.96041    26.814678 
 3989200    227.83488   -349.60036       229892   -24759.104     1619.731   -26378.835   -850.16992    3254.0022    38.190727    34.959956    26.827381 
 3989400      222.498   -421.14649       229892   -24759.615    1581.7899   -26341.404   -1120.5378    3254.2231    38.190204    34.960075     26.82421 
 3989600     223.2755   -516.60996       229892   -24665.584    1587.3174   -26252.902   -1504.9079    3254.6404    38.189105    34.959612      26.8246 
 3989800    228.02176   -288.70229       229892   -24713.088    1621.0596   -26334.147    -639.8103    3254.6752    38.189505    34.959113    26.831921 
 3990000    222.98794   -322.82701       229892    -24744.27     1585.273   -26329.543     -781.927    3255.0904    38.189582     34.95936    26.836525 
 3990200     222.1082   -476.16318       229892   -24768.864    1579.0187   -26347.882   -1347.1562    3254.8023      38.1888    34.959157    26.840707 
 3990400    228.13885   -405.82294       229892   -24726.278     1621.892    -26348.17   -1049.4289     3254.529    38.188486    34.959109    26.827233 
 3990600    220.08356   -366.52089       229892   -24760.766    1564.6251   -26325.391   -914.10344    3253.6638    38.187698    34.958781    26.835338 
 3990800    227.59017   -503.49113       229892   -24701.139    1617.9913   -26319.131   -1464.0422    3255.8438    38.187439    34.958635    26.833851 
 3991000    226.18122    -500.3638       229892   -24711.004    1607.9747   -26318.979   -1465.4116    3254.8358    38.187067    34.957233    26.819547 
 3991200    221.33275   -381.05804       229892   -24679.023    1573.5059   -26252.529   -984.14485    3254.9791    38.188931     34.95666    26.822176 
 3991400    228.21173   -346.82581       229892   -24670.953    1622.4101   -26293.363   -791.35549    3254.7218    38.188915    34.956368    26.818015 
 3991600    222.75236   -398.37997       229892   -24717.854    1583.5982   -26301.452   -1058.2169    3254.8547    38.188483    34.955483    26.828073 
 3991800    224.41991   -373.10418       229892   -24800.955    1595.4532   -26396.408    -963.1054    3254.4911    38.187052    34.954575    26.833081 
 3992000    225.50655   -259.54766       229892   -24722.964    1603.1783   -26326.143   -510.30102    3254.1883    38.186401    34.953466    26.829421 
 3992200    228.21479   -396.73982       229892   -24723.207    1622.4319   -26345.639   -1019.3755    3255.0903    38.185754    34.951489    26.832157 
 3992400    226.47368   -454.75372       229892   -24739.227    1610.0539   -26349.281   -1264.7289    3254.5834    38.185985    34.950346    26.822832 
 3992600    223.33997   -431.83528       229892   -24725.335    1587.7757    -26313.11   -1179.5735    3256.1196    38.186089    34.950117    26.829544 
 3992800    228.50258   -423.49265       229892   -24727.415    1624.4778   -26351.893   -1133.7624    3254.2358    38.186296    34.949986    26.829246 
 3993000    219.10425   -373.16044       229892   -24828.326    1557.6629   -26385.989   -934.15513    3254.8506    38.186627    34.949669    26.832428 
 3993200    228.54424   -376.56305       229892    -24712.53    1624.7741   -26337.304   -962.31319    3253.2892    38.186123    34.947536    26.829274 
 3993400    226.12525     -324.077       229892   -24680.672    1607.5769   -26288.249   -709.65483    3255.4091    38.185842     34.94686    26.825396 
 3993600    228.26833   -398.41288       229892   -24706.416    1622.8125   -26329.229   -993.07725     3254.603    38.185779    34.946126    26.816657 
 3993800    223.18644   -523.09509       229892   -24709.565    1586.6842   -26296.249   -1504.9515    3255.4536    38.185629    34.945611    26.812361 
 3994000    225.67656   -406.97147       229892   -24729.949     1604.387   -26334.336   -1084.6523    3254.4613    38.184275    34.945312    26.828712 
 3994200    223.67143   -346.84245       229892   -24764.783    1590.1321   -26354.915   -842.33209    3254.7426    38.183838    34.944183    26.822484 
 3994400    218.91776   -486.55395       229892   -24713.308    1556.3372   -26269.645   -1378.3749    3255.1741    38.184287    34.945103    26.830453 
 3994600    219.35958   -370.64806       229892    -24767.77    1559.4782   -26327.248   -891.05492    3254.2469     38.18393     34.94545    26.826822 
 3994800    226.25771    -301.1079       229892   -24696.163    1608.5185   -26304.682   -679.59058     3254.718    38.183722    34.945377    26.839017 
 3995000     231.9099   -404.44109       229892   -24664.876    1648.7012   -26313.577   -1077.0871    3254.6575    38.183248    34.944461    26.845939 
 3995200    224.29193   -536.10064       229892   -24761.784    1594.5434   -26356.328   -1603.8771    3256.1047    38.182837    34.944663     26.84108 
 3995400     233.1633   -370.39306       229892   -24680.167     1657.612   -26337.779   -924.44342    3255.0302     38.18228    34.944216    26.837211 
 3995600    227.59367   -381.73684       229892   -24628.854    1618.0162    -26246.87   -965.14396     3254.825     38.18128    34.944055    26.835254 
 3995800    230.11193   -471.43447       229892   -24640.136    1635.9191   -26276.055   -1338.8021    3254.8219    38.180941    34.943918    26.825893 
 3996000    231.47208   -424.28937       229892   -24590.506    1645.5887   -26236.095   -1128.4636    3254.2998    38.181251    34.943638    26.832833 
 3996200    229.89897   -299.82732       229892   -24654.411    1634.4051   -26288.817   -616.52224      3254.17    38.180391    34.944091    26.838354 
 3996400    227.28531    -343.3564       229892   -24739.746     1615.824    -26355.57   -826.86117    3254.1856    38.180509      34.9433    26.833475 
 3996600    226.53694   -483.23851       229892   -24710.783    1610.5037   -26321.287   -1352.3288    3254.3308    38.179719    34.944283     26.84105 
 3996800    224.52471   -477.30257       229892   -24755.367    1596.1983   -26351.565   -1329.6887    3254.6405    38.179464    34.945257    26.847469 
 3997000    232.53765   -402.72061       229892   -24618.069    1653.1641   -26271.234   -1051.0652    3255.1799    38.179812    34.945691    26.846935 
 3997200     229.7667   -471.11497       229892   -24701.361    1633.4647   -26334.826   -1320.1312    3254.2508    38.178648    34.946379    26.861476 
 3997400     222.0166   -501.92354       229892   -24760.167    1578.3675   -26338.535   -1423.0841    3255.0465    38.178182    34.946497    26.859298 
 3997600    228.09078   -417.12861       229892   -24710.621    1621.5503   -26332.171   -1107.1074    3254.0357    38.177047    34.946397    26.858602 
 3997800    219.19919   -363.55352       229892   -24811.351    1558.3379   -26369.689   -941.84584    3254.3561    38.176627    34.946578    26.841614 
 3998000    226.34824   -423.60573       229892   -24723.753    1609.1622   -26332.915   -1122.5914    3255.5765    38.177436    34.947798    26.842899 
 3998200    225.76004   -450.66755       229892   -24739.531    1604.9805   -26344.511     -1253.89    3254.5364    38.177563    34.948265    26.846048 
 3998400    227.70157   -519.55297       229892   -24632.225    1618.7833   -26251.008   -1513.3337    3255.3206    38.178674    34.948238    26.851304 
 3998600    223.51809   -408.31281       229892   -24747.574     1589.042   -26336.616   -1101.9164    3253.7464    38.179291    34.949165    26.855565 
 3998800     223.7263   -448.10741       229892   -24703.771    1590.5221   -26294.293   -1232.2109    3253.6114    38.178862    34.950613      26.8524 
 3999000    226.96348   -441.30011       229892   -24667.386     1613.536   -26280.922   -1227.3955    3254.4106    38.178873    34.950415    26.851151 
 3999200    219.72563   -464.19023       229892   -24744.894    1562.0805   -26306.975   -1315.7972    3253.0403    38.178719    34.951029    26.844934 
 3999400    221.50618   -414.15627       229892   -24760.185    1574.7388   -26334.923   -1119.1407    3254.1319    38.178674    34.951312    26.852414 
 3999600    222.81415   -468.88264       229892   -24764.337    1584.0375   -26348.374   -1311.0732    3254.0797    38.178773    34.951098    26.847667 
 3999800    226.46215   -459.19187       229892   -24673.017     1609.972   -26282.989   -1300.5231    3254.1056    38.179182    34.951125    26.827455 
 4000000    228.32881   -346.00344       229892   -24631.231    1623.2425   -26254.473   -812.29553    3252.9162    38.180283    34.950573    26.830042 
Loop time of 6921.74 on 64 procs for 4000000 steps with 9010 atoms

Performance: 499.296 ns/day, 0.048 hours/ns, 577.889 timesteps/s
99.2% CPU use with 64 MPI tasks x no OpenMP threads

MPI task timing breakdown:
Section |  min time  |  avg time  |  max time  |%varavg| %total
---------------------------------------------------------------
Pair    | 0.51662    | 1761.2     | 5181.3     |4530.3 | 25.44
Neigh   | 1.0096     | 212.86     | 749.8      |1797.4 |  3.08
Comm    | 346.16     | 2728.2     | 5258.5     |3011.2 | 39.42
Output  | 196.87     | 197.17     | 197.61     |   1.3 |  2.85
Modify  | 190.91     | 1901.8     | 6307.6     |4794.6 | 27.48
Other   |            | 120.5      |            |       |  1.74

Nlocal:        140.781 ave         426 max           0 min
Histogram: 24 2 22 0 0 0 0 0 0 16
Nghost:        811.719 ave        1189 max          39 min
Histogram: 8 0 0 7 1 0 4 20 1 23
Neighs:         0.00000 ave           0 max           0 min
Histogram: 64 0 0 0 0 0 0 0 0 0
FullNghs:      13904.0 ave       51960 max           0 min
Histogram: 40 8 0 0 0 0 0 0 3 13

Total # of neighbors = 889858
Ave neighs/atom = 98.763374
Neighbor list builds = 422497
Dangerous builds = 0
write_data 		${DIR}/data.${NAME}_run
write_data 		run_6/data.${NAME}_run
write_data 		run_6/data.ibeam_cooling_6_run
System init for write_data ...
Total wall time: 1:55:40
