
# Set production fixes - Nose/Hoover
#
fix                 4 water temp/csvr ${START_TEMP} ${END_TEMP} 500.0 928347
fix                 4 water temp/csvr 240 ${END_TEMP} 500.0 928347
fix                 4 water temp/csvr 240 227 500.0 928347


## divide "droplet" into core and surface
#region		core_reg cylinder z 135 135 44.6 20 INF units box
#region		surface_reg cylinder z 135 135 44.6 20 INF units box side out
#group		core dynamic all region core_reg
#group		surface dynamic all region surface_reg

## compute pressure core
#compute        peratom_core core stress/atom NULL
#compute        p_core core reduce sum c_peratom_core[1] c_peratom_core[2] c_peratom_core[3]
#variable       press_core equal -(c_p_core[1]+c_p_core[2]+c_p_core[3])/(3*1249982.5)


## compute pressure surface
#compute        peratom_surf surface stress/atom NULL
#compute        p_surf surface reduce sum c_peratom_surf[1] c_peratom_surf[2] #c_peratom_surf[3]
#variable       press_surf equal -(c_p_surf[1]+c_p_surf[2]+c_p_surf[3])/(3*42395)

## compute total pressure of drop
compute        peratom water stress/atom NULL
compute        p water reduce sum c_peratom[1] c_peratom[2] c_peratom[3]
variable       press equal -(c_p[1]+c_p[2]+c_p[3])/(3*58301)


# compute order parameter
compute        3 all orientorder/atom nnn NULL cutoff 3.5

# compute center of mass of bridge
compute 	4 water com

# Run simulation
thermo_style        custom step c_2 press vol etotal ke pe v_press c_1[4] c_4[*]
thermo              200
dump		     1 water custom 400 ${DIR}/prod.${NAME}.dump id type x y z vx vy vz c_3[*] c_peratom[*]
dump		     1 water custom 400 run_24/prod.${NAME}.dump id type x y z vx vy vz c_3[*] c_peratom[*]
dump		     1 water custom 400 run_24/prod.ibeam_cooling_24.dump id type x y z vx vy vz c_3[*] c_peratom[*]
run                 ${STEPS}
run                 5200000
Neighbor list info ...
  update every 1 steps, delay 0 steps, check yes
  max neighbors/atom: 2000, page size: 100000
  master list distance cutoff = 6.67472
  ghost atom cutoff = 6.67472
  binsize = 3.33736, bins = 57 9 12
  2 neighbor lists, perpetual/occasional/extra = 1 1 0
  (1) pair sw, perpetual
      attributes: full, newton on
      pair build: full/bin/atomonly
      stencil: full/bin/3d
      bin: standard
  (2) compute orientorder/atom, occasional, copy from (1)
      attributes: full, newton on
      pair build: copy
      stencil: none
      bin: none
Per MPI rank memory allocation (min/avg/max) = 0.8615 | 6.062 | 7.152 Mbytes
Step c_2 Press Volume TotEng KinEng PotEng v_press c_1[4] c_4[1] c_4[2] c_4[3] 
       0    235.05343   -528.04381    204420.41   -23218.594    1706.0818   -24924.676   -1304.7204    35.625672    95.096383    14.537963    27.892922 
     200    238.45127   -264.22424    204420.41   -23212.568    1730.7443   -24943.312   -395.55428    37.320464    95.095473    14.537474    27.875829 
     400    240.13761   -295.62177    204420.41   -23223.594    1742.9842   -24966.578   -473.92986    39.003658     95.09473    14.539276    27.870067 
     600    239.37293   -371.42206    204420.41     -23112.4     1737.434   -24849.834    -760.0002    40.576795    95.094605    14.540155    27.859582 
     800    239.98403   -364.52715    204420.41   -23115.267    1741.8695   -24857.136   -726.32585     41.91922    95.095291    14.538739    27.839389 
    1000     236.5677   -338.79776    204420.41   -23192.539    1717.0728   -24909.612   -668.28099    43.541041    95.097979    14.538241    27.846156 
    1200    239.20946   -392.27725    204420.41   -23180.659    1736.2475   -24916.906   -856.18115    44.620221    95.098522    14.538766     27.83727 
    1400    236.54705   -314.84821    204420.41   -23190.084    1716.9229   -24907.007    -549.4471    46.158839    95.098055    14.539027    27.817456 
    1600    249.65492   -329.92399    204420.41   -23201.497    1812.0634    -25013.56   -616.49454    47.207469    95.096158     14.54121    27.816234 
    1800    237.68145   -331.64619    204420.41   -23167.678    1725.1567   -24892.835   -614.34128    49.530217    95.095787    14.540184    27.821514 
    2000    246.86586   -486.73227    204420.41   -23146.704    1791.8197   -24938.524   -1220.1729    51.598145    95.095737     14.53769    27.814974 
    2200     235.5267   -269.95667    204420.41   -23194.968     1709.517   -24904.485   -421.91475    52.500551    95.094631    14.539612    27.818167 
    2400    237.46578     -324.585    204420.41    -23148.24    1723.5913   -24871.831   -616.94742    54.588862    95.095218    14.541765    27.812237 
    2600    235.89267   -383.82106    204420.41   -23214.467    1712.1733    -24926.64    -839.5699    56.658041    95.095064    14.542157    27.821772 
    2800    245.86569   -556.08663    204420.41   -23135.894    1784.5602   -24920.454   -1435.2768    58.952225     95.09523    14.542975    27.830656 
    3000    241.49065   -263.52494    204420.41   -23162.808     1752.805   -24915.613   -413.61505    60.117327    95.093488    14.543038    27.822999 
    3200    233.86793   -296.30049    204420.41   -23244.032    1697.4771    -24941.51   -537.99237    62.370573    95.093087    14.542215    27.815754 
    3400    243.97416   -160.33516    204420.41   -23257.704    1770.8309   -25028.535   -57.017916    64.202152    95.093245    14.539584     27.79339 
    3600     239.1498    -227.0469    204420.41   -23226.299    1735.8144   -24962.113   -265.49996    66.257242    95.093295    14.537984    27.775956 
    3800    245.43805   -273.44918    204420.41    -23166.58    1781.4563   -24948.037   -415.41265    67.752913    95.094398    14.537633    27.779189 
    4000    244.60071   -478.08007    204420.41   -23258.411    1775.3786    -25033.79   -1171.9418    69.208906    95.094227    14.532727    27.780149 
    4200    241.22634    -231.1523    204420.41   -23205.443    1750.8865    -24956.33   -277.31451    71.477631    95.095037    14.532307    27.796906 
    4400    243.03476   -352.79967    204420.41    -23250.65    1764.0125   -25014.662   -683.23816    72.764335     95.09576    14.531637     27.80273 
    4600    234.31036    -414.7668    204420.41   -23331.281    1700.6884    -25031.97   -927.85072    74.136486    95.098134    14.533021    27.788261 
    4800    241.77818    -363.1701    204420.41   -23184.501    1754.8919   -24939.392   -757.58356    75.937298    95.098565    14.530565    27.791917 
    5000    240.22941   -531.96569    204420.41   -23246.029    1743.6505   -24989.679   -1333.4025    77.396972    95.098465    14.528326     27.78581 
    5200    234.57315    -477.5291    204420.41   -23253.924    1702.5958    -24956.52   -1122.6097    78.980902     95.09805     14.52765    27.788889 
    5400    237.46175    -444.0178    204420.41   -23316.593    1723.5621   -25040.155   -1051.1945    79.883396    95.098501    14.526469    27.795846 
    5600    240.77842   -251.61255    204420.41   -23344.338    1747.6354   -25091.973   -375.76742    81.487815    95.098957    14.525665    27.803731 
    5800     240.2413   -557.45909    204420.41   -23273.187    1743.7368   -25016.924   -1434.0837    83.038557    95.099609    14.525548    27.809147 
    6000    239.92171   -362.33049    204420.41   -23296.422    1741.4172   -25037.839   -709.01744    85.120073     95.09875    14.524514    27.796866 
    6200    239.85873   -218.81268    204420.41    -23333.21      1740.96    -25074.17   -214.84011    85.778442     95.09916    14.523048    27.805711 
    6400    236.14882   -316.68322    204420.41   -23300.513    1714.0324   -25014.546   -606.68286    86.266837    95.098164    14.522039    27.812839 
    6600    239.09154   -435.78982    204420.41   -23283.735    1735.3915   -25019.126   -960.83172     87.62477    95.097035    14.522841    27.804002 
    6800    239.38648   -371.44761    204420.41   -23262.841    1737.5323   -25000.373   -754.48253    88.665074    95.094596    14.521898    27.812992 
    7000    240.59275   -374.59488    204420.41   -23209.549    1746.2877   -24955.836   -770.34458    90.175933    95.094251    14.520666    27.821914 
    7200    239.29154    -385.7869    204420.41   -23323.687    1736.8432    -25060.53   -799.82537    91.874087    95.094558    14.521225    27.827541 
    7400    238.77748   -244.98829    204420.41   -23308.514     1733.112   -25041.626   -345.03679    92.421859    95.093163     14.52141      27.8028 
    7600     246.7602   -231.18571    204420.41   -23213.472    1791.0528   -25004.525   -252.38267    93.654587    95.093561    14.523765    27.818463 
    7800    230.81393   -284.72068    204420.41   -23345.584    1675.3104   -25020.894   -473.14851    94.347369     95.09424    14.527379    27.813036 
    8000      247.648   -175.58892    204420.41   -23190.504    1797.4967   -24988.001   -101.97961    95.515851    95.094382    14.532707    27.832962 
    8200     244.8566   -371.29041    204420.41   -23210.135    1777.2359    -24987.37   -779.39858     97.43016    95.094792     14.53583    27.823841 
    8400    237.68217   -433.78897    204420.41   -23149.619    1725.1619   -24874.781   -993.05272    98.450915    95.094649    14.536883    27.842172 
    8600    241.65308   -370.01397    204420.41   -23204.765    1753.9839   -24958.749   -724.57456    100.19678    95.096602     14.53685    27.874711 
    8800    240.43438   -263.74436    204420.41   -23212.784    1745.1382   -24957.922   -396.10818    101.11629    95.097167    14.534599    27.863168 
    9000     238.9192   -295.77929    204420.41   -23195.457    1734.1407   -24929.598   -505.83336    101.99006    95.098108    14.533632    27.852505 
    9200    242.98729   -332.64897    204420.41   -23194.889     1763.668   -24958.557   -619.24447    104.15585    95.098067    14.536121    27.850593 
    9400    238.37271   -323.33635    204420.41   -23240.841     1730.174   -24971.015   -600.77568    106.35518    95.099586    14.536497    27.839198 
    9600    243.14044   -308.05797    204420.41   -23277.225    1764.7796   -25042.005   -575.19164    107.09383    95.100498     14.53748    27.834953 
    9800     240.9483   -338.22232    204420.41   -23142.737    1748.8684   -24891.605   -625.35829    108.75222    95.101431    14.537396    27.839641 
   10000    237.31497   -117.21778    204420.41   -23230.377    1722.4967   -24952.874    86.943798     111.3374    95.100191    14.538811    27.836676 
   10200    237.45001   -271.87286    204420.41   -23139.846    1723.4769   -24863.323    -385.5217    112.29249    95.100173    14.536559    27.828296 
   10400    240.07641   -260.89435    204420.41   -23144.311      1742.54   -24886.851   -394.21683    113.68982    95.099834    14.531855    27.848608 
   10600    230.49627   -479.94159    204420.41   -23193.832    1673.0047   -24866.836   -1152.8781    115.09014    95.100936    14.530937    27.840769 
   10800    239.63349    -234.7765    204420.41   -23273.466    1739.3252   -25012.791   -319.76789     116.1851    95.101513    14.528793    27.862319 
   11000    239.44931   -510.25518    204420.41   -23246.074    1737.9884   -24984.062   -1254.9228    117.76648    95.101077    14.527023    27.880813 
   11200    240.04856   -206.04224    204420.41   -23252.761    1742.3378   -24995.099   -180.21203    118.65902    95.101856    14.527438    27.871529 
   11400    239.83458   -440.12236    204420.41   -23234.089    1740.7847   -24974.874   -1063.3569    119.23136    95.102292    14.527174    27.862379 
   11600    241.55293    -247.3126    204420.41    -23158.96     1753.257   -24912.217   -346.24365       120.63    95.101669     14.52773    27.879649 
   11800    238.69166   -654.76399    204420.41   -23157.008    1732.4891   -24889.497   -1821.2146    121.92054    95.102278    14.529768     27.87075 
   12000    239.07197   -68.256273    204420.41   -23132.882    1735.2495   -24868.132    266.35134    123.14607    95.102268    14.530813    27.855739 
   12200     244.3433   -424.81864    204420.41   -23174.847    1773.5102   -24948.357   -910.45826    124.84617    95.101053    14.529293     27.85905 
   12400    241.75663   -566.26173    204420.41   -23223.496    1754.7355   -24978.231   -1447.2476    126.43344    95.099438    14.529996    27.839486 
   12600    242.02386   -331.70407    204420.41   -23151.156    1756.6751   -24907.832   -673.85098    128.26813    95.098545    14.527958    27.845212 
   12800    238.43238   -518.65489    204420.41   -23203.767    1730.6072   -24934.374   -1284.1263    129.12827    95.097744    14.527702    27.844283 
   13000    239.62216   -451.80317    204420.41   -23228.486    1739.2429   -24967.729   -1044.5433    130.45199     95.09537    14.528532    27.837853 
   13200    232.93593   -316.75767    204420.41    -23252.76    1690.7124   -24943.473   -559.78504    131.77915    95.094991    14.525844    27.827415 
   13400    232.62685   -361.54806    204420.41   -23303.643    1688.4691   -24992.112   -740.59027    133.05992    95.094635    14.520689    27.836364 
   13600    243.77753   -393.73141    204420.41   -23252.351    1769.4038   -25021.755   -853.36512    133.36614     95.09503    14.516601    27.851409 
   13800    239.15702   -368.83759    204420.41   -23187.164    1735.8668   -24923.031    -745.1193     135.2062    95.094419    14.517896    27.833801 
   14000    244.63002   -356.47274    204420.41   -23146.177    1775.5914   -24921.768   -734.93209    136.36758    95.093215    14.517289     27.81445 
   14200    243.15471   -226.37112    204420.41   -23229.083    1764.8831   -24993.966   -269.36652    138.06649    95.091556    14.516571    27.811755 
   14400    236.97008   -421.65612    204420.41   -23268.557    1719.9934    -24988.55   -938.83078    140.26273    95.091707     14.51797    27.797907 
   14600    247.08876    -455.6865    204420.41   -23221.421    1793.4376   -25014.859   -1047.1444    141.23974    95.091756    14.516506    27.798951 
   14800    239.49439   -305.86435    204420.41   -23192.002    1738.3155   -24930.318   -552.08947     142.9309    95.091213    14.514809    27.796144 
   15000    236.36196   -445.33703    204420.41   -23258.129    1715.5795   -24973.709   -1039.8161     143.7451    95.089797    14.516753    27.792922 
   15200    239.68196   -297.55072    204420.41   -23203.281     1739.677   -24942.958   -517.49574    144.30705    95.088579    14.516876    27.779391 
   15400    243.43203   -280.90861    204420.41   -23207.041     1766.896   -24973.937   -444.72974    145.92966    95.088695    14.518793    27.768614 
   15600    248.12905   -324.89638    204420.41   -23095.563    1800.9882   -24896.552   -622.07226    146.97958    95.088917    14.519859    27.765742 
   15800    244.97959   -394.09792    204420.41   -23126.283    1778.1286   -24904.411   -884.41161    149.40627    95.086925    14.517514    27.771155 
   16000     239.3426   -284.72465    204420.41   -23145.196    1737.2138   -24882.409   -446.30055    151.62715    95.086755    14.517067      27.8012 
   16200    243.09777   -317.56617    204420.41   -23144.747    1764.4699   -24909.216   -607.20241    153.55999    95.087084    14.517211    27.801122 
   16400    235.55329   -407.44588    204420.41   -23189.702    1709.7099   -24899.412    -921.2389    154.96145    95.084294    14.515422    27.804732 
   16600    242.05019   -365.00962    204420.41   -23122.892    1756.8662   -24879.758    -805.6769    157.00068    95.082923    14.516165    27.817549 
   16800    242.40308   -537.25029    204420.41   -23165.333    1759.4276   -24924.761   -1374.8645    159.04641    95.083336     14.51239    27.812447 
   17000    233.11998   -399.14585    204420.41   -23212.256    1692.0483   -24904.304   -875.17372    161.12303    95.082836    14.508177    27.816228 
   17200    242.49752   -268.20449    204420.41   -23186.186    1760.1131   -24946.299    -421.3464    161.72448    95.083439     14.50949    27.827898 
   17400    236.89084   -367.70992    204420.41   -23272.151    1719.4183   -24991.569   -758.72641    162.04976    95.083163     14.50784    27.835523 
   17600    242.83947    -332.8002    204420.41   -23188.759    1762.5951   -24951.354   -654.10856     164.3293     95.08375    14.503789    27.841175 
   17800    243.71474   -282.49313    204420.41   -23216.905     1768.948   -24985.853   -515.17425    164.76262    95.085013    14.499667    27.850141 
   18000    236.79116   -340.85201    204420.41   -23180.861    1718.6948   -24899.555   -684.93599    167.13716    95.085804     14.49676     27.84636 
   18200    243.34273   -304.05279    204420.41   -23235.173    1766.2478   -25001.421   -537.45165    167.97074    95.085388    14.495824    27.859405 
   18400    241.19515   -289.05777    204420.41   -23197.388    1750.6601   -24948.048   -464.26912    168.97181     95.08655     14.49344    27.864649 
   18600    238.57842   -342.05391    204420.41   -23221.918    1731.6672   -24953.586   -685.50066    170.84695    95.086572    14.492401    27.864302 
   18800    239.84761   -171.13087    204420.41   -23277.565    1740.8793   -25018.444   -115.68574    174.24226    95.086093    14.487787    27.854338 
   19000    239.98266   -424.29452    204420.41   -23222.378    1741.8595   -24964.238   -939.17686    174.90747    95.084312    14.487662    27.856649 
   19200    238.17063   -437.62679    204420.41   -23229.981    1728.7074   -24958.689   -1012.4313    176.80592       95.083    14.484267    27.866038 
   19400    241.82881     -407.905    204420.41   -23148.913    1755.2594   -24904.173   -894.12071    177.75063    95.084911    14.481855     27.84936 
   19600    240.54578   -413.42146    204420.41   -23150.573    1745.9468    -24896.52   -968.85775    178.17075    95.084002    14.480999    27.835785 
   19800    240.24651   -353.93172    204420.41   -23123.002    1743.7746   -24866.777   -721.44189    178.57083    95.082635    14.479778    27.816687 
   20000    242.36799   -208.32694    204420.41   -23106.865    1759.1729   -24866.038   -223.32187    180.48822    95.082571     14.48184    27.816097 
   20200    242.39637   -369.78889    204420.41   -23239.683    1759.3789   -24999.062   -790.19052     181.8749    95.082315    14.482039    27.803701 
   20400    242.76394   -539.38327    204420.41   -23172.667    1762.0469   -24934.714   -1403.4108    180.96624    95.082716    14.481371    27.782391 
   20600     238.3072   -305.42546    204420.41   -23269.266    1729.6986   -24998.965   -550.84853    183.16977      95.0839    14.480516    27.770283 
   20800    237.22097   -208.03886    204420.41    -23198.15    1721.8145   -24919.965    -202.6214    184.64989    95.084788     14.48111    27.766427 
   21000    240.62215   -588.40509    204420.41   -23212.276    1746.5011   -24958.777   -1514.9504     187.5723    95.085459    14.480656    27.777314 
   21200    237.04961   -283.43615    204420.41   -23197.646    1720.5706   -24918.217   -514.35191    188.56505    95.083616    14.479943    27.809403 
   21400    239.57534   -332.86334    204420.41   -23173.514    1738.9031   -24912.417   -625.94782    190.18737    95.085682    14.478777    27.810955 
   21600    245.52882    -410.4724    204420.41   -23079.723    1782.1151   -24861.839   -911.70264    193.64808    95.086992     14.47883    27.799291 
   21800     238.4432    -481.3525    204420.41   -23198.269    1730.6857   -24928.955   -1141.7732    195.22862    95.088055    14.481406    27.800563 
   22000      237.933   -267.25438    204420.41   -23248.957    1726.9825   -24975.939   -374.50115    197.48039    95.088929    14.483882    27.785949 
   22200    242.33029   -118.25075    204420.41   -23283.577    1758.8993   -25042.476    143.19343    200.66221    95.088197    14.483173    27.772085 
   22400    244.32182   -433.20408    204420.41   -23133.575    1773.3543   -24906.929   -1007.9547    201.01186    95.086778    14.483279    27.789943 
   22600    238.53687   -237.01034    204420.41   -23186.006    1731.3656   -24917.371   -283.67576    201.43657    95.086918    14.482192    27.773931 
   22800    252.12978    -326.0868    204420.41   -23189.884    1830.0266   -25019.911   -658.42019     203.3837    95.088653    14.482608    27.793962 
   23000    235.37051   -328.27135    204420.41   -23281.983    1708.3833   -24990.367   -652.51499    205.63266    95.086492    14.482419     27.82426 
   23200    243.29102   -289.78286    204420.41   -23207.637    1765.8725    -24973.51   -453.08051    206.91709    95.084565    14.479668    27.839451 
   23400    240.50161   -481.82558    204420.41   -23211.435    1745.6262   -24957.061   -1125.5141    208.36909    95.082334    14.478517    27.831537 
   23600    247.45441   -332.72286    204420.41   -23170.447    1796.0915   -24966.539   -592.77745     210.9085    95.082224     14.47662    27.826633 
   23800    244.12528   -115.59274    204420.41    -23161.07    1771.9278   -24932.997    115.13903     211.6087    95.080866    14.478397    27.821465 
   24000    241.10212   -376.78754    204420.41   -23233.346    1749.9849   -24983.331   -785.01157    213.02654    95.079737    14.479935    27.811709 
   24200    243.14525   -412.39803    204420.41    -23242.15    1764.8144   -25006.964   -921.22207    214.56998    95.079377    14.476501    27.812401 
   24400    237.21467   -403.64369    204420.41    -23260.09    1721.7687   -24981.859   -891.51822    214.78762    95.078647    14.477461    27.812851 
   24600    236.53906   -82.204054    204420.41   -23290.256    1716.8649   -25007.121    241.83325    214.55101    95.079916    14.478833     27.83376 
   24800    239.71884   -286.53846    204420.41   -23244.613    1739.9447   -24984.557   -516.20349    215.43127    95.079467    14.478165    27.840571 
   25000    241.08168   -393.56858    204420.41    -23264.88    1749.8365   -25014.717   -857.70546     216.5808    95.078626    14.475526    27.855413 
   25200     230.8057   -190.39686    204420.41   -23393.481    1675.2506   -25068.732   -125.71684    217.59808     95.07917    14.472553    27.843859 
   25400    234.96019     -354.273    204420.41   -23286.861    1705.4051   -24992.266   -689.42238    218.82194     95.07997    14.470472    27.844449 
   25600    249.16923    -391.5879    204420.41   -23110.988    1808.5382   -24919.526   -863.66893    219.14479    95.080012    14.469142    27.829362 
   25800    235.76077   -461.98397    204420.41    -23156.36    1711.2159   -24867.576   -1093.7894    220.65155    95.079775    14.471923    27.845771 
   26000    240.63206   -245.56764    204420.41   -23219.271    1746.5731   -24965.844   -356.77852    221.37226    95.079395    14.472897    27.850359 
   26200    238.73164   -314.78044    204420.41   -23220.243    1732.7793   -24953.022   -570.88415    221.65372    95.078826    14.474197    27.853342 
   26400     235.7119   -481.00112    204420.41   -23278.057    1710.8612   -24988.918   -1133.9161     222.5398    95.078158    14.473323     27.85894 
   26600    240.57136   -168.72502    204420.41   -23187.901    1746.1325   -24934.033   -44.880146    223.69739    95.077824    14.473633    27.860973 
   26800    241.60254    -386.7064    204420.41   -23187.387    1753.6171   -24941.004   -790.52369    224.16485    95.076326    14.472911    27.871275 
   27000    244.71448   -521.59573    204420.41   -23118.021    1776.2044   -24894.225   -1312.3667    226.16109    95.078064    14.476996    27.870837 
   27200    238.59258   -216.81782    204420.41   -23181.267      1731.77   -24913.037   -241.07701    227.97678    95.078865    14.477947    27.891423 
   27400      247.997   -423.85078    204420.41   -23153.991    1800.0298   -24954.021   -975.15675    231.44373    95.078829    14.479667    27.895928 
   27600    240.05371   -449.06945    204420.41     -23337.7    1742.3752   -25080.075   -1039.3937     232.1298    95.078849    14.480039     27.88362 
   27800    243.88236   -254.53087    204420.41    -23222.42    1770.1646   -24992.585   -347.55947    233.43701    95.080484    14.478675     27.86058 
   28000     233.7234    -560.6864    204420.41   -23335.299    1696.4281   -25031.727   -1444.7974    235.81682    95.081205    14.478079    27.859377 
   28200    233.94036    -244.1845    204420.41   -23278.029    1698.0029   -24976.032   -341.74307    236.42035    95.080972     14.47812    27.856937 
   28400    238.37057   -144.42104    204420.41   -23249.439    1730.1585   -24979.598     9.124079    237.35363    95.081125    14.479095    27.861117 
   28600    233.35892   -353.52299    204420.41   -23231.885    1693.7826   -24925.668   -687.47989     238.1874    95.079794     14.47924    27.857541 
   28800    238.61739   -200.05075    204420.41   -23216.047    1731.9501   -24947.997   -188.15982     239.7965    95.078596    14.477326    27.842386 
   29000    245.95307   -332.58548    204420.41   -23221.228    1785.1944   -25006.422   -638.81312    240.30013     95.07808    14.474989    27.829558 
   29200    244.41607   -396.37563    204420.41   -23218.205    1774.0384   -24992.244   -882.70053    242.30328    95.076405    14.478506    27.846381 
   29400    242.40636   -577.94772    204420.41   -23227.906    1759.4514   -24987.357   -1488.7837    244.33237    95.074668    14.482661    27.847855 
   29600      236.628    -585.0618    204420.41   -23244.409    1717.5105   -24961.919   -1541.5419    244.46335    95.073182    14.483237    27.845936 
   29800    233.59286   -490.69124    204420.41   -23298.881    1695.4806   -24994.362   -1179.0926    247.51045    95.073506    14.486307    27.864854 
   30000      232.645   -92.687943    204420.41   -23362.176    1688.6008   -25050.776    235.28168    247.10176    95.074343    14.489407    27.894398 
   30200    238.64367   -164.88762    204420.41   -23271.208    1732.1408   -25003.349   -79.145027    250.46087    95.073367    14.487439    27.887025 
   30400    243.95573   -354.19004    204420.41   -23252.318    1770.6972   -25023.015   -698.45895    253.20771    95.074052    14.487178    27.876229 
   30600    246.65246   -458.86197    204420.41   -23345.161    1790.2707   -25135.431    -1065.667    254.52009    95.073471    14.484643    27.880266 
   30800    231.63187   -338.97706    204420.41   -23325.279    1681.2472   -25006.526   -631.43773    255.70203    95.073645    14.483249     27.87557 
   31000    243.40741   -394.37421    204420.41   -23333.995    1766.7173   -25100.712   -834.41336    255.60619    95.075244    14.482289    27.898661 
   31200    239.11691   -346.17406    204420.41    -23316.74    1735.5757   -25052.315   -682.19847    256.31627     95.07636    14.481314    27.914435 
   31400    240.71535   -306.11525    204420.41   -23262.113    1747.1776   -25009.291   -539.97589    258.72302    95.077372    14.481565    27.918445 
   31600    233.32471   -393.27584    204420.41   -23275.474    1693.5343   -24969.009   -850.88846    258.70573    95.077002    14.479952    27.906129 
   31800    237.76881   -416.12827    204420.41   -23176.154    1725.7908   -24901.945   -919.69993    260.32709    95.077241    14.478523    27.901354 
   32000     240.6416   -202.29097    204420.41   -23251.453    1746.6423   -24998.096   -131.25171     263.3089    95.078864    14.480096    27.889201 
   32200     236.5784   -255.54222    204420.41   -23307.385    1717.1505   -25024.536   -387.46744    266.75338     95.07932    14.481857    27.894903 
   32400    234.99825   -231.74749    204420.41   -23293.787    1705.6813   -24999.468   -238.21834    267.27311    95.078987    14.478861    27.899425 
   32600    244.48686   -168.00062    204420.41   -23171.619    1774.5523   -24946.171   -45.536788    267.45609    95.078399    14.478409    27.893507 
   32800    242.92038   -249.53979    204420.41   -23128.882    1763.1823   -24892.064   -356.85191    268.35188    95.077219    14.477654    27.898407 
   33000    241.07245   -444.15663    204420.41   -23154.256    1749.7695   -24904.025    -1050.653    269.62066    95.077724    14.474851    27.908865 
   33200    239.61238   -276.15056    204420.41   -23204.664     1739.172   -24943.836   -432.95736    269.96067     95.07781    14.472664     27.89744 
   33400    237.81337   -407.64495    204420.41   -23268.849    1726.1142   -24994.964   -864.82846    270.92604    95.079119    14.470315    27.902069 
   33600    237.89956   -448.34467    204420.41   -23262.862    1726.7398   -24989.602   -1022.8522    272.63418    95.079392     14.46672    27.907038 
   33800    248.88397   -273.19201    204420.41   -23107.287    1806.4677   -24913.754    -430.0665    272.70419    95.078943    14.462785    27.907891 
   34000    240.90446   -323.85337    204420.41   -23232.965    1748.5502   -24981.515    -587.3377    273.95002    95.078182    14.462205    27.917192 
   34200    238.10426   -286.52069    204420.41    -23248.41    1728.2256   -24976.636   -493.41962    276.03032    95.076225    14.464796     27.91389 
   34400     236.9102   -312.57727    204420.41   -23273.223    1719.5588   -24992.782   -572.16114    276.67432    95.074592    14.465357    27.931461 
   34600    245.20451   -407.88683    204420.41   -23127.788    1779.7612   -24907.549   -879.95398    278.74591    95.074128    14.466962    27.920553 
   34800    240.92485   -305.69806    204420.41   -23207.275    1748.6982   -24955.973   -527.25952    282.23454    95.075835    14.466356    27.905182 
   35000    240.22757   -354.77775    204420.41   -23233.678    1743.6372   -24977.316   -689.72027    284.33628    95.074627    14.467904    27.937572 
   35200    238.25456   -168.16764    204420.41   -23125.532    1729.3165   -24854.848   -99.367988    286.00164    95.073615    14.466798    27.930567 
   35400    242.77746   -334.43914    204420.41    -23145.51     1762.145   -24907.655   -635.07077    288.16925    95.074379    14.467978    27.936534 
   35600    238.95647   -516.52101    204420.41   -23180.863    1734.4112   -24915.275   -1244.8742     289.5137    95.074378    14.469425    27.930009 
   35800     241.8601   -109.45337    204420.41     -23093.4    1755.4865   -24848.887    123.51236    289.98376    95.074431    14.469344    27.937434 
   36000    243.96126   -390.48182    204420.41   -23217.462    1770.7373   -24988.199   -859.62004     291.7089    95.076191    14.470655    27.954778 
   36200    238.73097   -372.69716    204420.41   -23216.022    1732.7744   -24948.796   -814.15266    294.22324     95.07765    14.467831    27.940938 
   36400    242.22483   -338.87606    204420.41   -23193.105    1758.1338   -24951.239   -677.80478     294.9349     95.07575    14.468576    27.948454 
   36600    239.88685   -288.07408    204420.41   -23207.897    1741.1641   -24949.061    -497.4631    297.35827    95.075683    14.467657     27.93671 
   36800    232.22175   -330.30881    204420.41   -23266.451    1685.5287   -24951.979   -597.18266    298.67996    95.076135    14.472241    27.929771 
   37000    239.64551   -279.25134    204420.41   -23259.896    1739.4124   -24999.308   -452.11787    298.94393    95.075382     14.47372    27.941179 
   37200    240.09523   -301.50775    204420.41     -23248.8    1742.6766   -24991.476   -530.44972    300.57068    95.074376    14.473111    27.937251 
   37400    236.29138      -149.18    204420.41   -23246.835    1715.0672   -24961.903    28.844151    300.49964    95.074762    14.475498    27.923067 
   37600    237.62888   -380.18677    204420.41   -23289.034    1724.7752   -25013.809    -781.1558    300.26375    95.076484    14.473529    27.919965 
   37800    240.94593   -296.14876    204420.41   -23287.453    1748.8512   -25036.305   -477.14225    302.13275    95.075752    14.471012     27.90062 
   38000    248.66777   -369.97076    204420.41   -23218.353    1804.8984   -25023.251   -724.48611    303.37026    95.076054    14.467094    27.901183 
   38200    232.67007   -391.06044    204420.41   -23209.785    1688.7828   -24898.568   -813.97342     304.3966    95.075609    14.464054     27.90061 
   38400    237.54524    -424.1251    204420.41    -23136.33    1724.1681   -24860.498   -955.33722    305.87134    95.074273    14.463356    27.894834 
   38600     241.2799   -489.39735    204420.41   -23209.058    1751.2753   -24960.333   -1182.4941    308.20245    95.073809    14.460927    27.902577 
   38800    242.11885   -323.30485    204420.41   -23214.445    1757.3646    -24971.81   -608.79366    308.77622    95.074037    14.461938    27.891082 
   39000    236.60344   -378.40662    204420.41   -23189.809    1717.3323   -24907.141   -818.71766    310.41074    95.074258    14.465726    27.892939 
   39200    231.72128   -292.34734    204420.41   -23267.833    1681.8962   -24949.729   -489.71855    311.32006    95.073861    14.467527    27.919749 
   39400    241.45963   -328.63235    204420.41   -23200.924    1752.5798   -24953.504   -591.36291    312.55691    95.073704    14.469024    27.924965 
   39600    240.47758   -124.55964    204420.41   -23136.497    1745.4518   -24881.948    84.922589    312.37245    95.072766    14.468869    27.922822 
   39800    236.89462   -223.23132    204420.41   -23213.493    1719.4457   -24932.939   -237.25811    312.27215    95.072722    14.471753    27.923509 
   40000     243.9229   -448.48782    204420.41   -23195.543    1770.4588   -24966.002   -1040.9563    315.34607     95.07259    14.474014    27.922277 
   40200    241.93297   -330.86165    204420.41   -23219.953    1756.0154   -24975.968   -623.99046    317.31473    95.073187    14.473577    27.912431 
   40400    231.52428   -301.42548    204420.41   -23285.875    1680.4663   -24966.341   -496.69106    319.66557    95.074538    14.471959    27.909114 
   40600    243.46504   -322.97525    204420.41   -23184.719    1767.1356   -24951.855   -611.57259    322.92865    95.074923     14.47052    27.888668 
   40800    242.66884   -391.57175    204420.41    -23244.37    1761.3566   -25005.727   -876.55528     323.8744    95.075184    14.469615    27.871621 
   41000    238.87944     -271.619    204420.41   -23240.242    1733.8521   -24974.094   -406.11214    324.64998    95.075096    14.471032    27.879948 
   41200    244.42171   -252.77527    204420.41   -23160.982    1774.0794   -24935.061   -358.07541    327.21024    95.074037    14.469892    27.893002 
   41400    240.77515   -206.62339    204420.41   -23216.629    1747.6117   -24964.241   -213.21498    328.13948    95.073418    14.470353    27.910772 
   41600    242.29194   -277.78753    204420.41   -23200.433    1758.6209   -24959.054   -433.06475    326.84896    95.073511    14.473238    27.907693 
   41800     233.7157   -184.07832    204420.41   -23192.703    1696.3722   -24889.075   -142.69163     328.6698    95.074307    14.473183    27.915623 
   42000     242.5231   -288.09209    204420.41   -23238.674    1760.2988   -24998.972   -521.65327    328.82638    95.074269    14.473644     27.88751 
   42200    235.23244   -235.43164    204420.41   -23299.338    1707.3811   -25006.719   -315.82745    330.22843    95.074179    14.471602    27.873373 
   42400    242.42966   -334.10912    204420.41   -23238.338    1759.6205   -24997.958   -661.59933    330.11976    95.073984    14.474609    27.874639 
   42600    245.07717   -533.98011    204420.41   -23178.445    1778.8369   -24957.282   -1335.6339     330.1648    95.075304    14.477958     27.87728 
   42800    239.88072   -201.07316    204420.41   -23153.669    1741.1197   -24894.789   -234.05293    331.29148    95.076429    14.480559    27.884139 
   43000    244.35439    -278.9745    204420.41   -23188.383    1773.5908   -24961.974   -430.19982    332.65093    95.076021    14.480401    27.875968 
   43200    239.24008    -180.2587    204420.41   -23207.439    1736.4697   -24943.908   -110.87093    334.60684    95.076956    14.478817    27.874349 
   43400    234.36283   -253.80849    204420.41   -23227.542    1701.0693   -24928.611    -321.2021    334.10727    95.076063    14.476237     27.87182 
   43600    232.78876   -446.38748    204420.41   -23249.715    1689.6442   -24939.359      -1008.1    335.19071    95.077694    14.475209    27.862131 
   43800    241.40644   -255.89665    204420.41   -23267.085    1752.1937   -25019.279    -399.0798    336.50564    95.078297    14.472314    27.864161 
   44000    239.43459   -409.35685    204420.41   -23313.028    1737.8815   -25050.909    -906.6605     336.8856    95.079328    14.471485    27.876284 
   44200    237.28461   -232.75156    204420.41   -23234.566    1722.2764   -24956.842    -275.3138    338.47225    95.080245    14.470109    27.894226 
   44400    236.66313   -377.69693    204420.41   -23250.132    1717.7655   -24967.897   -758.87294    340.10599    95.081194    14.466146    27.889735 
   44600    244.94148   -322.76981    204420.41   -23300.219     1777.852   -25078.071   -596.78877    341.94323    95.080237    14.463443    27.880455 
   44800    234.64914   -483.03529    204420.41   -23279.809    1703.1474   -24982.957   -1159.3431    343.11495    95.080218    14.463509    27.855501 
   45000    238.53265   -260.75588    204420.41   -23224.222     1731.335   -24955.557   -381.64714    343.11759    95.081549    14.462358    27.865868 
   45200    232.97381   -240.30532    204420.41   -23193.649    1690.9874   -24884.637   -258.00399    344.63319    95.082705    14.462485    27.863255 
   45400    235.85499   -403.84656    204420.41   -23259.664    1711.8998   -24971.564   -879.51901    346.73302     95.08458     14.45893    27.864407 
   45600    244.24921   -361.34098    204420.41   -23166.915    1772.8274   -24939.742   -747.71901    348.58063    95.083253    14.459743    27.862196 
   45800    236.15608   -530.80448    204420.41   -23212.226    1714.0852   -24926.311   -1332.7574    350.95266    95.082218    14.464614    27.864048 
   46000    240.33593   -307.29244    204420.41   -23165.548    1744.4237   -24909.972   -568.91158    353.37745     95.08203    14.467432    27.858454 
   46200     244.1237   -344.27821    204420.41     -23155.4    1771.9164   -24927.317   -690.93039    354.32712    95.082696    14.467608    27.872995 
   46400    235.76328    -422.6653    204420.41   -23247.063    1711.2341   -24958.297   -935.49433    355.77893    95.084488    14.465586    27.862894 
   46600    237.94453   -302.06504    204420.41   -23228.526    1727.0662   -24955.592   -530.72702    356.74559    95.086404    14.466154    27.862005 
   46800    241.37007   -420.83789    204420.41   -23195.032    1751.9298   -24946.961   -927.39862       357.26    95.088022    14.463854    27.869266 
   47000    239.82863   -391.22251    204420.41   -23184.014    1740.7415   -24924.756    -818.4869    357.39657    95.089679    14.463017    27.860209 
   47200    230.80875   -477.49699    204420.41   -23250.076    1675.2728   -24925.349   -1153.8883    358.14031    95.088351    14.463981    27.849361 
   47400    241.56546   -364.33782    204420.41   -23173.189    1753.3479   -24926.537   -782.08271    360.37056    95.086858    14.463821    27.866794 
   47600    243.14147   -365.33919    204420.41   -23211.929    1764.7871   -24976.716     -768.245    360.85955    95.086431    14.463749    27.858102 
   47800     238.3676    -386.7194    204420.41   -23271.842     1730.137   -25001.979   -768.31772    361.61143    95.087314    14.464754    27.838555 
   48000    238.01144   -386.05726    204420.41   -23283.569    1727.5519   -25011.121   -807.42361    363.34123    95.087938    14.465913     27.82134 
   48200    238.63834   -277.79668    204420.41   -23210.218    1732.1021   -24942.321   -474.06201    364.42713    95.086258    14.462586     27.84626 
   48400    239.99698    -532.3486    204420.41   -23236.164    1741.9635   -24978.127   -1352.0399    366.21764    95.087744    14.464024    27.872985 
   48600    237.57207   -302.44453    204420.41   -23317.108    1724.3628   -25041.471   -514.47134    366.25397    95.087568    14.463129    27.863932 
   48800    239.05851   -472.60043    204420.41    -23258.87    1735.1518   -24994.022   -1094.0071    367.80413    95.087463    14.459206    27.860351 
   49000    239.70162   -453.28771    204420.41   -23288.129    1739.8197   -25027.948   -1043.5007    369.07877    95.087318    14.458448    27.860311 
   49200    236.69944   -298.64871    204420.41   -23222.191     1718.029    -24940.22   -492.70327    367.87261    95.086587    14.457853    27.861393 
   49400    237.42561   -374.67996    204420.41   -23314.316    1723.2998   -25037.615   -805.56558    369.49727    95.085003    14.455067    27.867253 
   49600     237.0028   -386.81252    204420.41   -23274.885    1720.2309   -24995.116    -834.1658    370.94826    95.082333    14.451202    27.857828 
   49800    238.94611   -528.95212    204420.41   -23235.317     1734.336   -24969.653   -1316.6283     371.7519    95.081795    14.448971    27.864089 
   50000    233.65696   -235.55299    204420.41   -23228.173    1695.9458   -24924.119   -335.20912     372.1614    95.082432    14.449314     27.86588 
   50200    248.57618   -434.73723    204420.41   -23117.076    1804.2337   -24921.309   -988.74075     374.0104    95.082137    14.449352    27.868665 
   50400    244.05961    -243.4663    204420.41   -23217.524    1771.4512   -24988.975   -355.06749     375.0747    95.079927    14.450082    27.854748 
   50600    247.66762   -395.80843    204420.41   -23148.031    1797.6391    -24945.67   -876.03935    377.14653    95.079616    14.452148    27.855971 
   50800    232.07466    -416.6801    204420.41   -23338.385    1684.4611   -25022.846   -967.09497    375.74555    95.079078    14.450533    27.865292 
   51000    239.96937   -361.72108    204420.41   -23272.552    1741.7631   -25014.315   -669.97688    377.50587    95.077875    14.451969    27.869277 
   51200    234.03599    -149.3071    204420.41   -23252.068     1698.697   -24950.765    4.1075956    379.81547    95.076583    14.452339      27.8587 
   51400    238.81766    -400.9055    204420.41     -23213.7    1733.4036   -24947.103   -874.99752    381.47515    95.075761    14.449955    27.860333 
   51600    237.33997   -356.47855    204420.41   -23277.378    1722.6782   -25000.056   -691.41124    381.74662     95.07464    14.451212    27.866611 
   51800     238.0416   -193.83346    204420.41   -23233.241    1727.7708   -24961.012   -189.41202    382.18472    95.075286    14.448723     27.86431 
   52000    234.27882   -394.17874    204420.41   -23290.437    1700.4595   -24990.896   -856.09744    383.61432    95.076254    14.447086    27.849824 
   52200    232.57756   -356.61814    204420.41   -23318.062    1688.1113   -25006.173   -679.64749    383.44184    95.075983    14.447994    27.864488 
   52400    235.24916   -263.81147    204420.41   -23405.069    1707.5025   -25112.572     -386.882      384.369    95.075616    14.449935    27.868538 
   52600    246.70721   -244.88603    204420.41   -23285.032    1790.6682   -25075.701   -353.05782    384.85674    95.074791    14.448937    27.888657 
   52800    240.34041   -362.61355    204420.41   -23184.014    1744.4562   -24928.471   -791.03369    384.77582     95.07425    14.449755    27.878258 
   53000    245.19415   -335.64829    204420.41   -23164.776     1779.686   -24944.462   -692.27274    385.69831    95.074939    14.450568     27.89799 
   53200    237.05263   -529.07899    204420.41    -23265.68    1720.5926   -24986.272   -1339.9678    386.65449    95.075132    14.449553    27.910324 
   53400    240.35376   -119.82897    204420.41    -23267.81    1744.5531   -25012.363    99.177046    387.04678    95.074817    14.446854    27.916564 
   53600    234.36211   -310.17307    204420.41   -23297.463     1701.064   -24998.527   -554.34838    388.18714    95.074449    14.446484    27.894812 
   53800    236.20577    -282.3809    204420.41   -23257.641    1714.4458   -24972.087   -494.94486    388.33876    95.074647    14.446404    27.874591 
   54000    239.19142   -490.99483    204420.41   -23196.678    1736.1165   -24932.794   -1167.5833    390.84207    95.073357    14.443089    27.887868 
   54200    243.81652    -509.5687    204420.41   -23143.115    1769.6867   -24912.802   -1242.0236    391.73707    95.073559     14.43711    27.872927 
   54400    244.63488   -177.06265    204420.41   -23121.282    1775.6266   -24896.908   -61.053648    392.65205    95.075238    14.433323    27.871025 
   54600    244.76357   -460.41276    204420.41   -23176.425    1776.5607   -24952.986   -1127.5046    394.34222    95.073501    14.431152    27.858471 
   54800    245.45456   -440.16424    204420.41   -23194.837    1781.5761   -24976.414   -964.75362    395.49732    95.073602    14.432459    27.885323 
   55000    247.68266   -105.30528    204420.41   -23164.982    1797.7482   -24962.731    134.72677    396.26596    95.072517    14.431344    27.889486 
   55200    233.56239   -172.50758    204420.41    -23322.82    1695.2594   -25018.079   -83.464854    396.20208     95.07089    14.430145    27.879812 
   55400    237.91216   -357.55975    204420.41   -23286.022    1726.8313   -25012.853   -721.70578    399.55193    95.071267    14.431554    27.875579 
   55600    240.43041    -227.7951    204420.41   -23252.534    1745.1094   -24997.643   -306.56846    400.61065    95.071163     14.43305    27.860662 
   55800    246.44163   -424.59649    204420.41   -23118.193    1788.7405   -24906.933   -956.30309    402.00296    95.071882    14.433423     27.85399 
   56000    241.22298   -299.63604    204420.41   -23126.112    1750.8621   -24876.974   -491.73001     403.3083    95.073243     14.43426    27.847913 
   56200    242.24565   -533.46787    204420.41   -23137.504    1758.2849   -24895.789   -1403.4159    402.91896    95.073607    14.433721    27.843013 
   56400    238.88563   -245.01573    204420.41   -23258.307     1733.897   -24992.204   -353.98644    404.59311    95.073531    14.432253    27.819479 
   56600    231.80867   -251.55047    204420.41   -23358.086    1682.5305   -25040.616   -387.69912    406.74233    95.071306    14.433701    27.822682 
   56800    242.33973   -251.41291    204420.41   -23288.104    1758.9678   -25047.072   -352.97854    407.37444    95.069654    14.430088    27.817714 
   57000    235.79507   -319.99957    204420.41    -23349.27    1711.4649   -25060.735   -593.93772    408.34678    95.070487    14.430726    27.829143 
   57200    244.61897   -441.02626    204420.41   -23259.143    1775.5112   -25034.654   -997.25714    410.20079    95.069853     14.43166    27.817037 
   57400    237.82137   -180.04617    204420.41   -23293.794    1726.1723   -25019.967   -111.84573    410.92164    95.070104    14.431894    27.815516 
   57600    234.43011   -338.39447    204420.41   -23321.515    1701.5576   -25023.073   -717.21618    412.35695    95.068395    14.428489    27.798209 
   57800     245.3083   -354.96919    204420.41   -23265.332    1780.5145   -25045.846   -703.65487    413.01768    95.070503    14.429108    27.801993 
   58000    239.01111   -334.27279    204420.41   -23243.363    1734.8078   -24978.171   -635.38623    415.40278    95.071393    14.430244    27.821034 
   58200    251.22695    -350.0885    204420.41   -23205.556    1823.4737    -25029.03    -737.7848    415.27872    95.071857       14.431    27.818604 
   58400    239.50795   -296.50796    204420.41   -23244.975     1738.414   -24983.389   -511.14109    416.45005     95.07137    14.430645     27.81409 
   58600     239.9147   -291.12083    204420.41   -23294.145    1741.3662   -25035.511   -472.67611    419.07484    95.070829    14.428409    27.804711 
   58800    243.61195   -492.89157    204420.41   -23251.119    1768.2019   -25019.321   -1210.6619     420.7412    95.070573     14.43038    27.812286 
   59000    241.71845   -180.98487    204420.41   -23198.629    1754.4584   -24953.088   -82.782367    421.64168    95.068985    14.432335    27.810188 
   59200    246.07463   -299.47542    204420.41   -23235.551    1786.0767   -25021.628   -526.27624    422.47773    95.069406    14.431856     27.80079 
   59400    236.02549   -460.96894    204420.41   -23221.325    1713.1373   -24934.462    -1047.376    424.98593    95.070042    14.431851    27.815325 
   59600     236.2173   -526.37276    204420.41   -23251.572    1714.5296   -24966.102   -1339.7504    427.63089    95.070398    14.432888    27.816209 
   59800    243.23601   -264.80303    204420.41   -23221.676    1765.4733    -24987.15   -427.22562    427.11921    95.072398    14.430301    27.807416 
   60000    234.19563   -416.06773    204420.41   -23208.343    1699.8557   -24908.198   -918.23277    429.74831    95.072446    14.427763    27.819027 
   60200    237.36706   -435.25134    204420.41   -23211.838    1722.8748   -24934.713   -972.46474    430.16981    95.074621    14.427966    27.804948 
   60400    242.31174   -294.56828    204420.41   -23182.714    1758.7647   -24941.478   -496.18637    430.64137    95.073981    14.430295    27.818259 
   60600    238.59617   -293.10793    204420.41   -23179.651     1731.796   -24911.447   -468.67244    431.55927    95.073485    14.429845    27.823167 
   60800    244.16053   -209.68149    204420.41    -23112.92    1772.1836   -24885.104    -218.3885    432.58763    95.074341    14.430746    27.816607 
   61000    236.25783   -528.81398    204420.41   -23177.579    1714.8237   -24892.403    -1332.974    434.11474    95.073737    14.430221    27.798884 
   61200    243.27719   -336.21474    204420.41    -23147.46    1765.7721   -24913.232   -634.74456    434.14952    95.074652    14.431032    27.811083 
   61400     240.9983   -277.38717    204420.41    -23153.24    1749.2313   -24902.471   -438.51448    435.07928    95.075582    14.430561    27.811705 
   61600    244.60983   -588.80628    204420.41    -23185.62    1775.4448   -24961.065   -1534.8178    438.77795    95.077089    14.430522    27.798047 
   61800    233.81131    -484.3403    204420.41   -23237.292    1697.0662   -24934.358   -1176.7364     439.5311    95.078004    14.430401    27.791632 
   62000    241.39483   -288.33101    204420.41   -23159.048    1752.1094   -24911.157   -466.70321    440.76794    95.077441    14.428601     27.78747 
   62200    243.87866   -311.46033    204420.41   -23175.368    1770.1378   -24945.506   -558.19816    444.46334    95.075523    14.426471    27.796418 
   62400    237.91164   -382.99668    204420.41   -23208.965    1726.8275   -24935.792   -826.05777    443.41076    95.075906    14.426564    27.813111 
   62600     242.9221   -473.07695    204420.41   -23264.615    1763.1948    -25027.81   -1142.2317    443.14562    95.075402     14.42703    27.808826 
   62800    233.85276   -269.87157    204420.41   -23353.371     1697.367   -25050.738   -366.97612    442.92155    95.075412      14.4247    27.814746 
   63000    239.47886    -563.9675    204420.41   -23246.453    1738.2028   -24984.656   -1438.8231    446.07239    95.075173     14.42038    27.810437 
   63200    237.90292    -362.9357    204420.41   -23256.373    1726.7642   -24983.137   -744.81024    448.31561    95.073384    14.416622    27.802942 
   63400    235.30113   -302.30235    204420.41    -23309.74    1707.8797   -25017.619   -545.20799    448.63768    95.073437    14.417626    27.810918 
   63600    233.70277   -401.56112    204420.41   -23311.016    1696.2784   -25007.294   -897.63464    448.35591    95.073239    14.417185    27.841647 
   63800    234.91293   -366.89995    204420.41   -23321.266     1705.062   -25026.328   -759.45228     450.8385    95.072905    14.416625    27.844018 
   64000    245.13049   -428.90483    204420.41   -23182.801    1779.2239   -24962.025   -1001.3281    453.81418    95.070928    14.415957    27.841173 
   64200    242.15353   -437.57322    204420.41   -23188.095    1757.6163   -24945.712   -1005.1084    453.57126    95.071494    14.416402    27.856078 
   64400    236.96756   -266.06882    204420.41   -23231.683    1719.9751   -24951.658   -420.30781    456.21125    95.071768    14.413254    27.874076 
   64600    240.34603   -352.35628    204420.41   -23223.553     1744.497    -24968.05   -719.84149    460.60191    95.070802    14.408838    27.883665 
   64800    244.33331   -270.96128    204420.41   -23227.799    1773.4378   -25001.237   -454.94209    462.74083    95.071753    14.404934    27.900312 
   65000    243.49264   -274.29286    204420.41   -23143.216    1767.3359   -24910.552   -461.06437     467.1415    95.070148    14.401366    27.920273 
   65200    239.62039   -175.31771    204420.41   -23177.587    1739.2301   -24916.817   -115.75908    470.09914    95.069901    14.397532    27.933273 
   65400    240.95102   -403.92612    204420.41   -23221.523    1748.8881   -24970.411   -898.67295    474.16485    95.070431     14.39449    27.955431 
   65600    246.67522   -147.73064    204420.41   -23186.872     1790.436   -24977.308   -25.785577    476.27966    95.070904    14.393114    27.942614 
   65800    239.18986   -241.88799    204420.41   -23232.337    1736.1052   -24968.442   -320.59701    478.20448    95.069488    14.393009    27.965263 
   66000    240.66834   -291.08424    204420.41   -23196.907    1746.8364   -24943.743   -454.94254    478.48553    95.068885    14.389589     27.96714 
   66200    238.84466   -293.93821    204420.41   -23231.754    1733.5996   -24965.354   -518.56915    479.62533    95.068668    14.387686    27.973716 
   66400    244.23625   -238.05154    204420.41   -23217.415    1772.7332   -24990.148    -314.4742    479.21339    95.067452    14.389219    27.967603 
   66600     234.1602   -263.35812    204420.41   -23268.312    1699.5985    -24967.91   -428.68235    480.18506    95.066151    14.388921    27.979455 
   66800    236.52018   -140.41039    204420.41   -23260.911    1716.7279   -24977.639    15.245896    477.65573    95.066926     14.39091    27.962109 
   67000    229.04078   -400.32713    204420.41   -23328.256    1662.4404   -24990.696   -868.24292    480.84766    95.068448    14.390011    27.947446 
   67200    235.98747    -391.7102    204420.41   -23276.692    1712.8614   -24989.553   -870.60563    482.52473     95.06834    14.386764     27.94864 
   67400    235.85018   -382.30129    204420.41   -23238.129    1711.8649   -24949.994   -808.17005    485.73945     95.07019    14.385768    27.927612 
   67600    241.99857    -224.2062    204420.41    -23174.23    1756.4916   -24930.722   -268.88646    488.11068    95.069833    14.382552    27.901924 
   67800    234.17632   -225.99344    204420.41   -23193.435    1699.7155   -24893.151   -266.71099    490.33036    95.070623    14.383605    27.907677 
   68000     239.4194   -191.16417    204420.41   -23275.138    1737.7712   -25012.909   -119.14577    490.38329     95.07222    14.387307    27.925895 
   68200    245.09648   -127.93669    204420.41   -23270.053    1778.9771    -25049.03    91.419433    488.71619    95.072762    14.386335     27.91842 
   68400     245.0418   -201.35169    204420.41   -23205.443    1778.5801   -24984.023   -152.67261    489.11042    95.073081    14.388186    27.916857 
   68600    233.04255   -371.81408    204420.41   -23260.334    1691.4864    -24951.82   -776.85597    491.82283    95.074211    14.388547       27.924 
   68800     240.7607   -441.79486    204420.41   -23167.539    1747.5068   -24915.046   -1019.5974    493.24852    95.073668    14.383885    27.930671 
   69000    234.91685    -434.6206    204420.41   -23159.217    1705.0905   -24864.307   -988.35433    494.70888    95.070228     14.38176    27.941706 
   69200    237.75206   -299.01801    204420.41   -23212.845    1725.6692   -24938.514   -542.49581    498.05658    95.067943    14.380801    27.957171 
   69400    237.09995   -464.58656    204420.41   -23264.096     1720.936   -24985.033   -1129.4264    499.62639    95.066203    14.379385    27.951897 
   69600    242.89675   -227.67919    204420.41   -23127.489    1763.0108     -24890.5   -269.35406    499.11399    95.067074    14.379379     27.95544 
   69800    239.20462   -403.81145    204420.41   -23186.921    1736.2123   -24923.133   -934.18543    499.75081     95.06637    14.377871    27.952033 
   70000     239.1119   -369.89636    204420.41   -23247.324    1735.5393   -24982.863   -807.95076    504.26621    95.064736    14.379501    27.955586 
   70200    245.54582   -399.23181    204420.41    -23115.24    1782.2384   -24897.478   -888.70087     505.6233    95.064593     14.37944     27.95965 
   70400     241.4549   -445.77972    204420.41   -23120.043    1752.5454   -24872.588   -1051.1876    507.18612    95.065689    14.378214    27.975108 
   70600    244.76829   -504.23551    204420.41   -23155.214     1776.595   -24931.809   -1250.5069    510.67443    95.066229    14.376123     27.98021 
   70800    237.01243   -404.11671    204420.41    -23199.58    1720.3008    -24919.88   -887.59542    510.73936    95.064914    14.376223    27.990877 
   71000    238.80029   -426.21547    204420.41   -23210.726    1733.2776   -24944.004   -974.83263    510.58067    95.066081    14.373084    27.991724 
   71200    235.32864   -317.45533    204420.41   -23222.574    1708.0794   -24930.653   -608.70619    510.41308    95.065503    14.372333    27.986943 
   71400    240.77843   -418.56093    204420.41    -23236.59    1747.6354   -24984.226   -948.41475     512.7521    95.066088    14.369793    27.968564 
   71600     245.5122   -479.67597    204420.41   -23192.912    1781.9945   -24974.907   -1165.9165    512.88716    95.067996    14.366136    27.959074 
   71800    242.35841   -272.04959    204420.41   -23280.504    1759.1034   -25039.607   -468.60916     512.6165    95.067555    14.368955    27.939698 
   72000    237.89796   -234.54364    204420.41   -23275.216    1726.7282   -25001.944   -339.74737    514.25415    95.069171    14.373947    27.951461 
   72200    238.50373   -286.68367    204420.41   -23140.175     1731.125     -24871.3   -496.70414    517.03162     95.06916    14.373543    27.968825 
   72400    240.92407   -412.19773    204420.41   -23162.147    1748.6925   -24910.839     -921.607     518.7783    95.068242    14.371496    27.958621 
   72600    237.31134   -406.88559    204420.41    -23144.69    1722.4703    -24867.16   -881.82641    518.72342    95.068958    14.371671     27.95398 
   72800    242.56537   -416.49962    204420.41   -23228.325    1760.6055   -24988.931   -908.67775    519.85715    95.068507     14.37272    27.963992 
   73000    233.00394   -381.98645    204420.41   -23236.087    1691.2061   -24927.294   -891.65832    522.67875    95.068936    14.375079    27.974627 
   73200    244.75712    -356.2099    204420.41   -23211.225    1776.5138   -24987.739   -750.70822    523.57688    95.070237    14.375279    27.966125 
   73400     242.4861   -263.23675    204420.41   -23172.347    1760.0302   -24932.377   -409.13747    524.54922    95.071813    14.376518    27.981985 
   73600    237.50384   -332.98381    204420.41   -23190.542    1723.8676   -24914.409   -679.60452    525.65942    95.072519    14.378249    27.980802 
   73800    231.06556   -442.38051    204420.41   -23285.884    1677.1368   -24963.021   -1001.3001    526.89969    95.072344    14.382983    27.972496 
   74000    239.58544   -381.19788    204420.41   -23268.895    1738.9764   -25007.872   -827.66427    527.64487    95.072129     14.38299    27.969433 
   74200    241.50673   -348.62914    204420.41   -23146.303    1752.9216   -24899.225   -687.97053    529.46034     95.07024    14.382545    27.953218 
   74400    243.56357   -324.38286    204420.41   -23156.855    1767.8508   -24924.706    -596.2835    528.13675    95.069879    14.381671    27.954465 
   74600    236.67057   -328.68718    204420.41   -23190.214    1717.8195   -24908.033   -598.80832    528.95218     95.07029    14.381954     27.94286 
   74800    239.31692   -473.08922    204420.41   -23214.988    1737.0274   -24952.016   -1130.1741     529.6325     95.07205    14.381125    27.940663 
   75000    236.64206   -356.89348    204420.41   -23228.462    1717.6125   -24946.075   -734.78568     532.7285    95.072612    14.379317     27.93857 
   75200    240.11571   -516.79708    204420.41   -23144.453    1742.8252   -24887.279   -1285.9571    534.99903    95.071275    14.376312     27.95049 
   75400    236.58892   -417.22533    204420.41   -23250.692    1717.2269   -24967.919   -939.50692    536.49659    95.071908     14.37687    27.947271 
   75600    237.54341    -270.8575    204420.41   -23215.519    1724.1548   -24939.674   -427.07564    539.09244    95.072169    14.378743    27.929975 
   75800     242.9273    -332.1895    204420.41   -23152.714    1763.2326   -24915.947   -641.07151    540.21067    95.072111    14.377061    27.925847 
   76000    238.67366   -214.69011    204420.41    -23166.22    1732.3585   -24898.579   -259.76627    542.47508    95.071406      14.3751    27.913901 
   76200    232.27518   -307.63771    204420.41   -23266.954    1685.9166   -24952.871   -574.91466    544.17021    95.072118    14.374725    27.931795 
   76400    240.56451   -353.32692    204420.41   -23250.334    1746.0827   -24996.417   -704.43361    546.29482    95.072097     14.37339    27.964702 
   76600    238.22332   -183.42635    204420.41   -23225.169    1729.0898   -24954.259   -160.35433    547.76578    95.071464     14.37295    27.965645 
   76800    240.11131   -361.94371    204420.41   -23247.635    1742.7933   -24990.428   -761.86656    549.07351    95.070021    14.373184    27.976518 
   77000    239.25332   -166.77225    204420.41   -23248.815    1736.5658   -24985.381   -42.507224      549.834    95.067843    14.372313    27.991545 
   77200    243.03951   -173.24202    204420.41   -23218.389     1764.047   -24982.436   -50.588052     552.8158    95.069309    14.372516    28.015647 
   77400    240.41386   -273.33517    204420.41   -23224.355    1744.9893   -24969.344    -416.6798    554.94631    95.069381    14.372987    28.025236 
   77600    238.56816   -351.95037    204420.41   -23272.966    1731.5927   -25004.559   -729.41286    556.31851    95.068327     14.37215    28.021846 
   77800    238.63543   -351.33697    204420.41   -23274.515     1732.081   -25006.596   -710.56907    557.52067    95.068132    14.370338    28.012864 
   78000    242.15312   -479.29726    204420.41   -23236.634    1757.6134   -24994.247   -1155.6581    558.11425     95.06788    14.371678    28.006815 
   78200    240.75267   -347.98324    204420.41   -23235.574    1747.4485   -24983.023   -711.12258    557.11913    95.066769     14.37651    28.018122 
   78400    245.40971   -249.36535    204420.41   -23193.712    1781.2505   -24974.963   -332.93907    556.74757    95.065309     14.37771      28.0116 
   78600    235.73755   -233.58382    204420.41   -23204.473    1711.0474    -24915.52    -276.3001    558.59683    95.064779    14.377667    27.998254 
   78800    237.89929   -273.84326    204420.41   -23170.427    1726.7378   -24897.165   -389.93114    559.50617    95.066394    14.378565    27.978562 
   79000    237.48603   -186.54945    204420.41   -23167.253    1723.7383   -24890.991   -118.09483    560.65292     95.06653    14.379307    27.986791 
   79200    243.91486   -302.58548    204420.41    -23136.61    1770.4005   -24907.011   -529.35031     560.1482    95.065852    14.379758    27.991527 
   79400    241.87547   -218.61926    204420.41   -23139.747    1755.5981   -24895.345   -253.95374    562.15436    95.064532    14.381702     27.98528 
   79600    239.11546   -326.88019    204420.41   -23272.543    1735.5652   -25008.108   -620.25211    564.35418    95.066152    14.381725    27.974414 
   79800    241.60043   -366.59848    204420.41   -23263.406    1753.6017   -25017.008   -740.55828    565.68341    95.068018    14.383988    27.973128 
   80000    239.51706   -295.49474    204420.41   -23329.069    1738.4801    -25067.55   -521.62919    566.85769    95.069031    14.385743     27.96776 
   80200    232.82782     -342.439    204420.41   -23316.047    1689.9277   -25005.975   -637.57617    569.04704    95.068595    14.388445    27.964282 
   80400    234.05964   -191.88236    204420.41   -23336.765    1698.8686   -25035.634   -110.37789    570.72814    95.067965    14.390783    27.967382 
   80600    233.70733   -525.21723    204420.41   -23310.937    1696.3115   -25007.249   -1263.1312    571.84057    95.067412    14.387924     27.96616 
   80800    244.65804   -66.556223    204420.41   -23282.275    1775.7947    -25058.07    306.05552    572.04553    95.067936    14.387223    27.965568 
   81000    237.99317   -419.27352    204420.41   -23315.655    1727.4193   -25043.074   -925.45856    573.31405    95.067646    14.387054    27.957704 
   81200    234.61691   -175.62696    204420.41    -23234.63    1702.9135   -24937.544   -91.023901    571.85124    95.068457    14.386178    27.954758 
   81400    240.83098   -378.32803    204420.41   -23210.158    1748.0169   -24958.175   -829.96619    574.45446     95.06938    14.384462    27.962494 
   81600    236.09206   -379.36179    204420.41    -23300.99    1713.6205   -25014.611   -774.58548    578.81526    95.068653    14.383173     27.95915 
   81800    234.04657    -395.6754    204420.41   -23336.093    1698.7738   -25034.867   -817.71079    580.55885    95.070177    14.384985     27.94491 
   82000    239.17321   -356.30199    204420.41   -23283.911    1735.9843   -25019.895   -716.03942    579.85851    95.071984    14.382414    27.930341 
   82200    244.25945    -264.6261    204420.41   -23203.309    1772.9016   -24976.211   -376.25395    581.55318    95.071542    14.381216    27.915806 
   82400    239.32513   -468.27934    204420.41   -23225.765     1737.087   -24962.852   -1114.7063    581.66787    95.073932     14.37653     27.92239 
   82600    241.26049   -309.25521    204420.41   -23118.636    1751.1344    -24869.77   -556.63001    582.72084    95.075248    14.376861    27.912031 
   82800    230.34734   -324.10757    204420.41   -23208.598    1671.9237   -24880.521   -610.51429    582.61074    95.076197    14.377805    27.936083 
   83000    239.71386    -346.0486    204420.41    -23123.88    1739.9085   -24863.788   -677.00174    584.33077    95.075666    14.378145      27.9616 
   83200    242.19493   -269.28914    204420.41   -23156.118    1757.9168   -24914.034   -414.54947    582.30448    95.074749     14.37826    27.958906 
   83400    239.75362   -296.22193    204420.41   -23137.732    1740.1971   -24877.929   -490.51976    584.64605    95.075051    14.373543    27.934639 
   83600    230.44596   -296.92673    204420.41   -23232.473    1672.6396   -24905.112   -515.17797    584.13681    95.076441    14.369728    27.938596 
   83800    242.47194   -364.11856    204420.41   -23220.078    1759.9274   -24980.005   -763.30794    585.50413     95.07678     14.36727    27.942716 
   84000    243.97217   -448.48443    204420.41   -23227.847    1770.8165   -24998.664   -1000.9273    588.46336    95.079028    14.368037    27.946229 
   84200    237.94911   -203.57302    204420.41   -23185.499    1727.0995   -24912.599   -181.82067    589.73483    95.078858    14.364985    27.945643 
   84400    235.78628   -274.87509    204420.41   -23244.067    1711.4011   -24955.468   -426.97907    590.78127    95.080542    14.363941    27.922704 
   84600    244.18062   -294.94745    204420.41   -23222.482    1772.3294   -24994.812   -499.64125    593.50128     95.08256    14.361677    27.932525 
   84800    239.10936   -246.47201    204420.41   -23264.853    1735.5209   -25000.374   -356.34194     595.2039    95.083307    14.357429    27.920133 
   85000    234.78055    -381.3313    204420.41   -23226.102    1704.1012   -24930.203   -830.87227    595.48264    95.082569    14.355312     27.92828 
   85200    243.63938   -187.89296    204420.41   -23258.458     1768.401   -25026.859   -113.07647    596.18459    95.082833    14.356756    27.911675 
   85400    233.79699   -312.79647    204420.41   -23328.803    1696.9623   -25025.765   -563.19123    596.97056    95.082127    14.356171    27.900718 
   85600    236.77006   -352.56969    204420.41   -23263.902    1718.5416   -24982.443    -684.5109    599.78101    95.081853    14.355266    27.917887 
   85800    239.02848    -363.8146    204420.41   -23275.787    1734.9338   -25010.721    -755.3981    599.66357    95.083179    14.352776    27.927996 
   86000    236.68492    -348.5747    204420.41   -23195.449    1717.9237   -24913.373   -668.99986     600.3471    95.083551    14.352219    27.919446 
   86200    238.28998   -476.92991    204420.41   -23150.469    1729.5736   -24880.042   -1134.2253    603.42038    95.082581    14.350515    27.921498 
   86400     239.0536    -400.3532    204420.41   -23264.785    1735.1162   -24999.901   -878.50413    602.43372    95.082943    14.351711    27.900257 
   86600    242.37559    -146.5346    204420.41   -23196.778    1759.2281   -24956.006    9.4008386     602.8021    95.082549    14.355364    27.918968 
   86800    235.24639   -333.24199    204420.41   -23247.193    1707.4824   -24954.676    -662.1849    606.01356    95.081206    14.355826    27.895271 
   87000    241.62203   -219.31812    204420.41   -23235.896    1753.7585   -24989.654   -232.52989    605.91891    95.080035    14.353811    27.900049 
   87200     240.7082   -406.03919    204420.41   -23201.482    1747.1257   -24948.608   -910.59427     607.8797    95.079176    14.351483    27.892019 
   87400    235.65144   -218.40064    204420.41    -23279.26    1710.4223   -24989.682   -236.93032    610.65431    95.079974    14.349203    27.892141 
   87600    241.87179   -432.96795    204420.41    -23153.56    1755.5714   -24909.131   -986.23073    610.25304    95.080679    14.346838     27.90181 
   87800    243.17927   -525.72637    204420.41   -23214.421    1765.0614   -24979.482   -1342.6576    610.94269    95.082436    14.346329    27.909149 
   88000    236.81258   -475.79441    204420.41   -23240.422    1718.8502   -24959.272   -1132.9418    610.30658     95.08168    14.348561    27.897227 
   88200    236.92934   -205.15185    204420.41   -23261.578    1719.6977   -24981.276    -215.5085    610.42486    95.080944    14.347563    27.910432 
   88400    240.19898   -372.20133    204420.41   -23187.377    1743.4297   -24930.807   -791.80328    615.19043    95.081023    14.349221    27.911744 
   88600    238.14644   -281.47955    204420.41   -23220.895    1728.5318   -24949.426   -451.31122    615.91973    95.083186    14.348759    27.913301 
   88800    237.76451   -404.29099    204420.41   -23244.126    1725.7596   -24969.885   -923.01848    617.11088    95.083794    14.345832    27.912702 
   89000    242.71408   -414.54717    204420.41   -23206.834    1761.6849   -24968.519   -925.45577    615.27024    95.083405    14.345756     27.93158 
   89200    240.56049   -244.98968    204420.41   -23221.934    1746.0535   -24967.987   -331.57108    616.27049    95.083865    14.344519     27.94415 
   89400    244.78907    -236.2273    204420.41   -23156.629    1776.7458   -24933.375   -341.12752    617.77098    95.084424    14.344276    27.971377 
   89600    234.65321   -324.60991    204420.41   -23306.589    1703.1769   -25009.766    -610.9616     618.2596    95.083417    14.341535     27.95589 
   89800    235.53999   -348.87866    204420.41   -23198.837    1709.6134   -24908.451   -696.06238    619.29448    95.082568    14.338988    27.927805 
   90000    239.64019    -379.3114    204420.41   -23180.644    1739.3738   -24920.018   -844.86962     619.9173     95.08153    14.338914    27.921801 
   90200    240.38271   -273.64823    204420.41   -23258.955    1744.7632   -25003.718   -455.45372    622.51848    95.081438     14.33789    27.917875 
   90400    239.55373   -607.98931    204420.41   -23210.668    1738.7463   -24949.414   -1615.3043    627.73037     95.08212    14.337618    27.909748 
   90600    234.17739   -385.83094    204420.41   -23256.237    1699.7233   -24955.961   -826.79215    625.02546    95.080638    14.338351    27.928827 
   90800    238.31788   -297.94055    204420.41   -23255.987    1729.7761   -24985.763   -501.82965    624.59207    95.080762    14.339839    27.924954 
   91000    244.47708   -338.76589    204420.41   -23286.805    1774.4812   -25061.286   -662.56614    625.63209     95.07998    14.338621    27.928007 
   91200    233.19284   -354.92359    204420.41   -23315.058    1692.5772   -25007.635   -739.53934    626.65585    95.079728    14.338179    27.921369 
   91400    239.34757   -339.17469    204420.41   -23239.397    1737.2499   -24976.647   -671.04225    624.90458    95.079742    14.338844     27.92591 
   91600    240.98478   -135.05807    204420.41   -23171.074    1749.1332   -24920.207   -5.4990955    626.10282    95.079613    14.333342    27.915144 
   91800    239.31863   -306.61773    204420.41   -23212.567    1737.0398   -24949.607   -514.09432    625.96446    95.079352     14.33119    27.930161 
   92000    243.14357   -308.94843    204420.41   -23181.627    1764.8023    -24946.43   -589.50091    626.33744    95.078023    14.329064    27.927814 
   92200    237.90248   -281.27597    204420.41   -23188.564     1726.761   -24915.325   -482.74444    624.85882    95.077233    14.328032    27.939432 
   92400    244.47746   -77.866335    204420.41   -23172.844     1774.484   -24947.328    225.77782    626.61138    95.075208    14.327309    27.916804 
   92600    242.77777   -428.95893    204420.41   -23102.047    1762.1472   -24864.194   -997.82494    628.34946    95.074929    14.327908    27.911895 
   92800    241.76118   -311.19492    204420.41   -23218.593    1754.7685   -24973.361   -558.57542    628.53953    95.075409    14.326384    27.906686 
   93000    238.76323   -76.055753    204420.41   -23212.866    1733.0086   -24945.874     286.6645    628.06679    95.076541     14.32453    27.893075 
   93200    239.42939   -365.56088    204420.41   -23189.739    1737.8437   -24927.583   -773.35744    628.93142    95.077337    14.323289    27.897565 
   93400     234.8219   -329.13601    204420.41   -23254.751    1704.4013   -24959.152   -609.28503    631.74461    95.076949    14.320577    27.908872 
   93600    241.04818   -177.49099    204420.41    -23222.41    1749.5934   -24972.003    -73.55395    632.59929    95.077667    14.316368    27.900967 
   93800    235.91939    -203.7823    204420.41   -23253.176    1712.3672   -24965.543   -187.48071    634.33624    95.076142    14.310943    27.873001 
   94000    238.32744   -191.98673    204420.41   -23261.482    1729.8455   -24991.327   -138.84138    635.79256    95.077332    14.312982    27.878014 
   94200    241.20041   -333.33333    204420.41   -23139.653    1750.6983   -24890.351   -684.04785    636.17783    95.078845    14.315911    27.884147 
   94400     234.9314   -231.63639    204420.41   -23170.224    1705.1961    -24875.42    -258.9916    637.49005    95.079108     14.31734    27.879257 
   94600     234.5314   -653.06517    204420.41   -23179.363    1702.2928   -24881.656   -1755.2052     639.7931    95.079569    14.321321      27.8694 
   94800    241.68364   -302.20345    204420.41   -23154.405    1754.2057    -24908.61   -541.90621    640.42031    95.080089    14.322504    27.859746 
   95000    234.75346   -263.94444    204420.41   -23217.549    1703.9046   -24921.454   -387.26491    640.74654    95.079048     14.32346    27.856504 
   95200    233.31142   -414.22036    204420.41   -23202.366    1693.4379   -24895.804   -936.09127    644.02525    95.078785    14.321712    27.879555 
   95400    240.79496   -467.79208    204420.41   -23166.244    1747.7554   -24913.999   -1075.3976    644.73634    95.079842    14.319692    27.889427 
   95600    239.24451   -542.14669    204420.41   -23127.991    1736.5018   -24864.493     -1363.36    646.19825    95.080749    14.322479    27.891363 
   95800    239.40614   -537.27602    204420.41   -23174.648     1737.675   -24912.323   -1339.7441    648.39219    95.081429    14.322409    27.886674 
   96000    249.49938   -133.44718    204420.41   -23178.322    1810.9345   -24989.256    28.836805    648.80497    95.080272    14.323098    27.880778 
   96200    242.78381   -182.36394    204420.41   -23138.889    1762.1911    -24901.08   -135.54684    650.24977    95.079659    14.324188    27.886487 
   96400    244.23857   -277.54198    204420.41   -23216.805    1772.7501   -24989.555   -466.39803    653.80481    95.080445    14.323464    27.883192 
   96600    235.15314   -217.42129    204420.41   -23250.822    1706.8055   -24957.627   -274.07867    653.25269    95.080792    14.329592    27.878434 
   96800    237.93419   -500.87352    204420.41   -23234.306    1726.9912   -24961.298   -1218.3213    655.64735    95.078706    14.330247    27.881483 
   97000    238.87802   -411.37873    204420.41   -23276.503    1733.8418   -25010.345   -898.29972    656.27882    95.078011     14.32955    27.884673 
   97200    238.10803   -304.32104    204420.41   -23266.642     1728.253   -24994.895   -575.88813    656.54408    95.080391    14.326271    27.859292 
   97400    240.30077   -175.98322    204420.41   -23270.094    1744.1684   -25014.263    -97.73045    659.37716    95.083626    14.325508    27.873991 
   97600    245.22932   -352.73799    204420.41   -23219.973    1779.9412   -24999.914   -717.74951     661.7898     95.08602    14.325157    27.869417 
   97800    249.87917   -417.12052    204420.41   -23235.537    1813.6911   -25049.228   -918.28053    660.90343    95.087471    14.326122     27.86184 
   98000    239.94082   -414.14219    204420.41   -23312.623    1741.5558   -25054.179   -930.42432    660.79181     95.08889    14.326477    27.850177 
   98200     236.1981   -234.86247    204420.41   -23292.136    1714.3901   -25006.527   -283.97172     661.0662    95.089587    14.329918    27.857444 
   98400    247.65308   -405.27432    204420.41   -23204.769    1797.5335   -25002.303   -869.05246    663.45141    95.087237    14.333675    27.859767 
   98600    243.91771   -357.79497    204420.41   -23232.956    1770.4212   -25003.378   -724.17817    666.73929    95.087204    14.336373    27.850319 
   98800    240.84651   -462.69556    204420.41   -23190.548    1748.1296   -24938.678   -1088.8279    666.82805    95.087946    14.335635    27.849008 
   99000     234.3303   -201.54311    204420.41   -23243.256    1700.8332   -24944.089   -213.42248    665.67239    95.085661    14.334659     27.85655 
   99200    240.51416   -347.59523    204420.41   -23194.757    1745.7173   -24940.475   -648.44182    670.02041    95.084813    14.331294    27.857964 
   99400    238.30916    -307.3762    204420.41   -23167.364    1729.7128   -24897.077   -517.52317    671.97567    95.084711    14.329089    27.838084 
   99600     240.8389   -222.91722    204420.41   -23164.984    1748.0744   -24913.058   -278.35163    673.28983    95.083676    14.326645    27.822003 
   99800     242.1576   -560.08539    204420.41   -23186.701    1757.6458   -24944.346   -1413.7586    674.71219    95.085387    14.326027    27.814545 
  100000    239.99834    -438.5004    204420.41   -23226.002    1741.9734   -24967.976   -961.87869    677.26986    95.085886    14.322822    27.818438 
  100200    238.92179   -436.23262    204420.41    -23330.01    1734.1594   -25064.169   -985.62863    680.12978    95.087438    14.323295    27.815029 
  100400    243.75012    -237.4755    204420.41   -23227.414    1769.2048   -24996.619   -296.47682    682.30844    95.085926    14.324474    27.814105 
  100600     239.4224   -410.93638    204420.41   -23238.886     1737.793   -24976.679   -887.58242    681.31397    95.084906    14.324711     27.80927 
  100800    235.55109   -527.37852    204420.41   -23306.273     1709.694   -25015.967   -1338.6713    681.67998    95.085506    14.326269    27.808976 
[...]
 5175800    223.89748    97.940595    204420.41   -25624.744    1625.1089   -27249.853    808.42006    6367.8746    96.385607    14.059331    27.851257 
 5176000    224.49729    34.927062    204420.41   -25641.938    1629.4625     -27271.4    552.68892    6369.1297    96.386947    14.059056    27.865723 
 5176200     227.1167     92.92454    204420.41   -25667.146    1648.4749    -27315.62    805.23975     6372.554    96.386137    14.058997    27.856053 
 5176400    228.24645    80.883463    204420.41   -25601.575    1656.6749    -27258.25    756.04023    6375.9622    96.386567     14.05938    27.859555 
 5176600    229.85845    127.60835    204420.41   -25540.149    1668.3753   -27208.525    953.97002    6372.4779    96.386373    14.060179    27.855022 
 5176800    228.32099      117.701    204420.41    -25594.55     1657.216   -27251.766    872.07261     6367.375    96.387101    14.059777    27.860198 
 5177000    230.80123    38.801057    204420.41   -25572.085    1675.2182   -27247.303    617.22497    6372.7144    96.387271    14.059861    27.866295 
 5177200    230.17971    153.27236    204420.41   -25547.695     1670.707   -27218.402    1031.3956    6375.1522    96.388246    14.058938    27.861735 
 5177400    231.46914    6.8023718    204420.41   -25507.451    1680.0661   -27187.517    512.36082    6375.7677    96.387887    14.059129    27.864498 
 5177600    229.05536    284.73313    204420.41   -25596.201    1662.5462   -27258.747    1486.6862     6365.975     96.38919    14.058583    27.852734 
 5177800    221.86227   -13.662445    204420.41   -25626.181    1610.3368   -27236.518    429.70595    6373.1856     96.38979    14.059376    27.855608 
 5178000     227.6725    241.75591    204420.41   -25620.834     1652.509   -27273.343    1299.5422     6368.665    96.390709    14.059769    27.862932 
 5178200    226.31121   -54.236049    204420.41   -25626.817    1642.6284   -27269.446    261.52266    6378.3412    96.391466    14.060114    27.857373 
 5178400     226.0225    138.88977    204420.41   -25631.856    1640.5329   -27272.388    967.72399    6372.3709    96.392496    14.061009    27.857753 
 5178600    227.74518   -52.056354    204420.41   -25598.922    1653.0366   -27251.958    298.22958    6373.7905    96.393241    14.063277    27.859723 
 5178800    228.42703    163.39752    204420.41   -25605.505    1657.9856   -27263.491    1047.4705    6369.7513    96.394001    14.063472    27.855087 
 5179000     226.3139    65.019715    204420.41    -25638.32    1642.6479   -27280.968    716.52282    6376.9213    96.394046    14.063834    27.850667 
 5179200    229.68199    140.12081    204420.41   -25640.743    1667.0945   -27307.838    994.41048    6378.5071    96.395534    14.064203    27.843783 
 5179400    233.80358    105.20585    204420.41    -25579.08    1697.0101    -27276.09    857.49849    6373.1929    96.395637    14.064036    27.856755 
 5179600    228.01791    120.54751    204420.41   -25632.114    1655.0161    -27287.13    898.30069    6374.3194    96.395269    14.063446    27.858326 
 5179800    229.87328    167.29321    204420.41   -25630.508    1668.4829   -27298.991     1045.744      6370.28    96.395943    14.063311    27.859378 
 5180000    216.35442    67.105609    204420.41   -25714.618    1570.3593   -27284.978    715.70844    6378.4949    96.396304    14.063621    27.862602 
 5180200    219.65092    185.00957    204420.41   -25688.148    1594.2862   -27282.435    1137.5632    6372.2625    96.397475     14.06353    27.855621 
 5180400    230.60924   -40.181792    204420.41   -25609.033    1673.8247   -27282.857    322.43963    6376.4789    96.398101    14.064711    27.864806 
 5180600     219.1731    211.05327    204420.41   -25605.725    1590.8181   -27196.544    1206.1331    6368.8747    96.398627    14.064202    27.853575 
 5180800    227.59191   -5.5606699    204420.41   -25641.672    1651.9241   -27293.596    449.66118    6378.8254    96.397814    14.063282    27.856836 
 5181000    228.64119    298.65056    204420.41   -25681.522    1659.5401   -27341.062    1528.3609    6374.6307     96.39956    14.062306    27.852037 
 5181200    227.18554    14.692503    204420.41   -25651.056    1648.9745    -27300.03    552.40701    6376.7715    96.400303    14.064287    27.856587 
 5181400    231.86422    173.77555    204420.41    -25558.68    1682.9337   -27241.614    1070.4404    6369.4926    96.400355    14.064034    27.852928 
 5181600    221.07334   -67.770733    204420.41   -25676.568    1604.6106   -27281.179    219.79715    6374.2763    96.400802    14.064603    27.848542 
 5181800    224.84371    231.31424    204420.41   -25559.113    1631.9769    -27191.09    1297.7717     6370.951    96.401932    14.064222    27.857349 
 5182000    224.37313   -7.8301218    204420.41   -25588.686    1628.5613   -27217.248    470.88951    6377.2552     96.40237    14.065228    27.862389 
 5182200     230.4874    199.69343    204420.41   -25552.513    1672.9404   -27225.453    1198.6296    6372.0146     96.40252    14.065485    27.864537 
 5182400    226.62821    30.969651    204420.41   -25640.066    1644.9293   -27284.995    579.69349    6373.4083    96.403066    14.067193    27.864473 
 5182600    224.31868    91.606946    204420.41   -25596.345    1628.1661   -27224.511    820.18824    6376.2802    96.402124    14.067581     27.86368 
 5182800    228.92101    100.07241    204420.41   -25572.538    1661.5711   -27234.109    839.48497    6378.4073     96.40227    14.067711    27.858985 
 5183000    233.07224     145.0013    204420.41    -25542.43    1691.7018   -27234.131    982.11634    6376.3673    96.403527    14.068388    27.869119 
 5183200    227.53241     143.4646    204420.41   -25566.596    1651.4922   -27218.088    973.89249      6370.51     96.40457    14.069594    27.861588 
 5183400    221.07255    92.747217    204420.41   -25691.492    1604.6048   -27296.096    840.31964    6372.9675    96.404127    14.070593    27.853171 
 5183600    223.03384    236.60895    204420.41   -25676.932    1618.8404   -27295.773    1301.9541    6373.6364    96.404495     14.07103     27.85462 
 5183800    221.77284    36.544294    204420.41   -25646.402    1609.6877    -27256.09    618.73593    6380.0494    96.405194    14.071516    27.856247 
 5184000    225.07968    194.55728    204420.41   -25575.191    1633.6896   -27208.881    1147.4237    6370.2229    96.405579     14.07144    27.859251 
 5184200    230.71834   -29.716522    204420.41   -25588.301    1674.6166   -27262.917    342.87694    6375.3476    96.405502    14.072347    27.863329 
 5184400    228.59055    220.08155    204420.41   -25562.805    1659.1725   -27221.977     1262.034    6368.2237    96.404643    14.071557    27.850482 
 5184600    231.61317   -40.286389    204420.41   -25615.477    1681.1115   -27296.588    317.91831    6377.7411    96.404621    14.072549    27.851999 
 5184800    228.02596    92.206528    204420.41   -25591.984    1655.0746   -27247.059    797.83883    6373.0046    96.404488     14.07243    27.860075 
 5185000    231.08985    14.790467    204420.41   -25596.042    1677.3131   -27273.355    532.57752    6377.3512    96.404604     14.07346    27.856988 
 5185200    222.75459    157.31612    204420.41   -25661.727    1616.8135    -27278.54    1033.2161    6369.6947    96.405619    14.073878    27.864028 
 5185400    228.83844     84.79903    204420.41   -25591.131    1660.9718   -27252.103    809.75628    6372.3218    96.407414    14.075291     27.86724 
 5185600     228.0335    109.07348    204420.41   -25594.805    1655.1293   -27249.934     839.0103    6372.6586    96.408568     14.07646    27.868888 
 5185800    226.52279     92.05708    204420.41   -25570.496    1644.1641    -27214.66    845.98052    6374.9729      96.4097    14.077331    27.864093 
 5186000    232.08554     120.8547    204420.41   -25589.049    1684.5401   -27273.589    876.99257    6373.6521    96.409222    14.076808    27.864767 
 5186200      228.208    63.760501    204420.41   -25562.263    1656.3959   -27218.659     706.3802    6372.2096    96.409753    14.077036    27.865608 
 5186400    228.64501    74.905945    204420.41   -25596.549    1659.5678   -27256.117     713.6232    6373.7806    96.410472     14.07691    27.872472 
 5186600     230.4946    98.586377    204420.41   -25594.004    1672.9926   -27266.997    827.97349    6373.9201     96.41199    14.076345    27.867551 
 5186800    228.75982    54.296205    204420.41   -25584.462    1660.4011   -27244.863    652.82603    6375.7507    96.412153    14.076485    27.862963 
 5187000    229.33387    132.73084    204420.41    -25550.59    1664.5677   -27215.158    927.38924     6371.463    96.412532    14.075512    27.851765 
 5187200    228.75411   -77.264567    204420.41   -25610.138    1660.3597   -27270.498     186.0746    6373.3051    96.412171    14.074941    27.846159 
 5187400    225.54182    226.75839    204420.41   -25644.602     1637.044   -27281.646     1257.975    6370.3228    96.412734    14.075491    27.846051 
 5187600    225.39533    33.399819    204420.41   -25562.872    1635.9808   -27198.852    608.09196    6378.1321    96.413268    14.076577    27.845494 
 5187800    223.29496    150.80264    204420.41   -25613.544    1620.7356   -27234.279    995.19133    6370.2551    96.414305    14.077704    27.850681 
 5188000     230.6116    38.395759    204420.41    -25550.01    1673.8418   -27223.852    610.62359    6374.0643    96.413777    14.077492    27.862563 
 5188200    228.05017    161.55185    204420.41   -25595.708    1655.2503   -27250.958    1029.6383    6373.9967    96.413382    14.077404    27.856502 
 5188400    230.17339    16.531716    204420.41   -25595.103    1670.6612   -27265.764    549.14137      6376.32    96.412776    14.078563    27.849015 
 5188600    227.35995    202.68764    204420.41   -25631.897    1650.2404   -27282.138    1185.8209    6376.3154    96.413925    14.080246    27.857068 
 5188800    222.66676    130.22044    204420.41   -25662.623     1616.176   -27278.799    941.55815    6374.5592     96.41333    14.081253    27.853186 
 5189000    228.84459    90.594387    204420.41   -25624.187    1661.0164   -27285.204    772.00196    6374.4391    96.412479    14.081775     27.85813 
 5189200    219.11331    193.36393    204420.41   -25728.711    1590.3841   -27319.095    1148.8036    6371.9742    96.413049     14.08236     27.86112 
 5189400    223.50623   -9.8380505    204420.41   -25669.418    1622.2691   -27291.688    461.02424    6377.7441    96.413529    14.083823    27.862246 
 5189600    227.39596    146.85579    204420.41   -25591.486    1650.5019   -27241.988    972.47991     6375.931    96.413968    14.085523    27.854066 
 5189800    227.82996    69.408019    204420.41   -25621.107    1653.6519   -27274.759    726.59183     6376.628    96.412686    14.087125    27.855034 
 5190000    229.58008    102.52256    204420.41   -25619.882    1666.3547   -27286.237    842.56313    6371.6545    96.413346    14.086685    27.849541 
 5190200    224.44681   -38.206657    204420.41    -25622.99    1629.0961   -27252.086     355.6344    6373.8407    96.413875    14.087364     27.84413 
 5190400     223.7702    146.18001    204420.41   -25528.471    1624.1851   -27152.656    970.80096    6375.4667     96.41412    14.086836    27.844903 
 5190600    228.81769    100.26271    204420.41   -25611.296    1660.8212   -27272.117    859.60016      6377.68    96.413886     14.08625    27.848775 
 5190800    233.43323    138.80399    204420.41   -25591.255     1694.322   -27285.577    947.67336    6372.1485    96.414523    14.087674    27.852297 
 5191000    229.83641   -24.068952    204420.41   -25616.715    1668.2153    -27284.93    367.45911    6377.3516    96.414957     14.08686    27.859251 
 5191200    224.41022     62.91106    204420.41   -25613.797    1628.8305   -27242.628    706.43167    6373.4492    96.414456    14.087222    27.853183 
 5191400    224.78715    123.36508    204420.41    -25592.56    1631.5664   -27224.127    883.41307    6377.4535    96.415847    14.087914    27.861169 
 5191600    229.21695    117.47801    204420.41   -25614.755    1663.7191   -27278.474    894.18004     6372.568    96.415872    14.087611    27.853795 
 5191800    227.45637    24.472529    204420.41   -25568.837    1650.9403   -27219.777    570.82314    6374.3966    96.416304    14.088934    27.854184 
 5192000     231.3284    58.654947    204420.41   -25552.199    1679.0446   -27231.243    700.30775    6374.1533    96.416088    14.088858    27.850015 
 5192200    225.28394    57.212906    204420.41   -25598.442    1635.1722   -27233.614    670.65136    6374.7363    96.416445    14.088427    27.853598 
 5192400     221.7874  -0.81192196    204420.41   -25596.026    1609.7934   -27205.819    514.26477    6373.2207    96.416814    14.088773    27.861832 
 5192600    229.20846    118.12138    204420.41   -25626.563    1663.6574    -27290.22    919.64665    6368.3813    96.416511    14.089278    27.863355 
 5192800    228.89669    34.843274    204420.41   -25571.341    1661.3945   -27232.735    609.11405    6377.0944    96.417076    14.090414    27.865504 
 5193000    224.67038    186.68318    204420.41   -25654.651    1630.7189    -27285.37    1104.4387    6371.0117    96.417498    14.090771    27.864722 
 5193200    230.78308   -91.389942    204420.41   -25582.596    1675.0865   -27257.683    151.18797     6382.453    96.418281    14.091465    27.865504 
 5193400    225.27384     242.7531    204420.41   -25583.606    1635.0989   -27218.705    1322.6312    6367.8874    96.418218    14.093774    27.860549 
 5193600    232.44682   -92.846544    204420.41   -25573.763    1687.1624   -27260.925    142.12458     6375.935    96.418927    14.093346    27.848431 
 5193800    229.98202     198.2304    204420.41   -25590.802    1669.2722   -27260.074    1162.7772    6370.7603    96.418938    14.092734    27.854118 
 5194000    216.44886   -56.553142    204420.41   -25699.023    1571.0448   -27270.067    278.63331    6378.2219     96.42086    14.091682    27.857277 
 5194200    227.13667    94.167233    204420.41   -25629.217    1648.6199   -27277.837    844.16536    6378.1915    96.421179    14.091322    27.863667 
 5194400    226.88052    175.81025    204420.41   -25590.218    1646.7607   -27236.979    1095.1467    6371.2941    96.422438     14.09125    27.860901 
 5194600    232.88557    27.078811    204420.41   -25548.701    1690.3469   -27239.048    570.05494    6374.6084    96.423448     14.09199    27.856746 
 5194800    228.55152    85.781631    204420.41   -25579.823    1658.8892   -27238.712    779.36976    6372.5889    96.424453    14.091516    27.863665 
 5195000    227.93554   -25.972679    204420.41   -25584.287    1654.4183   -27238.705     391.1334    6379.9577    96.424817    14.091582    27.859935 
 5195200    230.15043    115.73858    204420.41   -25584.492    1670.4945   -27254.986    885.98064    6372.3559    96.424965    14.091843    27.854428 
 5195400    227.38504    32.914915    204420.41   -25593.888    1650.4225    -27244.31    608.89267    6374.6801    96.426652    14.092648    27.841048 
 5195600     224.9453    89.080878    204420.41   -25648.111    1632.7143   -27280.825    806.49398    6370.6223    96.427692    14.093737    27.843387 
 5195800    231.14657    17.522322    204420.41   -25535.335    1677.7248    -27213.06    542.76836    6378.4031    96.427907     14.09454    27.844701 
 5196000    232.15992    177.35718    204420.41   -25614.178    1685.0799   -27299.258     1133.055     6371.153    96.428047    14.095775    27.845381 
 5196200    225.92756   -38.358324    204420.41   -25628.114    1639.8438   -27267.958    328.69547    6374.5936    96.428034    14.097334    27.850262 
 5196400     227.7469    97.101897    204420.41    -25602.14    1653.0491   -27255.189    827.22189    6372.9054    96.428576    14.098619    27.857216 
 5196600    223.90632    158.44484    204420.41   -25598.649    1625.1731   -27223.822    1043.8494    6373.3783    96.428615    14.098752     27.84987 
 5196800    224.76133   -5.2214159    204420.41   -25582.665    1631.3789   -27214.043    480.69525    6378.7098    96.428371    14.100375    27.842438 
 5197000     225.9261    169.09389    204420.41   -25551.547    1639.8332    -27191.38    1027.0746    6369.4611    96.429008    14.100666    27.850676 
 5197200    227.29848     5.374747    204420.41   -25633.357    1649.7943   -27283.151    512.78209    6376.6238    96.428225    14.101216    27.848484 
 5197400    227.43286    234.37093    204420.41   -25637.715    1650.7696   -27288.485    1284.4095    6366.8371    96.428715    14.101196    27.849329 
 5197600    220.45546    -94.79577    204420.41   -25672.795    1600.1258   -27272.921    170.06762    6377.8739    96.429255    14.102903    27.855928 
 5197800     222.2779    145.25842    204420.41   -25699.261    1613.3536   -27312.615     960.2781    6368.1354    96.429283    14.102535    27.847498 
 5198000    229.13104   -36.512671    204420.41   -25573.753    1663.0955   -27236.849    366.13213    6376.2951    96.429864    14.103101     27.84358 
 5198200    228.08424    244.01281    204420.41   -25586.105    1655.4975   -27241.603     1298.998    6368.2933     96.43092    14.104663     27.85112 
 5198400    222.51766   -5.4507467    204420.41   -25649.797    1615.0938    -27264.89    433.81123    6377.0038     96.43062    14.103587    27.853553 
 5198600    220.82112    183.12669    204420.41   -25699.436    1602.7799   -27302.216    1148.6667     6368.088    96.430578    14.104735     27.84869 
 5198800    230.24802   -48.901249    204420.41   -25618.444    1671.2029   -27289.647    304.52752    6374.9293    96.431054    14.104896    27.852104 
 5199000    229.88089    201.95583    204420.41       -25565    1668.5382   -27233.538    1175.7048    6367.3678     96.43173     14.10602    27.857713 
 5199200    223.16695    24.783012    204420.41   -25625.078    1619.8066   -27244.885    532.15058    6372.3713    96.433235    14.105326    27.850356 
 5199400    229.96029    54.591655    204420.41    -25609.43    1669.1145   -27278.544    692.00176    6373.3533    96.432918    14.105202     27.84524 
 5199600     228.3134    179.46196    204420.41   -25593.461    1657.1608   -27250.622    1095.2395    6371.4652    96.432876    14.104883    27.859049 
 5199800    230.08602   -24.048949    204420.41   -25612.586     1670.027   -27282.613    404.61648    6375.8983    96.432594     14.10618    27.852522 
 5200000    230.29944    170.36475    204420.41   -25577.713    1671.5761   -27249.289    1075.7464    6370.5415    96.433318    14.106347    27.846767 
Loop time of 7979.89 on 120 procs for 5200000 steps with 8482 atoms

Performance: 563.015 ns/day, 0.043 hours/ns, 651.638 timesteps/s
98.0% CPU use with 120 MPI tasks x no OpenMP threads

MPI task timing breakdown:
Section |  min time  |  avg time  |  max time  |%varavg| %total
---------------------------------------------------------------
Pair    | 0.24558    | 2067       | 6518.2     |5391.6 | 25.90
Neigh   | 0.35224    | 120.78     | 467.5      |1314.1 |  1.51
Comm    | 9.2065     | 2203       | 6348.2     |5145.1 | 27.61
Output  | 99.032     | 99.128     | 100.93     |   1.7 |  1.24
Modify  | 320.7      | 3434.9     | 7818       |5633.0 | 43.04
Other   |            | 55.14      |            |       |  0.69

Nlocal:    70.6833 ave 226 max 0 min
Histogram: 48 0 42 0 0 0 0 0 12 18
Nghost:    607.975 ave 972 max 0 min
Histogram: 12 4 0 2 3 33 20 8 15 23
Neighs:    0 ave 0 max 0 min
Histogram: 120 0 0 0 0 0 0 0 0 0
FullNghs:  7043.87 ave 28364 max 0 min
Histogram: 67 23 0 0 0 0 0 5 13 12

Total # of neighbors = 845264
Ave neighs/atom = 99.6539
Neighbor list builds = 547616
Dangerous builds = 0
write_data 		${DIR}/data.${NAME}_run
write_data 		run_24/data.${NAME}_run
write_data 		run_24/data.ibeam_cooling_24_run
Total wall time: 2:13:17
