
### Dimensions ###


### IMPORT ATOMS ###
read_data ../Box_Setup/data.Ibeam_240K
  orthogonal box = (0 0 0) to (189.989 26.9999 39.8504)
  15 by 2 by 4 MPI processor grid
  reading atoms ...
  8482 atoms
  reading velocities ...
  8482 velocities
group water type 2
2436 atoms in group water
group graphite type 1
6046 atoms in group graphite


# Define potential
#
pair_style          sw
pair_coeff * * MLC_e.sw C mW

# Add velocity/set timestep
#

fix		1 graphite setforce 0.0 0.0 0.0
velocity 	graphite set 0.0 0.0 0.0
velocity            water create ${START_TEMP} ${SEED} rot yes dist gaussian
velocity            water create 240 ${SEED} rot yes dist gaussian
velocity            water create 240 27698 rot yes dist gaussian
timestep            5.0

# Define output
#
compute 1 water msd
compute 2 water temp


thermo	            100
thermo_style custom step c_2 press vol etotal ke pe c_1[4] density

# Neighbor lists
#
neigh_modify        delay 0 every 1 check yes


# Set fixes
#
fix                 2 water momentum 10 linear 1 1 1 rescale
fix                 3 all nve
fix                 4 water temp/csvr ${START_TEMP} ${START_TEMP} 500.0 928347
fix                 4 water temp/csvr 240 ${START_TEMP} 500.0 928347
fix                 4 water temp/csvr 240 240 500.0 928347

# Run 0.05 ns equilibration
#
dump                1 all custom 100 ${DIR}/eq.${NAME}.dump id type x y z vx vy vz
dump                1 all custom 100 run_24/eq.${NAME}.dump id type x y z vx vy vz
dump                1 all custom 100 run_24/eq.ibeam_cooling_24.dump id type x y z vx vy vz
run                 10000
Neighbor list info ...
  update every 1 steps, delay 0 steps, check yes
  max neighbors/atom: 2000, page size: 100000
  master list distance cutoff = 6.67472
  ghost atom cutoff = 6.67472
  binsize = 3.33736, bins = 57 9 12
  1 neighbor lists, perpetual/occasional/extra = 1 0 0
  (1) pair sw, perpetual
      attributes: full, newton on
      pair build: full/bin/atomonly
      stencil: full/bin/3d
      bin: standard
Per MPI rank memory allocation (min/avg/max) = 0.4705 | 3.837 | 4.747 Mbytes
Step c_2 Press Volume TotEng KinEng PotEng c_1[4] Density 
       0          240   -262.64038    204420.41   -23347.773    1741.9854   -25089.758            0   0.94632332 
     100    239.46539   -224.71434    204420.41   -23357.037    1738.1051   -25095.142   0.78625459   0.94632332 
     200    240.77433   -371.50291    204420.41   -23385.326    1747.6057   -25132.932    1.2027793   0.94632332 
     300    235.07565   -350.98748    204420.41   -23382.358    1706.2431   -25088.602    1.6396549   0.94632332 
     400    245.66175   -397.04423    204420.41   -23385.086    1783.0799   -25168.166    1.9061957   0.94632332 
     500    241.31933   -370.64165    204420.41   -23360.605    1751.5615   -25112.167    2.2474316   0.94632332 
     600    243.23644   -363.91942    204420.41   -23299.087    1765.4764   -25064.564    2.5640861   0.94632332 
     700    235.52805   -214.31768    204420.41   -23303.328    1709.5267   -25012.855    2.9615034   0.94632332 
     800    241.26105   -278.19954    204420.41   -23297.503    1751.1384   -25048.642    3.3693221   0.94632332 
     900    240.21264   -185.56893    204420.41   -23312.834    1743.5288   -25056.363    3.7565256   0.94632332 
    1000    238.33986   -372.80569    204420.41   -23329.987    1729.9356   -25059.922    4.0097433   0.94632332 
    1100     242.7216   -215.12063    204420.41   -23313.174    1761.7395   -25074.914    4.1807124   0.94632332 
    1200    238.82197   -212.72803    204420.41    -23315.09    1733.4349   -25048.525    4.7349011   0.94632332 
    1300    241.95559   -491.34752    204420.41    -23258.46    1756.1796   -25014.639    5.1178904   0.94632332 
    1400    239.27886   -279.67973    204420.41   -23292.742    1736.7512   -25029.494    5.6980178   0.94632332 
    1500    239.53208   -264.87267    204420.41   -23318.495    1738.5891   -25057.084    6.1246029   0.94632332 
    1600    240.59826    -294.7424    204420.41   -23278.694    1746.3277   -25025.022    6.4961966   0.94632332 
    1700    242.30092   -331.90542    204420.41   -23300.308    1758.6861   -25058.994     6.955512   0.94632332 
    1800    237.94073   -358.33994    204420.41   -23264.944    1727.0387   -24991.982    7.3146072   0.94632332 
    1900     236.5892   -183.61394    204420.41   -23226.359    1717.2289   -24943.588    7.7224318   0.94632332 
    2000    246.70938   -214.20656    204420.41   -23197.381    1790.6839   -24988.065    8.1671094   0.94632332 
    2100    235.27474   -187.14486    204420.41   -23302.382    1707.6882    -25010.07    8.6282742   0.94632332 
    2200    238.21545   -297.68169    204420.41   -23261.516    1729.0327   -24990.548    8.7933858   0.94632332 
    2300    242.05313   -354.85334    204420.41   -23230.988    1756.8876   -24987.875    9.0667495   0.94632332 
    2400    235.79895   -380.38655    204420.41   -23229.241    1711.4931   -24940.734    9.4758052   0.94632332 
    2500    239.01494   -277.23197    204420.41   -23257.496    1734.8355   -24992.332    10.012798   0.94632332 
    2600    237.79658   -340.74957    204420.41    -23261.82    1725.9924   -24987.812     10.47552   0.94632332 
    2700    238.26033   -310.64331    204420.41    -23248.01    1729.3584   -24977.368    10.680847   0.94632332 
    2800    242.74185   -182.67666    204420.41   -23198.937    1761.8865   -24960.823     11.14419   0.94632332 
    2900    238.12586   -356.63005    204420.41   -23205.514    1728.3823   -24933.896    11.620513   0.94632332 
    3000    245.94102   -282.90846    204420.41   -23199.127    1785.1069   -24984.234    12.030819   0.94632332 
    3100    247.11772   -306.43618    204420.41   -23202.084    1793.6478   -24995.732    12.343924   0.94632332 
    3200    244.73208   -250.81675    204420.41    -23281.85    1776.3321   -25058.182    12.750666   0.94632332 
    3300    235.15113   -440.52999    204420.41   -23378.499     1706.791    -25085.29    13.028778   0.94632332 
    3400    235.35961   -501.38696    204420.41   -23321.815    1708.3042   -25030.119    13.503751   0.94632332 
    3500    240.72359   -418.17317    204420.41   -23312.896    1747.2374   -25060.134     13.65772   0.94632332 
    3600    244.81701   -386.56311    204420.41    -23306.56    1776.9486   -25083.508    13.866101   0.94632332 
    3700    240.05634   -253.01223    204420.41   -23289.955    1742.3943    -25032.35    14.093294   0.94632332 
    3800    240.28299   -194.29486    204420.41   -23267.866    1744.0394   -25011.906    14.526871   0.94632332 
    3900    247.80438   -386.22179    204420.41   -23268.581    1798.6317   -25067.213    15.007113   0.94632332 
    4000    234.76695   -402.74868    204420.41   -23302.146    1704.0025   -25006.148    15.089998   0.94632332 
    4100    241.03138   -366.64063    204420.41   -23294.189    1749.4714    -25043.66    15.206356   0.94632332 
    4200    241.63698   -201.72218    204420.41   -23268.512     1753.867   -25022.379    15.226905   0.94632332 
    4300    237.22382   -359.88779    204420.41   -23329.803    1721.8351   -25051.638    15.509575   0.94632332 
    4400    239.88418   -287.53452    204420.41   -23298.329    1741.1447   -25039.474    15.764071   0.94632332 
    4500    232.30577   -234.35785    204420.41   -23322.989    1686.1386   -25009.127    16.110811   0.94632332 
    4600    229.81545   -348.57395    204420.41   -23357.773    1668.0631   -25025.836    16.423379   0.94632332 
    4700    240.98979   -496.68617    204420.41   -23290.029    1749.1695   -25039.198    16.687685   0.94632332 
    4800    237.81552   -359.09635    204420.41   -23242.919    1726.1298   -24969.049     16.92477   0.94632332 
    4900    246.82827   -287.76576    204420.41   -23209.621    1791.5469   -25001.168    17.036469   0.94632332 
    5000    240.39274   -372.40988    204420.41    -23265.35     1744.836   -25010.186    17.563419   0.94632332 
    5100    237.15523    -338.9496    204420.41   -23231.045    1721.3373   -24952.382    17.960661   0.94632332 
    5200    242.48719   -437.66108    204420.41   -23265.183    1760.0381   -25025.221    18.477338   0.94632332 
    5300    234.63093   -317.11842    204420.41   -23322.368    1703.0152   -25025.383    18.792582   0.94632332 
    5400    236.00977   -189.92084    204420.41   -23299.189    1713.0232   -25012.213    19.085551   0.94632332 
    5500    240.73483   -479.65926    204420.41   -23298.693     1747.319   -25046.012    19.319657   0.94632332 
    5600    241.34404   -244.63466    204420.41   -23316.664    1751.7408   -25068.405    19.598799   0.94632332 
    5700    239.98973   -198.78968    204420.41   -23306.039    1741.9109   -25047.949    19.991634   0.94632332 
    5800    243.23816   -348.77553    204420.41   -23298.179    1765.4888   -25063.668    20.261951   0.94632332 
    5900    239.69337   -325.30453    204420.41    -23317.78    1739.7598    -25057.54    20.619387   0.94632332 
    6000    235.18028   -378.14576    204420.41   -23321.041    1707.0025   -25028.044    21.360412   0.94632332 
    6100    236.11319    -416.8778    204420.41   -23326.817    1713.7739   -25040.591    21.664278   0.94632332 
    6200    236.48109   -416.96188    204420.41   -23326.105    1716.4442   -25042.549    21.886976   0.94632332 
    6300     239.7906    -556.4516    204420.41   -23246.492    1740.4655   -24986.957    22.044273   0.94632332 
    6400    242.68798   -366.81377    204420.41   -23277.887    1761.4955   -25039.383    22.502881   0.94632332 
    6500    237.32631   -305.88941    204420.41    -23297.23     1722.579   -25019.809    23.088263   0.94632332 
    6600    238.11166   0.54514106    204420.41   -23310.627    1728.2793   -25038.906    23.575905   0.94632332 
    6700    234.98268   -298.50317    204420.41   -23334.074    1705.5683   -25039.642    24.142987   0.94632332 
    6800    235.64386   -323.78391    204420.41    -23311.03    1710.3673   -25021.398     24.32758   0.94632332 
    6900    239.57945   -373.47553    204420.41   -23245.183    1738.9329   -24984.116    24.683238   0.94632332 
    7000    239.56354   -469.07995    204420.41   -23253.039    1738.8175   -24991.857     25.23621   0.94632332 
    7100    239.98907   -464.92431    204420.41   -23261.952    1741.9061   -25003.858    25.573665   0.94632332 
    7200    231.01096    -200.1292    204420.41   -23316.904    1676.7405   -24993.644    26.074336   0.94632332 
    7300    232.79317   -473.66053    204420.41   -23336.223    1689.6763     -25025.9    26.579464   0.94632332 
    7400    241.73871   -212.24441    204420.41   -23315.302    1754.6054   -25069.908    27.011293   0.94632332 
    7500    241.13581   -419.60267    204420.41   -23299.583    1750.2294   -25049.812    27.567832   0.94632332 
    7600    239.22992   -345.24096    204420.41   -23261.223    1736.3959   -24997.619    27.831189   0.94632332 
    7700    243.75161   -318.55417    204420.41   -23291.635    1769.2156   -25060.851    28.157749   0.94632332 
    7800    235.26506   -470.36419    204420.41   -23361.313    1707.6179   -25068.931    28.316029   0.94632332 
    7900    239.51399   -261.01765    204420.41   -23333.141    1738.4578   -25071.598    28.429945   0.94632332 
    8000    245.11414    -459.5826    204420.41   -23256.293    1779.1052   -25035.399    28.862872   0.94632332 
    8100     245.5961   -304.28681    204420.41   -23239.572    1782.6034   -25022.176    28.960342   0.94632332 
    8200    244.25975    -272.3936    204420.41   -23263.373    1772.9038   -25036.277    29.225495   0.94632332 
    8300    243.36122   -315.23264    204420.41   -23221.178    1766.3821    -24987.56    29.526022   0.94632332 
    8400    246.90356   -300.66844    204420.41   -23216.977    1792.0933    -25009.07    30.137111   0.94632332 
    8500    244.49885   -111.69478    204420.41   -23250.277    1774.6393   -25024.916     30.51784   0.94632332 
    8600    240.70455    -270.5638    204420.41   -23272.373    1747.0992   -25019.472    31.054146   0.94632332 
    8700    238.55747   -225.11322    204420.41   -23270.846    1731.5151   -25002.361    31.495708   0.94632332 
    8800    239.13849   -413.85036    204420.41    -23257.39    1735.7323   -24993.122     31.82133   0.94632332 
    8900    234.67044   -488.90876    204420.41   -23284.587     1703.302   -24987.889    32.418895   0.94632332 
    9000    238.07266   -330.01908    204420.41   -23245.677    1727.9962   -24973.673    32.487617   0.94632332 
    9100    237.09688   -483.08184    204420.41   -23258.165    1720.9138   -24979.079    32.752869   0.94632332 
    9200    242.07122    -304.6573    204420.41   -23196.071    1757.0189    -24953.09    32.843227   0.94632332 
    9300    238.04637   -369.92201    204420.41   -23259.561    1727.8054   -24987.366    33.069514   0.94632332 
    9400     242.2618   -37.999011    204420.41   -23227.926    1758.4022   -24986.328     33.07117   0.94632332 
    9500    238.01675   -78.675006    204420.41   -23265.135    1727.5904   -24992.725    33.471512   0.94632332 
    9600    240.13528   -397.36593    204420.41   -23278.014    1742.9673   -25020.982      33.7249   0.94632332 
    9700     241.8803   -409.33241    204420.41   -23247.264    1755.6331   -25002.898    34.000033   0.94632332 
    9800    242.50682   -351.37125    204420.41   -23184.119    1760.1806     -24944.3    34.663137   0.94632332 
    9900    246.09434   -396.93968    204420.41   -23220.826    1786.2198   -25007.046    34.983686   0.94632332 
   10000    235.05343   -528.04381    204420.41   -23218.594    1706.0818   -24924.676    35.625672   0.94632332 
Loop time of 17.1287 on 120 procs for 10000 steps with 8482 atoms

Performance: 252.208 ns/day, 0.095 hours/ns, 583.815 timesteps/s
97.9% CPU use with 120 MPI tasks x no OpenMP threads

MPI task timing breakdown:
Section |  min time  |  avg time  |  max time  |%varavg| %total
---------------------------------------------------------------
Pair    | 0.0004108  | 4.4354     | 14.163     | 251.4 | 25.89
Neigh   | 0.00041151 | 0.13037    | 0.50189    |  43.0 |  0.76
Comm    | 0.011412   | 4.6616     | 13.543     | 239.7 | 27.22
Output  | 0.1542     | 0.15435    | 0.16109    |   0.2 |  0.90
Modify  | 0.51778    | 7.6137     | 16.85      | 263.1 | 44.45
Other   |            | 0.1333     |            |       |  0.78

Nlocal:    70.6833 ave 226 max 0 min
Histogram: 48 3 39 0 0 0 0 0 12 18
Nghost:    609.458 ave 1013 max 0 min
Histogram: 12 4 0 4 7 28 20 11 22 12
Neighs:    0 ave 0 max 0 min
Histogram: 120 0 0 0 0 0 0 0 0 0
FullNghs:  7098.68 ave 28453 max 0 min
Histogram: 63 27 0 0 0 0 0 5 13 12

Total # of neighbors = 851842
Ave neighs/atom = 100.429
Neighbor list builds = 583
Dangerous builds = 0
write_data 	    ${DIR}/data.${NAME}_eq
write_data 	    run_24/data.${NAME}_eq
write_data 	    run_24/data.ibeam_cooling_24_eq

undump              1
unfix               4



################################################
#######         Run Simulation         #########
################################################

reset_timestep      0
timestep	    10.0
log                 ${DIR}/log.run_${NAME}
log                 run_24/log.run_${NAME}
log                 run_24/log.run_ibeam_cooling_24
