
# Set production fixes - Nose/Hoover
#
fix                 4 water temp/csvr ${START_TEMP} ${END_TEMP} 500.0 928347
fix                 4 water temp/csvr 240 ${END_TEMP} 500.0 928347
fix                 4 water temp/csvr 240 227 500.0 928347


## divide "droplet" into core and surface
#region		core_reg cylinder z 135 135 44.6 20 INF units box
#region		surface_reg cylinder z 135 135 44.6 20 INF units box side out
#group		core dynamic all region core_reg
#group		surface dynamic all region surface_reg

## compute pressure core
#compute        peratom_core core stress/atom NULL
#compute        p_core core reduce sum c_peratom_core[1] c_peratom_core[2] c_peratom_core[3]
#variable       press_core equal -(c_p_core[1]+c_p_core[2]+c_p_core[3])/(3*1249982.5)


## compute pressure surface
#compute        peratom_surf surface stress/atom NULL
#compute        p_surf surface reduce sum c_peratom_surf[1] c_peratom_surf[2] #c_peratom_surf[3]
#variable       press_surf equal -(c_p_surf[1]+c_p_surf[2]+c_p_surf[3])/(3*42395)

## compute total pressure of drop
compute        peratom water stress/atom NULL
compute        p water reduce sum c_peratom[1] c_peratom[2] c_peratom[3]
variable       press equal -(c_p[1]+c_p[2]+c_p[3])/(3*58301)


# compute order parameter
compute        3 all orientorder/atom nnn NULL cutoff 3.5

# compute center of mass of bridge
compute 	4 water com

# Run simulation
thermo_style        custom step c_2 press vol etotal ke pe v_press c_1[4] c_4[*]
thermo              200
dump		     1 water custom 400 ${DIR}/prod.${NAME}.dump id type x y z vx vy vz c_3[*] c_peratom[*]
dump		     1 water custom 400 run_28/prod.${NAME}.dump id type x y z vx vy vz c_3[*] c_peratom[*]
dump		     1 water custom 400 run_28/prod.ibeam_cooling_28.dump id type x y z vx vy vz c_3[*] c_peratom[*]
run                 ${STEPS}
run                 5200000
Neighbor list info ...
  update every 1 steps, delay 0 steps, check yes
  max neighbors/atom: 2000, page size: 100000
  master list distance cutoff = 6.67472
  ghost atom cutoff = 6.67472
  binsize = 3.33736, bins = 48 11 12
  2 neighbor lists, perpetual/occasional/extra = 1 1 0
  (1) pair sw, perpetual
      attributes: full, newton on
      pair build: full/bin/atomonly
      stencil: full/bin/3d
      bin: standard
  (2) compute orientorder/atom, occasional, copy from (1)
      attributes: full, newton on
      pair build: copy
      stencil: none
      bin: none
Per MPI rank memory allocation (min/avg/max) = 0.9081 | 5.943 | 7.204 Mbytes
Step c_2 Press Volume TotEng KinEng PotEng v_press c_1[4] c_4[1] c_4[2] c_4[3] 
       0    243.39435   -312.70183    229018.04   -21099.345    1612.0884   -22711.434   -736.80129     35.89728    78.598227    15.906161    29.757926 
     200    235.66449   -305.02487    229018.04   -21118.522    1560.8908   -22679.413   -703.31055    39.317169    78.599778    15.906625    29.753457 
     400    236.02473   -398.79128    229018.04   -21112.693    1563.2767   -22675.969   -1083.8369    42.636523    78.600663    15.908835    29.771203 
     600    232.77409   -415.91649    229018.04    -21249.88    1541.7466   -22791.626   -1124.5125    44.770781    78.601573    15.908276    29.775633 
     800    232.95362   -396.65563    229018.04   -21217.547    1542.9356   -22760.482   -1048.7937    45.738981    78.601951    15.908094    29.778658 
    1000     242.6101   -447.16715    229018.04   -21124.962     1606.894   -22731.856    -1261.911    47.094182    78.604496    15.907475     29.79074 
    1200    234.99636   -329.17956    229018.04   -21206.537    1556.4655   -22763.003   -839.76317    48.562484    78.605641    15.905751    29.787781 
    1400    242.01351   -387.74573    229018.04   -21013.217    1602.9426   -22616.159   -1039.6161     50.50048    78.605567    15.905049    29.801612 
    1600    244.63621   -227.44041    229018.04   -20986.359    1620.3136   -22606.673   -409.15986    53.185597    78.606073     15.90592    29.809015 
    1800    246.89435   -463.83804    229018.04   -21048.745    1635.2702   -22684.015   -1315.2135     54.24359    78.605576    15.904101     29.80307 
    2000    243.64009    -216.6495    229018.04   -20970.397     1613.716   -22584.113   -350.55487     56.23068    78.607299    15.901683    29.796893 
    2200    238.60796   -264.84385    229018.04   -20998.325    1580.3864   -22578.712   -563.17963    58.047834    78.607145     15.90135    29.773788 
    2400    241.20604   -357.84176    229018.04   -21014.172    1597.5944   -22611.766   -915.38371    60.389288    78.608871    15.900771    29.772538 
    2600    244.04549   -224.08261    229018.04   -21052.712    1616.4011   -22669.113   -402.53826    62.341654    78.609326     15.89979    29.776766 
    2800    236.55965   -343.46987    229018.04   -21003.944    1566.8197   -22570.763   -873.01961    65.104876    78.610476    15.898793    29.794241 
    3000    239.56249   -203.02208    229018.04   -21139.891    1586.7086   -22726.599   -329.44129    67.706545     78.60875    15.899278    29.786583 
    3200    231.51528   -224.59955    229018.04   -21095.851     1533.409    -22629.26   -412.06933    70.156342    78.608142    15.896453    29.775664 
    3400    240.20713   -486.65981    229018.04   -21061.591    1590.9783   -22652.569   -1432.6724    73.998224    78.607603    15.893954    29.789693 
    3600    239.76782   -335.59344    229018.04   -21044.064    1588.0686   -22632.132   -792.00548    74.256194    78.608778    15.894937    29.784541 
    3800    240.07208   -267.47344    229018.04   -21058.562    1590.0838   -22648.646   -539.90232    75.422697     78.60648    15.898159    29.777014 
    4000    230.74818   -427.41308    229018.04   -21087.623    1528.3283   -22615.951   -1183.5325    77.072434    78.607732    15.896419     29.75598 
    4200    238.46519   -133.03768    229018.04   -21014.961    1579.4408   -22594.402   -25.731968    78.472361    78.609531    15.893851    29.770937 
    4400    245.78381   -516.78146    229018.04   -20983.607    1627.9146   -22611.522   -1518.7517    80.402668    78.610179    15.892276    29.782892 
    4600    239.63064    -180.9851    229018.04   -21085.751      1587.16   -22672.911   -231.20417    82.128467    78.611826    15.893743     29.77401 
    4800    241.77066   -230.87945    229018.04   -21086.962    1601.3341   -22688.296   -396.22841    82.907938    78.613158    15.896395    29.789139 
    5000    235.38136   -351.80395    229018.04   -21137.593    1559.0155   -22696.608   -852.92475    83.787065    78.614022     15.89784    29.782546 
    5200     241.3164   -285.69162    229018.04   -21107.069    1598.3254   -22705.394   -630.25318    85.775776    78.614285    15.898946    29.770465 
    5400    242.54051   -144.60493    229018.04   -21147.396    1606.4331   -22753.829   -60.298032    86.978555    78.615187    15.896786    29.754413 
    5600    230.53901   -340.34161    229018.04   -21224.052    1526.9429   -22750.994    -839.8874    89.162196    78.615852    15.895734    29.780661 
    5800    246.35627     -238.932    229018.04   -21070.649    1631.7062   -22702.356   -419.01987    92.081453    78.617484    15.895327    29.772937 
    6000     233.7456   -245.47535    229018.04   -21257.457    1548.1812   -22805.639   -490.81223    95.300464    78.616466    15.893052    29.787247 
    6200    243.22095   -262.06004    229018.04   -21168.819    1610.9399   -22779.759   -523.01048    99.388279    78.615304    15.894109    29.776799 
    6400    244.46926   -284.18002    229018.04     -21110.8    1619.2079   -22730.008   -621.55622    100.95889    78.613129    15.897774    29.793207 
    6600    232.60651   -241.33179    229018.04   -21201.694    1540.6366   -22742.331   -465.90187    102.66165    78.612215    15.898838    29.802763 
    6800    237.02358   -359.01275    229018.04   -21167.443    1569.8925   -22737.335   -932.37018     104.7409    78.610975    15.894914    29.790642 
    7000    241.94616   -444.57922    229018.04   -21233.048    1602.4965   -22835.545   -1255.4726    107.57077    78.609073    15.894046    29.789764 
    7200    245.29871   -390.43946    229018.04   -21132.617    1624.7016   -22757.319    -1040.066    111.47059    78.607883    15.894348    29.773906 
    7400    235.33925    -360.1343    229018.04   -21191.235    1558.7366   -22749.971   -917.36081     113.6943    78.607515    15.894849    29.761159 
    7600    233.63543   -371.92303    229018.04   -21213.615    1547.4515   -22761.066   -983.84514    113.95403    78.606045     15.89499    29.755961 
    7800    237.54159   -414.55204    229018.04   -21078.154    1573.3235   -22651.478   -1145.1393    115.58773    78.608483    15.893624    29.769484 
    8000    238.19917   -423.73419    229018.04   -21082.204    1577.6789   -22659.883   -1182.0407    116.64545    78.607246    15.894363    29.781938 
    8200    235.58949   -325.88068    229018.04   -21140.372     1560.394   -22700.766   -748.73453    116.72381    78.608256    15.895408    29.770461 
    8400    231.52309   -159.65079    229018.04   -21174.465    1533.4607   -22707.926   -183.75204    116.52329    78.609694    15.895338    29.768056 
    8600    241.94787   -360.10055    229018.04   -21080.825    1602.5078   -22683.333   -913.03098    118.58923    78.611143    15.896284    29.757035 
    8800     242.0805   -432.54993    229018.04   -21098.857    1603.3863   -22702.244   -1178.6475    120.99008    78.610959    15.896749    29.774373 
    9000    238.36822   -178.79391    229018.04    -21084.68    1578.7985   -22663.478   -206.34315    124.20905    78.611711    15.897451    29.803217 
    9200    241.39435   -333.11331    229018.04   -21127.095    1598.8417   -22725.937   -807.73489    124.48282    78.611056    15.896368    29.796155 
    9400    234.07533   -370.27955    229018.04   -21204.412    1550.3652   -22754.777   -1005.4424    126.40615    78.609637    15.896837    29.797293 
    9600    237.06335   -392.38057    229018.04   -21231.416    1570.1559   -22801.572   -1048.2285    127.43252    78.607816    15.895324    29.774253 
    9800    240.83883    -315.9048    229018.04   -21189.013    1595.1623   -22784.176    -727.9797    126.25367    78.607019     15.89366    29.771358 
   10000    247.78455   -284.71044    229018.04    -21014.42    1641.1662   -22655.587   -621.10733    127.12123    78.603696    15.890806    29.775441 
   10200    239.57743   -295.87331    229018.04   -21095.024    1586.8075   -22681.832   -648.60421    128.28252    78.603347    15.889559    29.762731 
   10400    238.48947   -174.39478    229018.04   -21103.418    1579.6016   -22683.019   -205.35261    131.69716    78.603481    15.889523    29.766421 
   10600    242.63276   -283.71084    229018.04   -21083.569    1607.0441   -22690.613   -621.10507    134.28086    78.602647     15.88967    29.746362 
   10800    246.69777   -353.05293    229018.04   -21119.915    1633.9681   -22753.884   -881.84122    136.51238    78.604513    15.889655     29.74696 
   11000    237.09338   -361.19115    229018.04   -21133.396    1570.3548   -22703.751   -934.03119    138.69851    78.607038    15.890677    29.757692 
   11200    244.46513   -395.10808    229018.04   -21094.218    1619.1805   -22713.398    -1048.237    140.60326    78.605523    15.890918    29.754184 
   11400    247.12523   -307.74861    229018.04    -21125.22    1636.7993   -22762.019   -709.59557    143.75352     78.60195     15.88948    29.735963 
   11600    244.52317   -389.19595    229018.04   -21089.228     1619.565   -22708.793   -1028.1649    145.53054    78.601501    15.887228    29.727221 
   11800    242.82948   -426.80501    229018.04   -21127.279     1608.347   -22735.626   -1160.0102    144.46889    78.603034    15.888027    29.710622 
   12000    243.86748   -455.54357    229018.04   -21058.173    1615.2221   -22673.395   -1322.6396     141.5186    78.603388     15.88895    29.728311 
   12200    238.46484   -333.54966    229018.04   -21150.893    1579.4385   -22730.332   -812.67246    139.27237     78.60282    15.886752    29.720702 
   12400    245.26833   -280.79404    229018.04   -21053.945    1624.5004   -22678.445   -602.76289    137.98184    78.603002    15.886109    29.708485 
   12600    242.48265    -365.3198    229018.04   -20984.396    1606.0499   -22590.446   -957.10668    137.74375    78.605105     15.88645    29.700619 
   12800    234.41725   -278.06396    229018.04   -21046.401    1552.6298   -22599.031   -613.97808    140.07123      78.6061      15.8864    29.703422 
   13000    237.47539   -315.92588    229018.04    -21077.79     1572.885   -22650.675   -762.44639    141.44357    78.607842    15.886308    29.694791 
   13200    244.47702   -231.86947    229018.04   -21032.414    1619.2593   -22651.673   -413.53645    144.03669    78.608365    15.885805    29.723428 
   13400    243.80033   -214.48403    229018.04   -20996.799    1614.7773   -22611.577   -351.42691    146.82391    78.607164      15.8845    29.713339 
   13600    241.78497   -324.40986    229018.04   -21028.886    1601.4289   -22630.314   -800.18599     147.1068    78.608379    15.886252    29.691829 
   13800    240.18933   -346.97967    229018.04   -21113.337    1590.8604   -22704.198   -860.86046    147.56016    78.608832    15.888871    29.671246 
   14000    244.53813   -263.63985    229018.04   -21115.084    1619.6641   -22734.748   -580.90405    147.76829    78.608094    15.889402     29.66421 
   14200    238.64303   -56.325655    229018.04   -21167.256    1580.6187   -22747.874    264.36173    148.23871    78.608454    15.888693    29.658855 
   14400    234.38157   -423.25783    229018.04   -21211.518    1552.3935   -22763.911   -1227.4154    151.29944    78.608277    15.890628    29.660325 
   14600    234.77858   -293.59946    229018.04   -21156.699     1555.023   -22711.722   -675.00406    152.83762     78.60737     15.89071    29.653825 
   14800     240.8409    -328.8854    229018.04   -21122.906     1595.176   -22718.082   -845.21192    154.03258    78.607296    15.890102    29.639674 
   15000    237.98602   -288.28932    229018.04   -21097.899    1576.2671   -22674.166   -635.16068    154.78086    78.605924    15.891682    29.641558 
   15200    239.41245   -238.60389    229018.04    -21166.14    1585.7148   -22751.855   -435.79962    157.52483    78.605405    15.891954    29.618307 
   15400    238.50666   -282.23218    229018.04   -21092.476    1579.7154   -22672.192   -608.52344    158.64714    78.603601    15.890923    29.616391 
   15600    236.34353   -447.37803    229018.04    -21141.46    1565.3882   -22706.848   -1277.3739    159.81142     78.60212    15.893576    29.605547 
   15800    248.88132   -151.60913    229018.04   -21070.393    1648.4305   -22718.824   -156.49238    160.53596    78.600153    15.891234    29.597848 
   16000    243.88847   -269.90974    229018.04   -21124.763    1615.3611   -22740.124   -550.61871    160.56858    78.601559    15.889526    29.605043 
   16200    247.38783   -213.06607    229018.04   -21064.918    1638.5386   -22703.457   -346.41811    160.86827    78.601777    15.890825    29.596014 
   16400    242.33283   -237.45506    229018.04   -21040.953    1605.0576    -22646.01   -504.46997    163.64903    78.601043    15.892895    29.583759 
   16600    241.59329    -413.3109    229018.04   -21120.334    1600.1593   -22720.494   -1107.0568    165.15624     78.60162    15.893438    29.584186 
   16800    245.02436   -186.29501    229018.04   -21110.468    1622.8845   -22733.352   -245.53594    166.40786    78.600247    15.892287    29.582357 
   17000    238.58412   -346.01566    229018.04   -21127.198    1580.2285   -22707.427   -842.81277     166.4994    78.600817    15.888031    29.577679 
   17200    236.24946   -353.59146    229018.04   -21154.753    1564.7652   -22719.518   -884.46685    169.27403    78.600808    15.886881    29.600143 
   17400     243.8326   -354.13979    229018.04    -21091.89    1614.9911   -22706.881    -899.7853    168.88458     78.60004    15.887943    29.613443 
   17600    244.71302    -240.4321    229018.04    -21032.64    1620.8224   -22653.462   -466.77477    168.20206    78.599457    15.885305    29.628307 
   17800    241.49458    -152.4785    229018.04   -21048.602    1599.5055   -22648.108   -99.800477    168.15597    78.598107    15.886089     29.66233 
   18000    240.18327   -228.50013    229018.04   -21039.274    1590.8202   -22630.094   -408.58588     170.1565    78.598864    15.884393    29.659682 
   18200     248.1892   -422.41289    229018.04   -21086.262    1643.8464   -22730.109    -1173.177    174.34409    78.600603    15.884961    29.663244 
   18400    232.02889   -254.36739    229018.04   -21107.229    1536.8109   -22644.039   -486.78067    176.97933    78.602889    15.884359    29.640021 
   18600    243.48719   -326.25322    229018.04   -21048.535    1612.7033   -22661.239   -806.51923    177.19766    78.603355    15.884395    29.640226 
   18800    239.05993   -374.87701    229018.04   -21058.352      1583.38   -22641.732   -998.81048    180.09065    78.601906    15.883865    29.645411 
   19000    241.13275    -314.1702    229018.04   -21074.257     1597.109   -22671.366   -736.15872     182.2277    78.603117    15.882895    29.630189 
   19200    233.25378   -285.96565    229018.04   -21072.032    1544.9238   -22616.956   -662.95961    182.87022    78.601644    15.881124    29.619398 
   19400    237.33919   -256.10479    229018.04   -21010.436    1571.9829   -22582.419   -531.63292    183.59896    78.603222    15.879564    29.616212 
   19600    239.92788   -210.49343    229018.04   -21063.837    1589.1287   -22652.966    -344.1986    185.50027    78.603456    15.879915    29.623191 
   19800    241.20419   -314.49496    229018.04   -21073.272    1597.5822   -22670.854   -769.97213    187.41597    78.604317    15.878079    29.626228 
   20000    240.08709   -298.24157    229018.04    -21103.98    1590.1832   -22694.164   -691.37185    189.50946    78.603469    15.876432    29.628232 
   20200    236.96779   -322.54076    229018.04   -21057.432     1569.523   -22626.955   -750.39759    191.56178    78.603744    15.876228    29.626794 
   20400    232.96497    -285.9022    229018.04   -21170.449    1543.0109    -22713.46    -638.7595    192.87547    78.604339    15.877747    29.626069 
   20600    236.91531   -129.08832    229018.04   -21113.813    1569.1754   -22682.988   -47.612908    193.94413    78.605255    15.875986    29.657125 
   20800     242.4049   -219.80395    229018.04   -21092.319    1605.5349   -22697.854   -345.04318    195.29003    78.604946    15.873376    29.631019 
   21000    242.48153   -332.57645    229018.04   -21105.383    1606.0425   -22711.426   -819.41223    196.95533    78.604054    15.873356    29.641382 
   21200    242.12132   -432.66997    229018.04    -21038.38    1603.6567   -22642.037    -1190.973    198.25902    78.603915    15.873776    29.629614 
   21400     236.9548   -203.33835    229018.04   -21126.335    1569.4369   -22695.772   -316.04381    197.60685     78.60485    15.871249    29.648895 
   21600    245.65507   -300.05275    229018.04   -21053.173    1627.0619   -22680.235   -706.63616    198.11453    78.605957    15.868431    29.641449 
   21800    242.45966   -283.16666    229018.04   -21098.568    1605.8976   -22704.466   -596.05747    202.61974     78.60788    15.868544    29.634684 
   22000    235.95832   -288.31572    229018.04   -21102.489    1562.8369   -22665.326   -642.38448    204.82428     78.60846    15.867081    29.637256 
   22200     242.3021   -331.45712    229018.04   -21098.287     1604.854   -22703.141   -817.81678     205.1715    78.609738    15.868633    29.651551 
   22400    238.43837   -297.33964    229018.04   -21155.008    1579.2631   -22734.272   -683.62789    207.87047    78.610142    15.869252    29.640127 
   22600    234.36892   -227.76293    229018.04   -21171.797    1552.3097   -22724.106   -446.87239    207.60552    78.609412    15.866055    29.641204 
   22800    237.90639   -357.24399    229018.04   -21115.845    1575.7397   -22691.585   -932.48596    209.48602    78.609076    15.866253     29.63206 
   23000    239.99348   -442.06707    229018.04   -21145.704    1589.5632   -22735.267   -1212.5635    210.38409     78.61108    15.863176    29.628327 
   23200    236.72477   -225.21097    229018.04    -21165.05    1567.9134   -22732.963    -370.2693    210.78757    78.610849    15.860157    29.607701 
   23400    236.93798   -485.35196    229018.04   -21073.265    1569.3255   -22642.591   -1413.0342    211.62898    78.610383    15.858367    29.629348 
   23600    234.12351   -254.34622    229018.04   -21174.741    1550.6843   -22725.425   -487.95767    215.12405    78.612126    15.857099    29.592648 
   23800    231.89193   -350.31187    229018.04   -21164.989    1535.9037   -22700.893   -865.26316    215.99256    78.613389    15.857219    29.595157 
   24000    237.95593   -270.57767    229018.04   -21089.999    1576.0678   -22666.066   -566.51316    216.30721    78.611894    15.858043    29.579706 
   24200    236.62584   -273.22652    229018.04   -21096.139    1567.2581   -22663.398   -614.81103    217.52263     78.61252    15.858053    29.569603 
   24400    235.32961   -158.44241    229018.04   -21013.627    1558.6727     -22572.3   -126.16379    218.98377    78.613724     15.85771    29.553254 
   24600    239.40111   -220.61134    229018.04   -21098.849    1585.6397   -22684.489   -397.48194    219.10266    78.613649    15.856476    29.532084 
   24800    238.44544   -235.98447    229018.04   -21107.394      1579.31   -22686.704    -428.6307    221.45569    78.612672    15.856453    29.535167 
   25000    241.74792   -275.79538    229018.04   -21060.924    1601.1835   -22662.108   -530.30795     222.9936    78.613352    15.855434    29.533665 
   25200    248.08188   -357.29669    229018.04   -21103.149    1643.1356   -22746.285   -863.91792    224.19521    78.611438    15.854422    29.549812 
   25400    232.81251   -132.48505    229018.04   -21136.128     1542.001   -22678.129   -47.477696    224.52273    78.608598    15.853555     29.52558 
   25600    241.11642   -62.232597    229018.04   -21096.177    1597.0009   -22693.178    246.90157    224.64933     78.60925     15.85061    29.516667 
   25800    239.41135   -391.42382    229018.04   -21127.254    1585.7075   -22712.961   -1051.3674    228.39449    78.609074    15.848805    29.534586 
   26000    238.61013   -192.65556    229018.04   -21184.651    1580.4008   -22765.052   -267.96006    228.71455    78.610508    15.848695    29.525491 
   26200    243.48877   -222.34945    229018.04   -21146.483    1612.7138   -22759.197   -381.25297    229.11543    78.610373    15.849003    29.527401 
   26400    228.57318   -329.36339    229018.04   -21214.637    1513.9224    -22728.56   -839.14296    230.92342     78.61211    15.850441    29.546893 
   26600    243.51064   -215.63656    229018.04    -21162.11    1612.8586   -22774.969   -333.52959    232.95499    78.613317     15.84974    29.546167 
   26800    242.20154   -380.68629    229018.04   -21090.128    1604.1879   -22694.316    -976.8186    234.60045    78.616285    15.849672    29.550074 
   27000    242.18273     -246.455    229018.04   -21075.334    1604.0634   -22679.398   -498.81927    236.03233    78.616283    15.850648    29.561019 
   27200    240.88522   -301.14562    229018.04   -20983.504    1595.4695   -22578.973   -646.97782    237.02784    78.616326     15.84701    29.541713 
   27400    241.26279   -240.05835    229018.04   -21082.668    1597.9703   -22680.638   -464.69329    236.99145    78.617031    15.847966    29.561601 
   27600     234.8358   -306.84283    229018.04   -21117.629     1555.402   -22673.031   -718.32779    238.08699    78.615642    15.848832    29.555709 
   27800    234.63246   -338.40745    229018.04   -21233.903    1554.0552   -22787.958   -814.32287    238.94761    78.615506    15.848887    29.559999 
   28000    234.51122   -291.64384    229018.04   -21181.931    1553.2522   -22735.184   -673.84797    239.90335    78.615963    15.850208    29.563373 
   28200    246.25114   -277.96022    229018.04   -21135.531      1631.01   -22766.541   -628.98608    243.09546    78.615592    15.854419     29.56076 
   28400    243.49571   -180.63628    229018.04   -21105.062    1612.7597   -22717.822   -234.42215    243.65882    78.615522    15.855919    29.548906 
   28600    239.27348   -447.91028    229018.04   -21115.147    1584.7944   -22699.941   -1251.0146    245.00962    78.614747    15.856803    29.547329 
   28800    237.05177   -271.24472    229018.04   -21199.907    1570.0792   -22769.986   -537.67243    249.17467    78.614303    15.856866     29.57335 
   29000    240.08399   -173.12411    229018.04   -21148.371    1590.1627   -22738.534   -233.89118    249.67852    78.614906    15.856284    29.577011 
   29200    243.73324   -369.62057    229018.04   -21181.926     1614.333   -22796.259   -918.03913    252.12082     78.61474    15.852259     29.57833 
   29400    240.09994   -295.85718    229018.04   -21154.692    1590.2683    -22744.96   -674.61984    254.01965    78.615601    15.850229    29.562591 
   29600    236.98904   -405.42926    229018.04   -21149.284    1569.6637   -22718.948   -1103.5399    255.48025    78.616745    15.850994    29.560295 
   29800    242.83949   -450.15917    229018.04   -21107.407    1608.4134    -22715.82   -1275.1951    255.41933    78.615591    15.850835    29.556232 
   30000    233.04843   -288.89578    229018.04   -21117.068    1543.5636   -22660.632   -634.25632    257.98011     78.61535    15.849748    29.556745 
   30200    233.86931   -390.97556    229018.04   -21152.076    1549.0006   -22701.076   -1037.2295    259.79932    78.617165     15.84985     29.56269 
   30400    237.03871   -189.31892    229018.04   -21163.702    1569.9927   -22733.695   -224.95492    259.34838    78.615769    15.851482    29.556456 
   30600    232.79623   -375.87828    229018.04   -21259.799    1541.8932   -22801.692   -985.03491    260.34204    78.615535    15.851607    29.567455 
   30800    239.67723   -221.31194    229018.04   -21168.632    1587.4686   -22756.101    -372.2398    261.60067    78.614812    15.852628    29.548851 
   31000    239.11015   -162.06858    229018.04   -21141.189    1583.7126   -22724.902   -77.727051    262.47127    78.615856    15.852695    29.540822 
   31200    243.32326    -376.8798    229018.04   -21093.648    1611.6175   -22705.265   -989.33502    263.84278    78.616581    15.852437    29.525724 
   31400    246.75298   -292.08652    229018.04   -21083.957    1634.3338   -22718.291    -648.6702    264.27045    78.615972    15.853164      29.5449 
   31600    246.36403   -382.59329    229018.04   -21062.919    1631.7576   -22694.676   -1002.6646    264.72568     78.61457    15.853052     29.53194 
   31800    243.13911    -127.2088    229018.04   -21105.536    1610.3978   -22715.934   -46.426787    266.99786    78.617585    15.855549    29.527871 
   32000    239.45656   -309.14624    229018.04   -21059.088     1586.007   -22645.095    -711.4467    271.45109    78.618821    15.855614    29.519785 
   32200    233.17538   -189.68395    229018.04    -21186.81    1544.4045   -22731.214    -229.1118    274.67147    78.622247    15.855072    29.508947 
   32400    234.93807   -330.82293    229018.04   -21176.465    1556.0794   -22732.544   -796.01194    277.37156    78.622654    15.854507    29.497313 
   32600    235.03683   -251.84374    229018.04   -21203.512    1556.7335   -22760.245   -474.49327    279.97957    78.621478    15.853397    29.501254 
   32800    234.27293    -358.5598    229018.04   -21180.652    1551.6739   -22732.326   -917.02658    281.28581    78.619536    15.852545    29.510739 
   33000    235.70218   -277.10208    229018.04   -21146.993    1561.1404   -22708.133   -550.19442    283.20062    78.621001     15.85111    29.489562 
   33200    237.98228   -253.55216    229018.04   -21161.187    1576.2423    -22737.43    -506.6752    281.75203    78.619833    15.851608    29.495968 
   33400    236.62557   -381.35574    229018.04   -21165.905    1567.2563   -22733.162   -989.94922    284.13657    78.622301    15.847418    29.471497 
   33600    234.70471   -278.49766    229018.04   -21256.052    1554.5338   -22810.586   -593.82668    282.99308    78.620359    15.844576    29.485433 
   33800    240.59866   -262.50766    229018.04   -21144.094    1593.5715   -22737.666   -544.89705    284.30115    78.621992    15.840485    29.480344 
   34000    230.95766   -85.285649    229018.04   -21186.846    1529.7157   -22716.562    155.90986    284.32146    78.623472    15.839181    29.483257 
   34200    240.00203   -338.62931    229018.04   -21164.004    1589.6199   -22753.624   -839.18608    287.75231    78.623383    15.839876    29.503703 
   34400    238.51182   -335.06186    229018.04   -21173.347    1579.7496   -22753.096   -866.49255    288.85504    78.623398    15.840745    29.488525 
   34600     239.4774   -502.44386    229018.04   -21107.874     1586.145   -22694.019   -1465.4424    290.90224    78.623505    15.842737    29.487068 
   34800    238.24152   -275.78162    229018.04   -21087.317    1577.9594   -22665.277   -595.28597    294.63997    78.624069    15.845424    29.504313 
   35000    246.50826   -243.43834    229018.04   -21070.858     1632.713   -22703.571    -428.6047    297.29089    78.625627    15.846366    29.491301 
   35200    239.41053   -357.53014    229018.04   -21092.704    1585.7021   -22678.406   -901.00083    297.17254    78.626724    15.846921    29.513417 
   35400    248.12411   -293.49191    229018.04   -21019.852    1643.4153   -22663.267   -660.22802    296.02494    78.625651    15.848464    29.512126 
   35600    234.20275   -474.76431    229018.04   -21139.037    1551.2091   -22690.246    -1339.164    295.64632     78.62508    15.847818    29.540225 
   35800    238.29598   -293.02098    229018.04    -21080.41      1578.32    -22658.73   -697.32452    296.22461     78.62383    15.846686    29.557932 
   36000    238.10202   -316.32796    229018.04    -21187.65    1577.0353   -22764.686   -738.59704    300.01756    78.622659    15.848022    29.581756 
   36200    234.39813   -148.24523    229018.04   -21211.435    1552.5032   -22763.938   -90.645479    301.55264    78.622624    15.846872     29.55849 
   36400    234.39044   -380.55723    229018.04   -21140.477    1552.4522    -22692.93   -1014.6798    302.91746    78.621469    15.848699    29.557517 
   36600    241.24079   -263.91893    229018.04    -21195.58    1597.8246   -22793.404   -518.96798    303.96664     78.62157    15.847414    29.545269 
   36800    238.65384   -341.34435    229018.04   -21189.875    1580.6903   -22770.565    -862.4002    305.64106    78.620186    15.849504     29.55422 
   37000    237.32705   -306.11088    229018.04   -21128.635    1571.9025   -22700.537   -653.65899      304.549    78.620913    15.851766     29.53119 
   37200    231.42731   -331.12673    229018.04    -21220.14    1532.8264   -22752.966   -793.31535    303.48901     78.62139    15.851575     29.52953 
   37400    241.49163   -227.08287    229018.04   -21177.426     1599.486   -22776.912   -379.26222    303.56119    78.621047    15.850832    29.552099 
   37600    243.50242   -344.03462    229018.04   -21110.172    1612.8042   -22722.976   -877.38896    304.27704    78.620661     15.85304    29.559495 
   37800    239.80813   -199.73127    229018.04   -21216.669    1588.3356   -22805.004   -291.30648    303.73884    78.621373     15.85302     29.55899 
   38000    241.31446   -204.16434    229018.04   -21117.398    1598.3125    -22715.71   -302.99995    303.70573    78.621642     15.85266     29.55818 
   38200    240.42226   -411.41274    229018.04   -21092.941    1592.4032   -22685.344   -1124.5197    306.79344    78.622827    15.852677    29.574861 
   38400    237.72635   -233.50363    229018.04   -21083.283    1574.5472    -22657.83   -401.90433    306.28727    78.623212     15.85213    29.580094 
   38600     238.2105   -214.55788    229018.04   -21087.361    1577.7539   -22665.114   -335.79052    304.44665    78.624344    15.850851    29.586231 
   38800     241.5227   -307.81862    229018.04   -21087.563    1599.6918   -22687.255    -732.5135    306.80284    78.626944     15.84967    29.583812 
   39000    241.43388   -98.258211    229018.04   -21037.303    1599.1035   -22636.406    103.52936    306.99627    78.627228    15.848573    29.597072 
   39200    234.78618   -235.98333    229018.04   -21165.812    1555.0734   -22720.885   -434.58141    307.14165    78.625966     15.84874    29.596993 
   39400    240.39243   -174.78095    229018.04   -21135.242    1592.2056   -22727.447   -170.19011    307.60846     78.62592    15.847029    29.595244 
   39600    243.57032   -385.00339    229018.04   -21152.246    1613.2539     -22765.5   -985.12413    311.36301    78.626636    15.845563    29.571153 
   39800    245.08422   -315.22979    229018.04   -20996.105     1623.281   -22619.386   -719.43151    310.27227    78.626063    15.845532    29.581301 
   40000    240.38403   -329.99742    229018.04   -21117.356    1592.1499   -22709.506   -760.79481    310.05514    78.624746     15.84393    29.559525 
   40200    234.03219   -155.00243    229018.04   -21204.903    1550.0794   -22754.983    -105.0981    309.07371    78.625268    15.843227    29.572733 
   40400    238.97731   -276.91922    229018.04   -21091.118    1582.8327   -22673.951   -614.41346    311.40722    78.625333    15.839447    29.572414 
   40600    232.37142   -239.57621    229018.04     -21215.1    1539.0796    -22754.18   -456.91957    312.14507    78.624365    15.841647    29.565028 
   40800     235.2003   -253.23114    229018.04   -21165.327    1557.8163   -22723.144   -515.25276    312.77712     78.62365    15.842015    29.564346 
   41000    239.96926   -272.30174    229018.04   -21099.655    1589.4028   -22689.058   -561.63984    312.08528    78.624849    15.839727    29.571434 
   41200    246.64722   -192.02778    229018.04   -21092.221    1633.6333   -22725.855   -285.82699    314.49418    78.625699    15.839546     29.59274 
   41400     240.3766   -322.54498    229018.04   -21119.168    1592.1007   -22711.268   -768.88837    316.71947    78.625534    15.840225    29.588504 
   41600    237.92056   -203.06565    229018.04   -21028.591    1575.8335   -22604.424   -270.28607    317.51216    78.627058    15.843049    29.571845 
   41800     236.7952   -322.65417    229018.04    -21102.61    1568.3798   -22670.989    -740.6536    317.96694    78.624986    15.844684     29.58951 
   42000    238.65832   -418.66801    229018.04   -21120.635      1580.72   -22701.355   -1119.4639    316.85921    78.624988    15.844983    29.571185 
   42200    240.45556   -400.07826    229018.04   -21090.784    1592.6238   -22683.408   -1096.4125    316.28922    78.623427    15.845376    29.549491 
   42400    238.51692   -328.32332    229018.04   -21097.531    1579.7834   -22677.314   -784.07226    316.79315    78.621641    15.843938    29.560146 
   42600    236.55303   -286.52565    229018.04     -21124.4    1566.7759   -22691.176   -649.18004    316.64335    78.619878    15.841931    29.567379 
   42800    245.52239   -193.76487    229018.04   -21027.919    1626.1832   -22654.102   -279.90016     317.1051    78.621701    15.842469     29.54334 
   43000    247.74724   -350.27898    229018.04    -20977.55    1640.9191   -22618.469   -874.82981    319.47388    78.623635    15.842206    29.540019 
   43200    234.98765   -263.17269    229018.04   -21027.378    1556.4078   -22583.785   -541.60975    320.65979    78.627235    15.842233    29.544099 
   43400    236.55924   -158.50546    229018.04   -21079.319     1566.817   -22646.136   -129.70543    321.55953    78.626577    15.838717    29.559462 
   43600     238.6142   -282.55586    229018.04   -21115.001    1580.4277   -22695.429   -614.71946    325.47355     78.62363    15.838048    29.536185 
   43800    241.83039   -224.49526    229018.04   -21078.915    1601.7297   -22680.644   -393.95714    328.12956    78.623184    15.836781    29.536708 
   44000    238.85388   -184.76438    229018.04   -21173.609    1582.0152   -22755.625   -218.72554    328.16393    78.623086    15.836709    29.563626 
   44200     241.7114   -379.07925    229018.04   -21108.533    1600.9416   -22709.474   -1021.1876    329.74883    78.621692    15.835917    29.595951 
   44400    243.02672   -41.941212    229018.04   -21089.656    1609.6534   -22699.309    320.56527    329.79474    78.622509     15.83655    29.596319 
   44600    242.99791    -269.8129    229018.04   -21113.093    1609.4626   -22722.556   -592.10754    331.28024    78.624178    15.838589    29.593071 
   44800      236.559   -197.94777    229018.04   -21133.416    1566.8154   -22700.231   -278.35066    332.90612     78.62348    15.837374    29.590655 
   45000    238.55521   -330.92701    229018.04   -21152.939     1580.037   -22732.976   -780.82639    333.74918    78.624167     15.83521    29.598401 
   45200    247.20955   -183.63144    229018.04   -21005.091    1637.3579   -22642.449    -255.0068    336.66685    78.623785    15.836113    29.592752 
   45400    250.21695   -277.49486    229018.04   -20967.388    1657.2769   -22624.665    -574.0519    337.76368    78.622762    15.840146    29.592371 
   45600    249.10811   -230.94991    229018.04   -21003.772    1649.9327   -22653.704   -389.31365    337.78589    78.622163    15.838502    29.596983 
   45800    236.38742   -359.95238    229018.04   -21072.882     1565.679   -22638.561   -899.06399    339.95732    78.622466    15.838484    29.575451 
   46000    239.44196   -203.15688    229018.04   -21078.564    1585.9103   -22664.474   -304.77058    340.44104     78.62301    15.841596    29.580783 
   46200    242.46871   -141.50955    229018.04   -21037.339    1605.9575   -22643.297   -62.990038    342.22996    78.621227    15.841116     29.59091 
   46400    246.93963   -283.23551    229018.04   -21065.151      1635.57   -22700.721   -609.19388    341.21253    78.622279     15.84209    29.595638 
   46600    243.80119     -261.851    229018.04   -21096.714     1614.783   -22711.497   -550.12195    341.75782     78.62053     15.84561    29.603757 
   46800     243.2944   -125.09024    229018.04    -21054.41    1611.4264   -22665.836    22.371916    341.91651    78.620464    15.847973    29.609479 
   47000    247.17825   -297.04705    229018.04   -21007.508    1637.1505   -22644.659   -680.64994    342.73261    78.620804    15.850581    29.607763 
   47200    239.90771   -198.54663    229018.04    -21089.16    1588.9951   -22678.155   -272.65105    345.31465    78.621661    15.852052    29.589123 
   47400    244.30257   -339.35497    229018.04   -21146.778    1618.1038   -22764.882   -824.27508    347.00984    78.621296    15.852244    29.590375 
   47600    243.86455   -327.26679    229018.04   -21098.607    1615.2027    -22713.81   -770.49642    347.97636    78.623599    15.853404    29.584935 
   47800    239.48888    -301.4024    229018.04   -21104.429    1586.2211    -22690.65   -686.65009    351.64989    78.625946    15.854314    29.592163 
   48000    243.58022   -207.07469    229018.04   -21127.146    1613.3195   -22740.465   -291.34629    352.51384    78.627226    15.851597    29.594303 
   48200    244.12149   -321.74243    229018.04   -21168.021    1616.9045   -22784.925   -746.59451    354.14845      78.6269    15.851487    29.597781 
   48400    237.66967   -215.35594    229018.04   -21215.884    1574.1718   -22790.056   -345.00142     354.7386    78.626561    15.849239    29.584164 
   48600    240.47322   -410.45291    229018.04   -21189.972    1592.7407   -22782.712   -1146.6092    357.11368    78.628958      15.8478    29.581826 
   48800    240.88051   -408.65914    229018.04   -21149.978    1595.4383   -22745.416   -1119.2052    358.43181    78.627622    15.848193    29.582142 
   49000    233.13373   -177.85952    229018.04   -21168.821    1544.1286    -22712.95   -221.29982    360.03189    78.628129    15.848412    29.581701 
   49200    235.90068   -281.06394    229018.04   -21145.486    1562.4551   -22707.941   -592.00271    361.94007      78.6296    15.850258    29.575457 
   49400    243.12131    -233.9357    229018.04   -21117.796    1610.2799   -22728.076   -398.29653    363.25022    78.629531    15.851314    29.585865 
   49600    235.41681   -260.24877    229018.04   -21117.092    1559.2503   -22676.343   -500.57193    364.03347    78.627226    15.853372    29.588393 
   49800    236.44775   -308.34362    229018.04   -21160.313    1566.0786   -22726.391   -721.45483    365.83612    78.626798    15.851967     29.58885 
   50000    234.98837   -346.25979    229018.04   -21111.077    1556.4126    -22667.49   -863.56589    367.19588    78.625877    15.852624    29.594128 
   50200    247.23615    -330.3668    229018.04   -21085.748     1637.534   -22723.282   -845.23105     367.7953     78.62526    15.851162    29.581448 
   50400    235.78435   -205.73488    229018.04   -21101.473    1561.6846   -22663.157   -330.65493    369.34854    78.626892    15.851283    29.592907 
   50600    237.91012   -268.53146    229018.04   -21167.564    1575.7644   -22743.329   -594.73554     370.9967    78.624949    15.851769     29.59683 
   50800    229.81164   -200.72107    229018.04   -21199.215    1522.1252    -22721.34   -324.65384    371.56526    78.625029    15.850539    29.583145 
   51000     245.6819   -301.41641    229018.04   -21168.531    1627.2397    -22795.77   -700.40501    374.26643    78.626502    15.850954    29.580463 
   51200     239.8195    -168.7533    229018.04   -21176.686    1588.4109   -22765.097   -181.49516    375.80816    78.627972    15.852993    29.576466 
   51400    237.81688   -355.21261    229018.04   -21211.702    1575.1468   -22786.849   -912.48404     375.8632     78.62736    15.852597    29.573681 
   51600    236.20899   -259.96486    229018.04   -21203.898    1564.4972   -22768.395   -560.27449    376.56258    78.629982    15.852954      29.5735 
   51800    243.01996   -237.47909    229018.04   -21150.913    1609.6087   -22760.522     -439.779    376.25916    78.628652    15.850731    29.583132 
   52000    241.05339   -279.39674    229018.04   -21119.685    1596.5833   -22716.268   -629.76216    378.89972    78.629343    15.852459    29.579587 
   52200    243.95797   -219.72412    229018.04   -21140.607    1615.8215   -22756.429   -335.13143    380.38695    78.630199    15.854746    29.569264 
   52400    242.82776    -311.3116    229018.04   -21170.416    1608.3356   -22778.751   -712.48377    381.18795    78.632039    15.852457    29.556146 
   52600    244.27923   -262.15208    229018.04     -21140.9    1617.9493   -22758.849   -532.70548    381.31264    78.632914    15.854008    29.557636 
   52800    241.52343   -92.366333    229018.04   -21246.908    1599.6966   -22846.605    102.55175    382.31649    78.631779    15.852201    29.572858 
   53000    242.46534   -361.95475    229018.04   -21227.604    1605.9352   -22833.539   -949.35216    385.38145    78.633759     15.85155    29.565423 
   53200    238.97832   -261.87171    229018.04   -21210.177    1582.8394   -22793.016    -546.0938    386.65715     78.63417    15.850493    29.559202 
   53400    241.61189   -218.23846    229018.04   -21189.887    1600.2825    -22790.17    -404.1688    386.49146    78.632288    15.850292    29.561405 
   53600    246.93244   -168.36002    229018.04   -21186.253    1635.5224   -22821.775   -149.32619    388.92662    78.633119    15.851513    29.532886 
   53800     235.4371    -388.1694    229018.04   -21201.565    1559.3847   -22760.949   -1005.4883    388.33654    78.632519    15.851409    29.528184 
   54000    244.94829   -311.15217    229018.04   -21081.933    1622.3807   -22704.313    -750.6575     387.4712    78.633358    15.849218    29.509631 
   54200     244.0365   -370.00465    229018.04   -21178.537    1616.3415   -22794.878   -966.14383    388.55565     78.63424    15.848972    29.508561 
   54400    241.11825   -309.41683    229018.04   -21221.811     1597.013   -22818.824   -780.24584    393.08214     78.63521    15.848922    29.511656 
   54600    237.38382   -311.40819    229018.04   -21138.196    1572.2785   -22710.474   -728.28916    393.53817    78.635645     15.84895     29.50965 
   54800    241.94127   -311.24513    229018.04   -21111.407    1602.4641   -22713.871   -700.52903    392.22423    78.635163    15.847332     29.51798 
   55000     236.7605   -352.73198    229018.04   -21128.073      1568.15   -22696.223   -897.96073    392.51703    78.634565    15.848633    29.509873 
   55200    242.79311   -363.36375    229018.04   -21111.529    1608.1061   -22719.635   -941.24538    393.24916    78.635661    15.847852    29.507887 
   55400     239.5961   -210.69133    229018.04   -21132.654    1586.9312   -22719.585   -327.35179    395.27296    78.637097    15.846845    29.496043 
   55600    239.65433   -319.04355    229018.04   -21115.289    1587.3169   -22702.606   -751.75942    397.49339    78.637971    15.849149    29.523767 
   55800    242.24657    -308.9301    229018.04   -21164.339    1604.4862   -22768.826    -740.8263    398.34912     78.63848    15.847503    29.539158 
   56000     242.9865   -393.41595    229018.04   -21162.605     1609.387   -22771.992   -1040.2858     398.8552    78.638406    15.847505    29.541978 
   56200    248.35044   -176.32716    229018.04   -21131.611    1644.9143   -22776.526   -185.30811    399.96647    78.636678    15.849517    29.536998 
   56400    246.58279   -367.00209    229018.04   -21117.997    1633.2066   -22751.203   -972.56989    400.09843    78.638467    15.847427    29.533766 
   56600    238.68907   -238.75191    229018.04    -21196.55    1580.9236   -22777.474   -433.71016    401.51579    78.639402    15.846451    29.546118 
   56800    243.31673   -266.92741    229018.04   -21208.799    1611.5743   -22820.373    -557.0973    401.14304    78.639333    15.846746     29.52193 
   57000    229.57143   -270.43212    229018.04   -21262.772    1520.5342   -22783.306   -566.15787     399.8298    78.637594    15.849429    29.520691 
   57200    233.78673   -198.25389    229018.04   -21233.749    1548.4537   -22782.202   -251.46856    401.47341    78.636712    15.849673    29.529116 
   57400    230.25209   -362.63521    229018.04   -21234.276    1525.0424   -22759.318   -929.64244    404.40334    78.637091    15.849077    29.524026 
   57600    236.58945   -275.75523    229018.04   -21119.492    1567.0171   -22686.509   -594.55728    406.09895    78.637333    15.850134    29.538215 
   57800    242.10206   -274.26773    229018.04   -21172.969    1603.5291   -22776.498   -585.54481    406.52545    78.636831    15.852527      29.5308 
   58000    239.17111   -313.85574    229018.04   -21153.482    1584.1164   -22737.599   -723.66465     407.6879    78.635543    15.853581    29.549144 
   58200    239.66677    -228.6562    229018.04   -21119.421    1587.3993   -22706.821   -379.70382    407.46893    78.633887    15.855911    29.571187 
   58400    240.93121   -282.82666    229018.04    -21199.04    1595.7741   -22794.814   -623.88204    408.29779    78.633858    15.856281     29.55698 
   58600     239.8485   -444.41532    229018.04   -21162.715    1588.6029   -22751.318   -1259.4068     408.1684    78.634951    15.857105    29.568819 
   58800    232.92522   -254.77519    229018.04   -21165.792    1542.7475    -22708.54   -512.97088    410.10969    78.635733    15.856311     29.55679 
   59000    237.79657   -256.56212    229018.04   -21167.933    1575.0123   -22742.945   -508.76599    410.38436    78.634439    15.858344    29.557272 
   59200    235.75657    -323.0263    229018.04   -21208.067    1561.5006   -22769.568   -760.62155    414.31387    78.634771     15.85895    29.563918 
   59400    238.49881   -239.15519    229018.04   -21186.501    1579.6635   -22766.164   -443.89175    416.03134    78.634448    15.861856      29.5792 
   59600    236.92936   -369.50473    229018.04   -21104.478    1569.2684   -22673.746   -969.92657    417.85913    78.633745      15.8629     29.57231 
   59800    246.33823    -364.6185    229018.04   -21081.303    1631.5867    -22712.89   -920.52957    416.73306    78.633843     15.86289    29.568987 
   60000    232.19948   -263.01969    229018.04   -21187.757    1537.9407   -22725.698   -528.86416    416.10958    78.632714    15.863532    29.568977 
   60200    243.87515   -345.24374    229018.04   -21115.406    1615.2729   -22730.679   -844.23826    417.03538    78.633801    15.862561    29.574624 
   60400     232.8738   -371.24935    229018.04   -21184.193     1542.407     -22726.6   -959.70513    415.65009    78.635276    15.861806    29.568136 
   60600     236.7401   -428.58967    229018.04   -21182.721    1568.0149   -22750.736   -1167.9486     418.0263     78.63622    15.860397    29.568194 
   60800    232.06429   -314.72274    229018.04   -21199.584    1537.0453    -22736.63   -760.96993    419.57569    78.636111    15.857003     29.58142 
   61000    231.74367   -412.15794    229018.04   -21173.493    1534.9217   -22708.415   -1128.9544     421.7874    78.634079    15.858618    29.593363 
   61200    236.03391   -273.37721    229018.04   -21267.584    1563.3375   -22830.922   -585.76888    422.28917    78.631272    15.859868     29.60499 
   61400    236.00759   -431.53197    229018.04   -21165.377    1563.1632    -22728.54   -1177.0111    425.63309    78.630651    15.859752    29.605733 
   61600    238.53152     -417.117    229018.04   -21112.043    1579.8801   -22691.923   -1120.9486     425.8849    78.630447    15.861075     29.61377 
   61800    247.24312   -339.12355    229018.04   -21054.325    1637.5801   -22691.905   -835.59853     427.1635    78.631268    15.861074    29.610236 
   62000    233.77479   -280.27547    229018.04   -21108.096    1548.3745    -22656.47   -615.78459    427.42785    78.629912    15.862747    29.595517 
   62200    241.06392   -407.73847    229018.04   -21038.451    1596.6531   -22635.104   -1091.8806     431.2689    78.627135     15.86544    29.575071 
   62400    246.14095     -252.485    229018.04   -20999.655    1630.2801   -22629.935   -492.78237    431.84914    78.627878    15.863607    29.580003 
   62600    239.84809   -192.41706    229018.04   -21059.689    1588.6002    -22648.29   -253.24595    433.00677    78.627596    15.863684    29.586679 
   62800    240.92378   -295.72894    229018.04   -21117.567    1595.7249   -22713.292   -612.24227    435.77456    78.628279    15.859642     29.57647 
   63000    244.93671   -326.18014    229018.04   -21138.624     1622.304   -22760.928   -759.16494    437.25503    78.628896    15.858384    29.572756 
   63200    229.18913   -246.74347    229018.04   -21230.718    1518.0021    -22748.72   -450.30599    437.32794    78.627659    15.859764    29.585276 
   63400    238.00761   -506.87877    229018.04    -21132.83    1576.4101    -22709.24   -1513.8518     439.0031    78.628436    15.861118    29.586893 
   63600    239.92293   -341.88627    229018.04   -21184.637    1589.0959   -22773.732   -849.79733    438.12614    78.627341     15.86455    29.558535 
   63800    239.84492   -158.79758    229018.04   -21114.306    1588.5792   -22702.885    -121.0415    437.32454    78.627508    15.865872      29.5371 
   64000    238.96123    -253.7066    229018.04    -21157.76    1582.7262   -22740.486     -525.257    438.96561    78.625999    15.868182    29.517948 
   64200    238.71183   -241.84987    229018.04   -21128.851    1581.0743   -22709.925   -475.09823    442.04907    78.624898    15.870492    29.494965 
   64400    238.50076   -321.64378    229018.04    -21121.24    1579.6764   -22700.916   -775.10269    442.20054    78.625487    15.870871    29.487585 
   64600    236.13654   -341.19919    229018.04   -21149.601    1564.0173   -22713.618   -916.02258    442.96542    78.628787    15.870414    29.490896 
   64800    241.34657   -260.01272    229018.04   -21077.281    1598.5252   -22675.807   -531.24947    445.62625    78.629044    15.869902    29.480961 
   65000    238.00444   -119.26384    229018.04   -21159.231    1576.3891    -22735.62     30.54897    443.50935    78.629791    15.870847    29.483784 
   65200    235.56746   -224.07712    229018.04   -21139.325    1560.2481   -22699.573   -378.41254    444.04204    78.631144     15.86975    29.474494 
   65400    247.96405    -432.6436    229018.04   -21023.529    1642.3552   -22665.884   -1177.6247     445.5955    78.630958    15.867505    29.455212 
   65600    240.51173   -278.69628    229018.04   -21027.794    1592.9958    -22620.79   -625.17375    445.89704    78.630953    15.866654    29.451703 
   65800    237.57699   -400.48593    229018.04   -21094.871    1573.5579   -22668.429   -1061.5077     448.6572    78.631935    15.867196    29.446521 
   66000    231.09886   -239.46004    229018.04   -21155.504    1530.6509   -22686.155   -492.85314    450.60262    78.631743    15.869335    29.445224 
   66200    248.64799   -238.57373    229018.04   -21081.954    1646.8851   -22728.839   -496.90813    450.93307    78.632422    15.866009    29.454391 
   66400    240.01247   -354.78204    229018.04   -21151.981     1589.689    -22741.67   -910.45722    453.09155    78.632929    15.863468    29.442592 
   66600    240.29955   -310.16276    229018.04   -21095.444    1591.5904   -22687.034   -721.20003    453.78424    78.631631    15.860222    29.443481 
   66800    232.27236   -120.14828    229018.04   -21204.062    1538.4234   -22742.485     7.141058    454.87692    78.633289     15.85986     29.43219 
   67000    236.80778   -239.08644    229018.04   -21129.972    1568.4632   -22698.435   -457.25107     456.1631    78.633959    15.858758    29.442118 
   67200    233.33931   -254.24188    229018.04   -21153.703    1545.4902   -22699.193   -479.24555    456.97162    78.633365    15.856887    29.410742 
   67400    244.37335    -202.1512    229018.04   -21078.041    1618.5726   -22696.613   -299.66046    459.12803    78.635256    15.856702    29.384513 
   67600     237.2218   -447.20776    229018.04    -21107.76    1571.2053   -22678.966   -1252.3958    460.41005    78.633929    15.856069    29.374442 
   67800    234.97589   -269.50008    229018.04   -21090.193    1556.3299   -22646.522   -548.23103      459.674    78.634486    15.854373     29.37296 
   68000     241.2556   -287.61094    229018.04   -21101.417    1597.9227    -22699.34   -612.12708    462.50371    78.633389    15.855962     29.38314 
   68200     237.2353    -209.9777    229018.04   -21117.476    1571.2948   -22688.771   -316.97485    463.21524    78.634738    15.853498    29.389086 
   68400    254.51649   -125.25984    229018.04   -21006.764    1685.7543   -22692.518   -6.5199775    463.70041    78.634866    15.853327     29.41155 
   68600    245.82646   -71.841819    229018.04   -21023.775    1628.1971   -22651.972    209.21725    465.24175    78.632988     15.85299    29.405974 
   68800      246.184   -419.04715    229018.04   -21015.248    1630.5652   -22645.813   -1158.4959    468.18442    78.633112    15.854492    29.391156 
   69000    245.11317   -226.48119    229018.04   -21022.965    1623.4728   -22646.438   -398.96488     469.0479    78.633353     15.85465    29.367412 
   69200    238.84515   -283.97638    229018.04   -21075.246    1581.9574   -22657.203   -609.53082    469.73425    78.634635    15.856941    29.395065 
   69400    244.35757   -228.09914    229018.04   -21051.068    1618.4681   -22669.536   -396.80915    470.47915    78.633726    15.856589    29.408844 
   69600    241.22219   -491.01677    229018.04   -21090.057    1597.7014   -22687.759   -1448.6144    472.44738     78.63332     15.85889    29.408746 
   69800    241.77119   -341.92934    229018.04   -21077.362    1601.3376   -22678.699   -853.17922    474.89624    78.631602    15.861482    29.417957 
   70000    233.43975   -263.83724    229018.04   -21116.957    1546.1555   -22663.112   -541.07307    475.79785    78.631277    15.865813    29.388093 
   70200    238.69059   -345.31903    229018.04   -21104.856    1580.9337   -22685.789   -825.91305    479.20466    78.632456    15.867874    29.380248 
   70400    243.46081   -151.95101    229018.04   -21126.864    1612.5285   -22739.393   -96.678376    479.03069    78.630966    15.871771    29.369993 
   70600     244.0839   -97.173948    229018.04   -21120.003    1616.6555   -22736.658    129.12243    479.17916    78.631009    15.871585     29.38447 
   70800    237.57642   -367.86975    229018.04   -21159.567    1573.5542   -22733.121   -926.21324    480.93595    78.630044    15.872731    29.393085 
   71000    241.04851   -266.87434    229018.04   -21102.864     1596.551   -22699.415   -577.90821    480.59977    78.629073    15.872098    29.392894 
   71200    249.43168    -168.1518    229018.04   -20965.095    1652.0758   -22617.171     -138.941    480.63929    78.630007     15.86912    29.401182 
   71400    237.59277   -227.43643    229018.04   -21011.672    1573.6624   -22585.335   -384.13106    482.60844    78.627018    15.869505    29.424857 
   71600    237.82859   -418.04834    229018.04   -21032.936    1575.2244    -22608.16   -1127.7139    485.59656    78.625791    15.871775    29.446939 
   71800    241.38692   -335.86135    229018.04   -21067.052    1598.7924   -22665.844    -840.1202    487.03493    78.627828    15.872391    29.417882 
   72000    235.41734   -545.28836    229018.04   -21119.129    1559.2538   -22678.383   -1668.6412    488.97856    78.628481    15.873961    29.423624 
   72200    240.96497   -116.12188    229018.04   -21122.031    1595.9977   -22718.029   -31.832397    491.10643    78.626921    15.876072    29.423628 
   72400    240.19118   -441.67532    229018.04   -21076.099    1590.8727   -22666.971   -1271.5912    494.26132    78.626489    15.878927     29.43141 
   72600    238.87446   -347.43714    229018.04    -21099.03    1582.1515   -22681.181   -846.77736    496.32907    78.625365    15.880639    29.418588 
   72800    241.61617   -340.27772    229018.04   -21120.525    1600.3109   -22720.836   -828.24322     496.5095    78.626123    15.883082    29.414408 
   73000    235.16605   -175.80185    229018.04   -21130.696    1557.5894   -22688.286    -237.1571    498.53806    78.625878     15.88342     29.42725 
   73200    249.54792   -247.65785    229018.04   -21029.793    1652.8457   -22682.639   -516.41907    502.46011    78.627812    15.885942    29.467926 
   73400    239.92384   -278.31674    229018.04   -21042.553    1589.1019   -22631.655   -618.12251    503.52674    78.629733    15.889522    29.480228 
   73600    241.32205   -296.22821    229018.04   -21053.004    1598.3628   -22651.367   -677.67796    503.63225    78.631416    15.892788    29.481524 
   73800     247.9655   -309.58401    229018.04   -21022.985    1642.3648   -22665.349   -731.48965    502.59566    78.632325    15.892452    29.469314 
   74000    247.33749   -283.68168    229018.04   -20996.673    1638.2052   -22634.878   -629.66365    504.21545    78.634709    15.893049    29.450377 
   74200    239.06602   -338.74046    229018.04   -21102.546    1583.4203   -22685.966   -877.87059     505.5715    78.634104    15.893134    29.417388 
   74400    238.07387   -112.59967    229018.04   -21122.037    1576.8489   -22698.886    42.256232    506.56762    78.633435    15.894055    29.439463 
   74600    237.23114   -422.04981    229018.04   -21130.174    1571.2672   -22701.441   -1149.8316    508.21267    78.634319    15.893235     29.45682 
   74800     237.1036   -343.19417    229018.04   -21083.669    1570.4225   -22654.091   -872.53431    505.24009    78.632675    15.893476    29.444562 
   75000     235.4328   -332.47935    229018.04   -21089.437    1559.3562   -22648.793   -748.97815    505.43797    78.632233    15.893864    29.462606 
   75200    237.99089   -134.20555    229018.04   -21074.584    1576.2993   -22650.883   -2.3240399    504.80078    78.632703    15.894082    29.487563 
   75400     244.0728   -245.68967    229018.04   -21025.344     1616.582   -22641.926   -461.68466    506.56373    78.633639    15.894498    29.487485 
   75600    239.30204   -356.29081    229018.04   -21074.308    1584.9836   -22659.292   -915.56476    509.63732     78.63427     15.89794    29.509369 
   75800    241.25691   -136.15971    229018.04   -21135.107    1597.9313   -22733.038    -44.14136    510.06859    78.634893     15.89921    29.520625 
   76000    240.68284   -358.24971    229018.04    -21123.55    1594.1291   -22717.679   -884.99242    513.26377     78.63533    15.898573     29.51969 
   76200    234.27838   -263.51403    229018.04   -21154.349      1551.71   -22706.059    -559.5603    515.84404    78.633462    15.900787    29.528469 
   76400    237.55241   -478.21681    229018.04   -21180.408    1573.3951   -22753.803   -1363.3967    516.17266    78.635567     15.89966    29.547356 
   76600    238.70448   -134.60726    229018.04   -21112.905    1581.0257   -22693.931    -42.48119    515.28381    78.636429    15.899597    29.561627 
   76800    243.28847   -267.11435    229018.04   -21031.474    1611.3871   -22642.861   -602.83403    517.51239    78.636826    15.898114    29.553697 
   77000    240.40257   -255.93678    229018.04   -21114.546    1592.2728   -22706.819   -551.83525    516.95643    78.635213    15.897012    29.541955 
   77200     244.0482   -252.23677    229018.04   -21085.191    1616.4191    -22701.61   -494.57395    517.88488    78.636967    15.896731      29.5359 
   77400    240.27717   -416.93114    229018.04   -21090.004    1591.4422   -22681.446   -1140.0821    516.95487    78.635492    15.895249    29.539777 
   77600    237.63962   -110.59936    229018.04   -21078.022    1573.9727   -22651.995    38.178335    516.24626    78.635996    15.896743    29.537516 
   77800    243.10364   -154.44035    229018.04   -21109.265    1610.1629   -22719.428   -120.12191    517.26697    78.637216    15.896158    29.536346 
   78000    240.55516   -347.70617    229018.04   -21116.405    1593.2834   -22709.688   -896.34074    520.15294    78.637433    15.897589    29.539806 
   78200    240.39339   -372.00602    229018.04   -21021.374    1592.2119   -22613.586   -949.15652    521.53081     78.63849    15.896386    29.505215 
   78400    240.12627   -343.26807    229018.04   -21028.187    1590.4427    -22618.63   -823.66083     521.1951    78.639378    15.894964    29.484531 
   78600    241.30643   -181.42135    229018.04   -21120.833    1598.2594   -22719.093   -236.14671    521.11229    78.641156    15.897656    29.493028 
   78800    239.18276   -288.14742    229018.04   -21102.066    1584.1935    -22686.26   -634.07819    519.73113    78.642571    15.896718    29.507913 
   79000    239.10206   -222.48135    229018.04   -21078.251     1583.659    -22661.91   -391.73014    522.04058    78.643187    15.896766    29.521313 
   79200    240.43527    -182.6399    229018.04   -21070.877    1592.4893   -22663.366   -241.36438    521.01887    78.642831    15.894086    29.534569 
   79400    235.21965   -489.69785    229018.04   -21140.814    1557.9444   -22698.758   -1461.7205    523.24372    78.643463     15.89574    29.528147 
   79600    240.18435   -411.71992    229018.04    -21121.12    1590.8274   -22711.948   -1119.7669    524.79376    78.642949    15.893028    29.538852 
   79800    241.54707   -240.86115    229018.04   -21093.592    1599.8532   -22693.445   -444.37733    526.09028    78.642123    15.890419    29.525024 
   80000    244.22179   -410.03699    229018.04   -21138.312    1617.5688   -22755.881   -1116.8234    527.58726    78.640245    15.888002    29.505003 
   80200    236.90668   -277.92908    229018.04   -21108.259    1569.1182   -22677.377   -562.91635    528.83709    78.639683    15.888977    29.494134 
   80400    233.06342   -361.49969    229018.04   -21194.475    1543.6629   -22738.138   -934.17138    530.64534     78.64046    15.888657    29.488129 
   80600    244.25743   -243.87079    229018.04   -21008.751    1617.8048   -22626.556    -474.1787    532.11672    78.641262    15.889744     29.48871 
   80800    234.63035   -537.86931    229018.04   -21101.135    1554.0413   -22655.176   -1608.0021    532.59755    78.640347    15.888839    29.498821 
   81000    245.12952   -349.79738    229018.04   -21047.228    1623.5811   -22670.809   -855.74468    533.31946    78.642286    15.888083    29.490405 
   81200    247.52198   -330.67816    229018.04    -21061.65    1639.4272   -22701.077   -801.79345    534.84732    78.642601    15.884173    29.500493 
   81400    243.93367   -466.43027    229018.04   -21153.876    1615.6605   -22769.536   -1357.2458    535.94281     78.64258    15.880887    29.514745 
   81600     247.9767   -99.516701    229018.04   -21026.927    1642.4389   -22669.366    69.162378    535.60579     78.64437    15.879409    29.530896 
   81800     237.6276   -356.22951    229018.04   -21021.714    1573.8931   -22595.607   -928.53127    537.41207    78.646389    15.875934    29.519579 
   82000    245.84884   -213.11616    229018.04   -20979.187    1628.3454   -22607.532   -330.83734     536.6861    78.647962    15.876708    29.528906 
   82200    239.43999   -219.72918    229018.04   -21072.084    1585.8972   -22657.981   -391.53103    535.94482    78.647927    15.875828    29.528217 
   82400    238.37229   -248.71394    229018.04   -21083.803    1578.8255   -22662.629   -498.16236      537.858    78.647224    15.876477    29.535509 
   82600    243.53847   -281.13749    229018.04   -21059.109    1613.0429   -22672.152   -612.89307    538.95788    78.646862    15.875007    29.528476 
   82800    244.00528   -355.47624    229018.04   -21033.271    1616.1348   -22649.406   -937.07587    539.88768     78.64678     15.87562    29.535161 
   83000    232.04959   -130.93807    229018.04   -21070.311     1536.948   -22607.259    -47.24596    541.27882     78.64712    15.873241    29.510381 
   83200    242.64981   -304.98876    229018.04   -21072.273    1607.1571   -22679.431   -746.19515    542.72121    78.648984    15.873067    29.499693 
   83400     242.1073   -260.88993    229018.04   -21119.681    1603.5638   -22723.244    -583.8236    544.59284    78.649408    15.874984    29.490272 
   83600    239.36155   -51.410736    229018.04   -21071.102    1585.3777   -22656.479    232.19574    545.97424    78.650215    15.876279     29.47996 
   83800    237.32972    -389.3982    229018.04   -21112.384    1571.9201   -22684.305   -1027.0303    547.71775    78.647794    15.875112    29.497742 
   84000    238.72186   -330.37635    229018.04   -21109.568    1581.1408   -22690.709   -840.38138    546.83019    78.643033    15.873748     29.48678 
   84200    236.16469   -196.58664    229018.04   -21127.556    1564.2037   -22691.759   -272.80039    548.90117    78.641153    15.874302    29.479833 
   84400    241.11062   -196.14379    229018.04   -21044.455    1596.9624   -22641.418    -288.8129    548.07284    78.639826    15.873377    29.501318 
   84600    242.22802   -391.18361    229018.04   -21069.596    1604.3634   -22673.959   -1017.3725    550.02943    78.637723     15.87152    29.506688 
   84800    236.99781   -312.95645    229018.04   -21182.507    1569.7218   -22752.228   -734.62756    552.57344    78.635984    15.870979    29.518818 
   85000    237.83278   -318.44589    229018.04   -21138.998    1575.2521    -22714.25   -797.45786    554.17983    78.632755    15.870128    29.539771 
   85200    244.14146    -158.8579    229018.04   -21074.279    1617.0368   -22691.315   -166.86335    554.60538    78.629518    15.869188     29.53105 
   85400    238.10725   -237.62836    229018.04   -21121.663      1577.07   -22698.733   -465.49103    556.86714    78.629083    15.868192    29.520278 
   85600    235.81943   -121.79294    229018.04   -21088.359     1561.917   -22650.276  -0.75706666    557.35749    78.628782    15.867655    29.506189 
   85800    241.96678   -261.61818    229018.04   -21079.516    1602.6331   -22682.149    -544.2386    559.44175    78.629945    15.867209    29.497031 
   86000    237.63191   -358.39833    229018.04   -21048.533    1573.9217   -22622.455   -930.96215     559.6519    78.627646    15.866411    29.510428 
   86200    241.58746    -433.6993    229018.04   -21093.056    1600.1207   -22693.176   -1197.4642    562.04198    78.628288     15.86604    29.520606 
   86400    237.90654   -254.79751    229018.04   -21104.847    1575.7406   -22680.588   -552.80776    560.24599    78.626184    15.868833    29.526094 
   86600    243.43835   -283.61177    229018.04   -21059.401    1612.3798    -22671.78   -644.31945    562.17418    78.625762    15.867912    29.521026 
   86800    242.15362   -224.09168    229018.04   -21111.464    1603.8706   -22715.335     -355.085    565.19566    78.626933    15.866831    29.538879 
   87000      240.766    -199.8303    229018.04   -21135.194    1594.6798   -22729.874   -293.08733    569.60373    78.628028    15.866921     29.53593 
   87200    239.24091   -423.29951    229018.04   -21103.867    1584.5787   -22688.446   -1184.3689    571.99648    78.628114    15.866855    29.528166 
   87400    236.84429   -309.81271    229018.04   -21115.731     1568.705   -22684.436   -736.47685     575.1454    78.629148    15.866573    29.529436 
   87600    239.28813   -158.23171    229018.04   -21079.562    1584.8914   -22664.454   -154.63784    575.58108    78.629478    15.864992    29.513464 
   87800    229.78622   -284.49453    229018.04   -21195.578    1521.9568   -22717.534   -665.83451    578.73399    78.629365    15.866312    29.526611 
   88000    245.45022   -166.25693    229018.04   -21047.554    1625.7051    -22673.26   -164.62961    580.51421    78.630457    15.867116    29.537536 
   88200    246.08796     -117.552    229018.04   -21036.012    1629.9291   -22665.941   -4.6636919    582.40686    78.630796    15.868631    29.536166 
   88400    244.09488   -286.05127    229018.04   -21095.648    1616.7282   -22712.376   -673.03662    581.80752    78.629858     15.86797    29.533963 
   88600    230.66696   -291.01063    229018.04   -21172.309    1527.7903     -22700.1   -639.68902    584.29229    78.631637     15.86784    29.539833 
   88800     229.6867   -331.89315    229018.04   -21162.255    1521.2977   -22683.553   -799.68163    587.77685    78.632432     15.86934    29.524314 
   89000    230.14212   -176.60626    229018.04   -21220.905    1524.3141   -22745.219   -229.98014    586.95469    78.630882    15.869726    29.549255 
   89200    235.50992   -399.23362    229018.04   -21155.464     1559.867   -22715.331   -1077.5139    588.77479    78.631265    15.870236    29.563494 
   89400    242.33087   -212.05418    229018.04   -21099.412    1605.0446   -22704.457   -346.54925    588.85642    78.631098    15.873367    29.566656 
   89600    237.74864   -241.20535    229018.04   -21204.204    1574.6948   -22778.899     -483.571    592.56973    78.630368    15.877473    29.550863 
   89800    245.99173   -307.31638    229018.04   -21160.645    1629.2918   -22789.937   -722.86243    593.91193    78.631421    15.880216    29.573181 
   90000    240.91479    -443.5339    229018.04   -21112.793    1595.6654   -22708.459   -1255.1981     596.4263    78.631864    15.880727    29.583366 
   90200    239.84732   -365.83335    229018.04   -21147.572    1588.5951   -22736.167   -944.25984    599.14411    78.631307    15.882762    29.592582 
   90400    234.05196   -353.89666    229018.04   -21177.648    1550.2104   -22727.858   -938.62604    599.34104    78.632959    15.883619    29.594112 
   90600    232.42141   -161.63617    229018.04   -21190.973    1539.4107   -22730.384   -134.25813    598.44086    78.632246    15.885819    29.609267 
   90800    250.03934    -310.4223    229018.04   -21085.295    1656.1005   -22741.395     -719.064    600.17063    78.631579    15.889272    29.617898 
   91000    240.04859   -395.66631    229018.04   -21188.295    1589.9282   -22778.223   -1067.0934    601.84435    78.629811    15.891487    29.616835 
   91200    238.36347   -170.80708    229018.04   -21230.591    1578.7671   -22809.358   -170.63788    600.44688    78.629838    15.890537    29.636629 
   91400    236.33199    -191.7802    229018.04   -21176.468    1565.3118    -22741.78   -259.06285    599.16839    78.630278    15.890146    29.643954 
   91600    242.89122   -527.02778    229018.04   -21130.249     1608.756   -22739.005   -1560.4094    600.80207    78.630672    15.890326    29.660682 
   91800    238.60751   -175.12012    229018.04   -21111.271    1580.3834   -22691.654   -179.46037    601.74255    78.629752    15.891222    29.647676 
   92000    240.57668   -343.40979    229018.04    -21171.32    1593.4259   -22764.746     -848.524    604.02906     78.63059    15.895004    29.643114 
   92200    244.65125    -231.9918    229018.04   -21154.857    1620.4133    -22775.27   -441.27772     604.7817    78.629618    15.895576    29.656322 
   92400    238.79178   -447.10612    229018.04   -21088.418    1581.6039   -22670.022   -1274.8711    607.01185    78.629218    15.894964    29.635572 
   92600    241.55642   -218.01416    229018.04   -21056.013    1599.9151   -22655.928   -401.49739    606.38304    78.628558    15.895494    29.626978 
   92800    234.03114   -383.84722    229018.04   -21144.692    1550.0725   -22694.765   -1015.1067    606.61228    78.629907     15.89483    29.610589 
   93000    236.65048   -389.33423    229018.04   -21185.809    1567.4213    -22753.23   -1005.9751    607.94635    78.631619    15.896025    29.587273 
   93200    245.37731   -244.09534    229018.04   -21091.131    1625.2222   -22716.353   -492.47688    609.80279    78.631332    15.895045     29.58819 
   93400    235.49662   -373.81427    229018.04   -21174.536    1559.7789   -22734.315   -1000.8987    611.13636    78.632003    15.897238    29.603265 
   93600     240.9696   -372.37928    229018.04   -21157.452    1596.0284   -22753.481   -1023.2192     612.3699    78.631664    15.896779    29.598375 
   93800    245.65257   -369.69506    229018.04   -21096.947    1627.0454   -22723.993   -974.86692    612.81236    78.631003    15.899458    29.608597 
   94000    240.04183    -288.5547    229018.04   -21127.355    1589.8834   -22717.238   -629.77843    610.36785    78.631582    15.898222    29.595892 
   94200    233.41361   -429.36879    229018.04   -21136.033    1545.9823   -22682.016   -1189.5976    611.99067    78.631104    15.898111    29.614829 
   94400    240.40705   -307.49813    229018.04   -21067.403    1592.3024   -22659.706   -739.37988    612.84303    78.631331    15.897418    29.619884 
   94600    240.66935   -208.53804    229018.04   -21142.793    1594.0397   -22736.833   -340.23003    613.63787    78.632245    15.897726    29.630791 
   94800    245.20707   -218.93888    229018.04   -21073.509    1624.0947   -22697.603   -381.02817    615.57809     78.63115    15.896529    29.626501 
   95000    242.80574   -432.64596    229018.04   -21049.072    1608.1898   -22657.262   -1183.8845    616.69984    78.631458    15.898243    29.627148 
   95200    234.37035   -291.73571    229018.04    -21165.26    1552.3192    -22717.58   -656.90065    616.00877    78.631574    15.898765    29.628132 
   95400    233.32782   -196.43916    229018.04   -21154.377    1545.4141   -22699.791   -275.71186     621.8058    78.631122    15.898649    29.611899 
   95600    239.38926   -379.42096    229018.04   -21131.598    1585.5612   -22717.159   -992.60019    623.95474    78.630815    15.898534    29.609058 
   95800    237.06583   -397.20106    229018.04    -21085.99    1570.1723   -22656.162    -1081.021    623.13083    78.632412    15.896156    29.619794 
   96000    236.54046   -273.60787    229018.04   -21155.008    1566.6926   -22721.701   -584.09112    623.97531     78.63265    15.896788    29.637939 
   96200    236.52869   -380.67575    229018.04   -21190.974    1566.6147   -22757.589   -982.33606     625.5405    78.633348    15.897608    29.627351 
   96400    233.39539   -189.19977    229018.04   -21057.003    1545.8617   -22602.864    -287.5681    623.69016    78.633764    15.898355    29.630267 
   96600    232.13555    -497.9732    229018.04   -21137.982    1537.5173     -22675.5   -1478.9624     624.7527    78.635338    15.898018    29.617124 
   96800    233.11806   -427.58205    229018.04   -21122.445    1544.0248   -22666.469   -1190.9429    628.07548    78.636993    15.898908     29.58742 
   97000    238.70817   -244.14253    229018.04   -21106.736    1581.0501   -22687.786   -486.77123    627.87897     78.63856    15.895357     29.57846 
   97200    240.15798   -248.33957    229018.04   -21062.016    1590.6528   -22652.669   -463.85304    629.32652    78.639412    15.895536     29.54685 
   97400    246.03151   -201.08832    229018.04   -21077.579    1629.5553   -22707.135   -319.90601    629.33927    78.639236    15.893518    29.557117 
   97600      238.576   -139.73849    229018.04   -21099.528    1580.1747   -22679.702   -89.260362    629.32374    78.637929    15.893968    29.554627 
   97800    236.36626   -248.84725    229018.04   -21135.549    1565.5388   -22701.088   -508.27481    629.67232    78.637679    15.896829    29.544393 
   98000    225.19926   -327.14303    229018.04   -21224.827    1491.5757   -22716.403   -799.83813    631.59613    78.636707    15.899567    29.561371 
   98200     231.4702   -203.30586    229018.04   -21212.313    1533.1104   -22745.423    -334.9091    632.42631    78.638209    15.900009    29.556649 
   98400    238.09053   -310.27005    229018.04   -21159.981    1576.9593    -22736.94   -697.87766    631.65754    78.638502    15.899193    29.553691 
   98600    241.33159   -399.03699    229018.04   -21118.408     1598.426   -22716.834   -1082.5871    634.78946    78.640426    15.898227    29.573466 
   98800    247.62216   -247.04489    229018.04   -21003.324    1640.0907   -22643.415   -459.01057    632.82792    78.639557    15.897939    29.570854 
   99000    250.56879   -50.459502    229018.04   -20974.491    1659.6073   -22634.098    315.81797    634.60536    78.641595    15.897344    29.565734 
   99200    239.33128   -211.15712    229018.04   -21009.979    1585.1772   -22595.156   -347.88475    638.14452     78.64113    15.897354    29.557295 
   99400     238.4121   -322.54272    229018.04   -21091.885    1579.0891   -22670.974   -747.53336     639.7418    78.640187     15.89818     29.54073 
   99600    243.07603   -426.24678    229018.04   -21060.246      1609.98   -22670.226   -1178.1393    641.33816    78.638787    15.898644     29.54154 
   99800    243.54423   -325.77946    229018.04   -21040.154    1613.0811   -22653.235   -776.06783    642.16264    78.637412    15.898512    29.530873 
  100000    236.70669   -416.11965    229018.04   -21056.711    1567.7936   -22624.505   -1172.0109    642.82994    78.636298    15.897402    29.523828 
  100200    244.23165   -331.53325    229018.04   -20974.377    1617.6341   -22592.011   -817.84343    644.59376    78.635635    15.896961    29.522502 
  100400    241.66907     -157.019    229018.04   -21024.736    1600.6612   -22625.397   -129.68567    644.57847     78.63616    15.896086     29.51852 
  100600    240.75296   -197.33562    229018.04     -21078.6    1594.5935   -22673.193   -286.83739     643.5375    78.634212    15.897104    29.500989 
  100800    239.82238   -419.97425    229018.04   -21044.647      1588.43   -22633.077    -1169.082    645.99786    78.629999    15.896866    29.485243 
[...]
 5175800    228.38369   -392.73319    229018.04   -23296.228    1512.6674   -24808.896   -1034.7431    9147.6706    78.589143    15.543898    29.401539 
 5176000    221.50096   -357.84505    229018.04   -23428.125    1467.0806   -24895.206   -929.04788    9145.7137    78.588348    15.541128     29.40078 
 5176200    220.24619   -384.03066    229018.04   -23414.436    1458.7698   -24873.206   -1038.1573     9143.557    78.586131    15.539028    29.396724 
 5176400    221.60009    -435.9998    229018.04   -23374.784    1467.7372   -24842.521   -1215.6826    9147.5638    78.586545    15.538295    29.391454 
 5176600    224.06125   -313.28779    229018.04   -23340.285    1484.0383   -24824.323   -770.14604    9144.2328    78.585442    15.534944    29.395219 
 5176800    218.99763   -404.76944    229018.04   -23397.842    1450.5001   -24848.343   -1108.8356    9144.9515    78.583648    15.531695    29.394752 
 5177000     228.1783   -373.97113    229018.04   -23303.158     1511.307   -24814.465    -974.9486    9147.6409    78.584111    15.529629    29.394614 
 5177200    227.74308   -305.68006    229018.04   -23302.298    1508.4244   -24810.722   -693.69859    9143.5311    78.583609    15.526643     29.39637 
 5177400    227.00922   -347.53924    229018.04   -23344.466    1503.5638   -24848.029   -853.33484    9145.1639    78.582856     15.52496    29.388672 
 5177600    227.45676   -380.95278    229018.04   -23341.181     1506.528   -24847.709   -1020.0122    9142.8993    78.580618    15.523137    29.397247 
 5177800    229.65499   -331.48293    229018.04   -23301.726    1521.0877   -24822.814   -822.66645    9144.1301    78.579843    15.522329    29.391446 
 5178000    222.45502   -463.00389    229018.04   -23380.271    1473.3997   -24853.671   -1333.3299     9145.637    78.579225    15.520949    29.383449 
 5178200    226.74809    -330.9219    229018.04   -23390.303    1501.8342   -24892.137   -818.33498    9146.1765    78.580348    15.518109    29.392216 
 5178400    233.91721   -332.12894    229018.04   -23289.413    1549.3179   -24838.731   -809.56184    9141.9576    78.581804    15.516069    29.390182 
 5178600    222.57246   -456.10912    229018.04   -23344.143    1474.1775    -24818.32   -1302.0903    9145.8455    78.583161    15.513681    29.395721 
 5178800    227.00687   -410.12068    229018.04   -23307.995    1503.5482   -24811.543   -1156.3497    9143.2819    78.584255    15.511037    29.388508 
 5179000    228.35872   -380.40927    229018.04   -23280.339     1512.502   -24792.841   -968.01949    9143.4366    78.583839    15.509967    29.398734 
 5179200    225.67881   -483.23147    229018.04   -23343.096     1494.752   -24837.848   -1399.1112    9144.8383    78.584397    15.506351    29.397043 
 5179400    224.45515   -464.04179    229018.04   -23357.715    1486.6473   -24844.362   -1331.5169    9143.8261    78.583359    15.504162    29.389466 
 5179600    224.09348   -453.15127    229018.04   -23326.619    1484.2518    -24810.87   -1296.7085    9144.9342    78.583342    15.503048    29.390167 
 5179800    223.19096     -321.762    229018.04   -23308.802    1478.2741   -24787.076   -815.14944    9143.4914    78.584577    15.499165     29.39339 
 5180000    225.95557   -423.66768    229018.04   -23332.563     1496.585   -24829.148   -1173.2856    9144.1357    78.584458    15.498056    29.395219 
 5180200    225.05452   -533.58817    229018.04   -23362.531    1490.6171   -24853.148   -1662.3654    9145.1715    78.584958    15.494555    29.392421 
 5180400    229.89245   -307.44329    229018.04   -23361.849    1522.6604    -24884.51    -713.1911    9142.5778    78.581118    15.493886    29.386885 
 5180600     225.2456   -401.81833    229018.04   -23363.706    1491.8827   -24855.589   -1060.5735    9144.7482    78.581373    15.490355    29.392123 
 5180800    219.93141   -453.02666    229018.04   -23380.457    1456.6849   -24837.142   -1262.5461    9142.0469    78.579711    15.489687     29.39831 
 5181000    221.17145   -344.90301    229018.04   -23320.649    1464.8981   -24785.547    -839.6263    9141.1909    78.577502    15.489167    29.398411 
 5181200    228.73413   -453.42288    229018.04   -23288.502    1514.9884   -24803.491   -1286.0875    9144.2208    78.576029    15.488654    29.388352 
 5181400     230.8328   -370.21091    229018.04   -23306.394    1528.8887   -24835.282   -989.57173    9141.5258    78.573523    15.489758    29.387285 
 5181600    228.81386   -331.83861    229018.04   -23297.128    1515.5166   -24812.644   -794.72458    9140.8963    78.573121    15.485917    29.389882 
 5181800    223.68665   -527.61299    229018.04   -23389.671    1481.5572   -24871.228   -1610.3644    9144.2411    78.572007    15.483275    29.387896 
 5182000    223.09801    -377.3006    229018.04   -23391.432    1477.6584   -24869.091   -1010.7512    9143.7308     78.57184    15.482588     29.40304 
 5182200    231.21408   -367.52515    229018.04    -23312.82     1531.414   -24844.234   -946.26674    9140.6473     78.56843    15.480823    29.393401 
 5182400    232.71416   -510.89637    229018.04   -23310.888    1541.3496   -24852.238   -1478.5424    9143.3089    78.565499    15.478169    29.389954 
 5182600    233.30928   -335.80374    229018.04   -23292.869    1545.2914    -24838.16   -824.45792    9141.0421    78.563775    15.477703    29.405691 
 5182800    226.98774   -264.80897    229018.04   -23300.949    1503.4215   -24804.371    -561.1039     9140.705    78.561287    15.477456    29.401813 
 5183000    226.58161   -567.96348    229018.04   -23301.612    1500.7315   -24802.344   -1724.3005    9143.3893    78.561414    15.473992    29.386547 
 5183200    229.28807    -332.8448    229018.04    -23324.09    1518.6574   -24842.748   -811.86762     9142.613    78.562195    15.471839    29.391855 
 5183400    224.17773   -264.73484    229018.04   -23349.806    1484.8098   -24834.616   -572.73778    9138.7263    78.559749     15.47189    29.405881 
 5183600    228.22302    -531.4726    229018.04   -23335.946    1511.6032   -24847.549   -1582.7482    9144.9732    78.557568    15.469413    29.395779 
 5183800    221.47233   -307.76123    229018.04   -23393.654     1466.891   -24860.545    -724.5414    9139.8639    78.557238    15.467304    29.393175 
 5184000    229.43349    -352.9175    229018.04   -23352.426    1519.6206   -24872.046   -911.62996    9140.6092    78.555315    15.465542    29.389111 
 5184200    223.03646   -449.83662    229018.04   -23357.986    1477.2507   -24835.237    -1286.788    9144.0918    78.553362    15.463216    29.401618 
 5184400    224.62511   -303.84931    229018.04   -23328.079     1487.773   -24815.852   -674.89394    9140.6242    78.553854      15.4637    29.408491 
 5184600    225.71061   -433.04567    229018.04   -23320.558    1494.9626   -24815.521   -1227.0374    9142.4451    78.554488    15.463244    29.401572 
 5184800    231.72645   -377.96415    229018.04    -23305.66    1534.8077   -24840.467   -996.95329     9142.287    78.554924    15.461784    29.398844 
 5185000    224.62924   -390.48985    229018.04   -23304.296    1487.8003   -24792.096   -1067.2721     9140.873    78.554557    15.461289    29.395467 
 5185200    226.89404   -426.24328    229018.04   -23329.318    1502.8009   -24832.119   -1192.6607    9140.0334    78.556014    15.459158    29.393155 
 5185400     222.8798   -445.99444    229018.04   -23355.301    1476.2132   -24831.515   -1254.4751    9141.7902    78.555068    15.458988    29.396645 
 5185600    228.68918   -390.26659    229018.04   -23316.845    1514.6908   -24831.536   -1067.3743    9139.1324    78.554657    15.458287    29.398458 
 5185800     228.8561   -349.82314    229018.04   -23225.012    1515.7963   -24740.809   -869.57105    9140.6276    78.558164     15.45845    29.401177 
 5186000    230.69889   -338.91178    229018.04   -23265.892    1528.0018   -24793.894   -852.64189    9140.2275    78.559074     15.45784    29.391589 
 5186200    229.85028   -341.68634    229018.04   -23347.052    1522.3811   -24869.433   -847.57854    9138.5363    78.558237    15.458371     29.40662 
 5186400    220.91493   -461.99041    229018.04   -23363.983    1463.1991   -24827.182   -1330.9083    9142.2064    78.558513    15.458302    29.413689 
 5186600    232.43929   -384.49382    229018.04   -23291.123    1539.5291   -24830.652   -1000.5311    9138.7319    78.559288    15.457663     29.39853 
 5186800    226.04186   -358.51893    229018.04   -23312.314    1497.1566    -24809.47   -942.60515    9141.3912    78.560084    15.458025    29.396026 
 5187000    228.84514   -358.34185    229018.04   -23318.176    1515.7237     -24833.9   -892.85932    9141.2329    78.559933    15.459632    29.387631 
 5187200    226.07111   -365.97931    229018.04   -23336.958    1497.3503   -24834.309   -949.80475    9142.0487    78.560508    15.460617    29.382545 
 5187400    228.35865   -305.73501    229018.04    -23310.77    1512.5016   -24823.271   -723.38843    9139.3004    78.560119    15.460846    29.386899 
 5187600     225.3498   -396.91512    229018.04   -23330.361    1492.5728   -24822.934   -1055.2566    9142.4092    78.558004    15.460469    29.384373 
 5187800    229.35502   -345.61409    229018.04   -23325.475    1519.1008   -24844.576   -894.23942     9140.341    78.554321    15.458339    29.381576 
 5188000    230.34474   -340.85312    229018.04   -23326.223    1525.6561   -24851.879   -879.96307    9139.4763      78.5514    15.456915    29.380937 
 5188200    227.23772   -377.92743    229018.04    -23309.82    1505.0772   -24814.897   -976.15347    9142.6337    78.549483    15.455761    29.386842 
 5188400    223.93137   -432.22226    229018.04   -23347.446    1483.1781   -24830.624   -1207.7479    9140.2154    78.548673    15.455894    29.397434 
 5188600     230.8244   -281.84306    229018.04   -23283.512    1528.8331   -24812.345   -626.00558    9138.4811    78.546011    15.456414    29.389196 
 5188800    229.94757   -365.98203    229018.04   -23319.403    1523.0255   -24842.429    -934.7254    9142.2749    78.544956    15.457196     29.39489 
 5189000    224.28449   -405.05462    229018.04   -23313.225    1485.5169   -24798.742   -1079.3324    9143.9461    78.544342    15.457348    29.383121 
 5189200     224.4568   -343.36338    229018.04   -23331.326    1486.6582   -24817.984   -846.74651    9138.5615     78.54462    15.459078    29.376938 
 5189400    229.07649   -323.32908    229018.04   -23314.448     1517.256   -24831.704   -783.74523    9139.8636    78.545794    15.458591    29.375513 
 5189600    229.08146   -395.34406    229018.04     -23308.3     1517.289   -24825.589   -1015.6436     9143.878    78.544809    15.460178    29.374668 
 5189800    230.73854   -357.31108    229018.04   -23353.754    1528.2644   -24882.018   -914.36098    9141.5425    78.545302    15.461452    29.382039 
 5190000    232.37222   -274.40939    229018.04   -23325.026    1539.0849    -24864.11   -596.66825    9139.2792    78.544949    15.464056    29.390492 
 5190200    228.79684   -477.64259    229018.04   -23310.996    1515.4038     -24826.4   -1375.8628     9143.447    78.546621    15.464625     29.39797 
 5190400     230.1839   -337.65581    229018.04   -23347.242    1524.5908   -24871.832   -803.96371    9142.2026    78.548797    15.464797    29.389693 
 5190600    230.22538   -286.38028    229018.04   -23331.416    1524.8656   -24856.282   -630.62899    9138.1525    78.549096    15.469622    29.392712 
 5190800    228.70872   -418.51599    229018.04   -23344.225    1514.8202   -24859.045   -1172.1326    9144.6137     78.55084    15.471942    29.391981 
 5191000    224.12197   -345.79114    229018.04   -23454.547    1484.4405   -24938.987   -891.97332    9141.9526    78.551959    15.472451    29.381807 
 5191200    224.98873   -298.13221    229018.04   -23386.688    1490.1813   -24876.869    -679.3574    9140.5701     78.55326    15.473324    29.386223 
 5191400    227.15466   -393.01252    229018.04   -23349.745    1504.5271   -24854.272     -1064.83    9142.3787    78.553054    15.475754    29.391627 
 5191600    228.14812   -423.48943    229018.04   -23370.083    1511.1071   -24881.191   -1169.3703    9142.8061    78.553312    15.476228    29.391359 
 5191800    232.74443   -369.39178    229018.04   -23316.594    1541.5502   -24858.144   -995.82506    9142.5707    78.553773    15.475383    29.383783 
 5192000    232.30052   -425.85393    229018.04   -23321.908    1538.6099   -24860.518   -1159.1913     9140.948    78.553692    15.478338    29.384658 
 5192200    225.15328   -417.96229    229018.04    -23347.06    1491.2712   -24838.331   -1145.4644    9143.4308    78.555744    15.480419    29.376527 
 5192400     220.4164   -295.23166    229018.04   -23384.136    1459.8971   -24844.033   -654.91985    9142.5583    78.557439    15.483881    29.380225 
 5192600    220.51533   -389.71029    229018.04   -23387.421    1460.5524   -24847.973   -1035.4792    9143.1749      78.5599    15.486868    29.379015 
 5192800    226.94208   -398.61627    229018.04    -23317.33    1503.1191   -24820.449   -1064.2368    9142.9713    78.563415    15.488344    29.383921 
 5193000    225.48261   -389.01825    229018.04   -23354.132    1493.4525   -24847.585   -1072.8162    9141.5673    78.565939    15.489199    29.386405 
 5193200    231.73185   -380.99602    229018.04   -23352.247    1534.8434   -24887.091   -989.28411    9142.3577    78.566691    15.491177    29.386881 
 5193400    233.00596   -361.46533    229018.04    -23312.77    1543.2824   -24856.052   -956.16852    9142.4767    78.565802    15.494466    29.390595 
 5193600    231.42252   -368.03039    229018.04   -23364.251    1532.7946   -24897.046   -972.81778    9144.3658      78.5674    15.493884    29.396564 
 5193800    224.60213   -414.71425    229018.04    -23377.09    1487.6207    -24864.71   -1157.1506    9141.7689    78.568286    15.495132    29.384598 
 5194000    221.65586     -357.442    229018.04   -23378.108    1468.1065   -24846.215   -917.42196    9141.0013    78.568629    15.500105    29.389742 
 5194200    224.15019    -348.0151    229018.04   -23350.813    1484.6274   -24835.441   -897.82665    9142.6675    78.570428    15.500148    29.392136 
 5194400    227.10107   -415.20151    229018.04   -23359.095    1504.1721   -24863.267    -1148.355    9142.8707    78.569711    15.501419    29.384959 
 5194600    223.69442   -353.44084    229018.04     -23384.2    1481.6087   -24865.809   -894.41028     9142.474    78.571925    15.502337    29.384878 
 5194800    223.01775    -399.9589    229018.04   -23401.315    1477.1268   -24878.442   -1073.4573    9144.3608    78.571351    15.504305    29.386394 
 5195000    233.05825   -412.45897    229018.04   -23316.615    1543.6287   -24860.244   -1147.4317    9142.6065    78.571967    15.504574     29.39273 
 5195200    225.87846   -334.62507    229018.04   -23380.789    1496.0744   -24876.863   -813.89295    9139.3258    78.570442    15.505905    29.397737 
 5195400     228.1511   -367.44936    229018.04   -23301.805    1511.1269   -24812.932   -933.20188    9143.5626    78.572722     15.50765     29.39007 
 5195600    226.64638    -374.9237    229018.04   -23346.119    1501.1605   -24847.279   -987.74869    9144.3401    78.573067    15.507094    29.387988 
 5195800    227.59165   -310.23356    229018.04   -23298.806    1507.4214   -24806.228   -718.64337    9139.7612    78.573505    15.508747    29.387829 
 5196000    231.30814   -390.90543    229018.04   -23301.691     1532.037   -24833.728   -1012.4306    9143.3288    78.576411     15.51082    29.375061 
 5196200    227.93839   -410.45203    229018.04   -23282.003     1509.718   -24791.721   -1166.4238    9144.2773    78.575265    15.512306    29.376852 
 5196400     227.2135   -435.56045    229018.04   -23332.247    1504.9168   -24837.164   -1212.6018    9141.1839    78.578234    15.512073    29.374575 
 5196600    222.14809   -470.76786    229018.04   -23443.646    1471.3668   -24915.013   -1365.1063    9143.3084    78.580697    15.513946    29.381172 
 5196800    229.71874   -399.86872    229018.04   -23341.743    1521.5099   -24863.253   -1078.7278    9143.0955    78.584752    15.515914    29.383561 
 5197000    222.52689   -441.89401    229018.04   -23383.271    1473.8757   -24857.147   -1245.1568    9143.0299    78.585416    15.516173    29.378676 
 5197200    227.76713   -401.45747    229018.04   -23277.534    1508.5837   -24786.118   -1102.2225    9140.8585    78.584164    15.518964    29.380058 
 5197400    224.04623   -326.39762    229018.04   -23367.475    1483.9388   -24851.414   -774.12323    9145.0891    78.584084    15.520886    29.386701 
 5197600    231.98052   -295.29365    229018.04   -23358.961    1536.4905   -24895.452   -672.64198    9140.0213    78.585995    15.521141    29.394639 
 5197800    230.56048   -436.63661    229018.04   -23257.598     1527.085   -24784.683   -1243.0957    9142.1435    78.585681    15.522953    29.383179 
 5198000    233.75657    -344.7975    229018.04   -23267.618    1548.2539   -24815.871   -863.02794    9144.0695    78.588115    15.522598     29.37964 
 5198200    227.19059   -349.21589    229018.04   -23320.566     1504.765   -24825.331   -918.19019    9142.6669    78.590179    15.522386    29.383346 
 5198400    229.33873   -398.47229    229018.04   -23343.734     1518.993   -24862.727   -1064.3687    9143.0106    78.591629    15.522898    29.371382 
 5198600    226.82673   -273.35263    229018.04   -23409.629     1502.355   -24911.984   -602.55763    9141.4303    78.593252    15.523566    29.382772 
 5198800    226.01507   -325.30426    229018.04   -23404.236    1496.9792   -24901.216   -815.78099    9142.4194    78.594424    15.524304    29.389306 
 5199000    229.02238     -499.032    229018.04   -23317.667    1516.8977   -24834.564   -1466.7708     9142.278    78.593666    15.527579    29.386574 
 5199200    226.97297   -323.49872    229018.04    -23363.19    1503.3237   -24866.514   -798.68074    9141.5487    78.596018    15.528723    29.380109 
 5199400    223.98058   -329.06929    229018.04   -23382.554     1483.504   -24866.058   -820.95629    9143.7317    78.597334    15.528936    29.382691 
 5199600    225.15527   -484.08883    229018.04     -23342.2    1491.2844   -24833.485   -1421.3446    9142.7909     78.59909     15.53037    29.379135 
 5199800    220.79049   -351.58167    229018.04   -23387.887    1462.3749   -24850.262   -882.91776    9143.1681    78.599041    15.533188    29.385688 
 5200000    231.56891   -320.63994    229018.04   -23311.529    1533.7643   -24845.293   -785.48014    9143.1985    78.600282     15.53464    29.388583 
Loop time of 7691.61 on 64 procs for 5200000 steps with 8943 atoms

Performance: 584.117 ns/day, 0.041 hours/ns, 676.062 timesteps/s
100.0% CPU use with 64 MPI tasks x no OpenMP threads

MPI task timing breakdown:
Section |  min time  |  avg time  |  max time  |%varavg| %total
---------------------------------------------------------------
Pair    | 0.28091    | 1812.3     | 5911.1     |4613.4 | 23.56
Neigh   | 0.73188    | 240.03     | 861.84     |1926.1 |  3.12
Comm    | 18.955     | 2135.2     | 6167.6     |4032.9 | 27.76
Output  | 234.03     | 234.11     | 234.33     |   0.3 |  3.04
Modify  | 147.16     | 3194.9     | 7363.4     |5286.9 | 41.54
Other   |            | 75.05      |            |       |  0.98

Nlocal:    139.734 ave 439 max 0 min
Histogram: 24 11 13 0 0 0 0 0 0 16
Nghost:    818.969 ave 1290 max 0 min
Histogram: 8 0 3 1 0 4 24 0 12 12
Neighs:    0 ave 0 max 0 min
Histogram: 64 0 0 0 0 0 0 0 0 0
FullNghs:  14021.5 ave 53629 max 0 min
Histogram: 40 8 0 0 0 0 0 0 6 10

Total # of neighbors = 897374
Ave neighs/atom = 100.344
Neighbor list builds = 555317
Dangerous builds = 0
write_data 		${DIR}/data.${NAME}_run
write_data 		run_28/data.${NAME}_run
write_data 		run_28/data.ibeam_cooling_28_run
Total wall time: 2:08:27
