
### Dimensions ###


### IMPORT ATOMS ###
read_data ../Box_Setup/data.Ibeam_240K
  orthogonal box = (0 0 0) to (157.504 36.4877 39.8503)
  8 by 2 by 4 MPI processor grid
  reading atoms ...
  8943 atoms
  reading velocities ...
  8943 velocities
group water type 2
2223 atoms in group water
group graphite type 1
6720 atoms in group graphite


# Define potential
#
pair_style          sw
pair_coeff * * MLC_e.sw C mW

# Add velocity/set timestep
#

fix		1 graphite setforce 0.0 0.0 0.0
velocity 	graphite set 0.0 0.0 0.0
velocity            water create ${START_TEMP} ${SEED} rot yes dist gaussian
velocity            water create 240 ${SEED} rot yes dist gaussian
velocity            water create 240 9865 rot yes dist gaussian
timestep            5.0

# Define output
#
compute 1 water msd
compute 2 water temp


thermo	            100
thermo_style custom step c_2 press vol etotal ke pe c_1[4] density

# Neighbor lists
#
neigh_modify        delay 0 every 1 check yes


# Set fixes
#
fix                 2 water momentum 10 linear 1 1 1 rescale
fix                 3 all nve
fix                 4 water temp/csvr ${START_TEMP} ${START_TEMP} 500.0 928347
fix                 4 water temp/csvr 240 ${START_TEMP} 500.0 928347
fix                 4 water temp/csvr 240 240 500.0 928347

# Run 0.05 ns equilibration
#
dump                1 all custom 100 ${DIR}/eq.${NAME}.dump id type x y z vx vy vz
dump                1 all custom 100 run_28/eq.${NAME}.dump id type x y z vx vy vz
dump                1 all custom 100 run_28/eq.ibeam_cooling_28.dump id type x y z vx vy vz
run                 10000
Neighbor list info ...
  update every 1 steps, delay 0 steps, check yes
  max neighbors/atom: 2000, page size: 100000
  master list distance cutoff = 6.67472
  ghost atom cutoff = 6.67472
  binsize = 3.33736, bins = 48 11 12
  1 neighbor lists, perpetual/occasional/extra = 1 0 0
  (1) pair sw, perpetual
      attributes: full, newton on
      pair build: full/bin/atomonly
      stencil: full/bin/3d
      bin: standard
Per MPI rank memory allocation (min/avg/max) = 0.5062 | 3.768 | 4.796 Mbytes
Step c_2 Press Volume TotEng KinEng PotEng c_1[4] Density 
       0          240   -163.35224    229018.04   -21211.582    1589.6064   -22801.188            0   0.87555383 
     100     248.6356   -293.43583    229018.04   -21170.886    1646.8031    -22817.69   0.82883914   0.87555383 
     200    240.38285   -314.59809    229018.04   -21219.487    1592.1421   -22811.629    1.3159466   0.87555383 
     300     239.3467   -296.83831    229018.04   -21211.191    1585.2794    -22796.47    1.6624821   0.87555383 
     400    241.99881   -402.68906    229018.04   -21227.528    1602.8452   -22830.373    1.9978928   0.87555383 
     500    234.21318   -483.46395    229018.04   -21224.193    1551.2782   -22775.471    2.4338337   0.87555383 
     600    231.21183   -337.80089    229018.04   -21315.836    1531.3992   -22847.235    2.6762819   0.87555383 
     700     238.2475   -405.84283    229018.04   -21283.686     1577.999   -22861.685    2.9798869   0.87555383 
     800    231.27958    -398.3714    229018.04   -21318.354    1531.8479   -22850.202    3.3064405   0.87555383 
     900    237.13063   -65.289267    229018.04   -21272.235    1570.6015   -22842.837    3.6379475   0.87555383 
    1000    238.06358   -156.47513    229018.04   -21229.546    1576.7808   -22806.327    3.9919241   0.87555383 
    1100    236.37463   -315.24356    229018.04   -21243.811    1565.5942   -22809.405    4.3915645   0.87555383 
    1200    236.30259   -384.59663    229018.04   -21281.978    1565.1171   -22847.095    4.5584006   0.87555383 
    1300    241.41844    -332.0849    229018.04   -21240.457    1599.0012   -22839.458    4.7848563   0.87555383 
    1400    242.72138   -287.28598    229018.04   -21173.404     1607.631   -22781.035    5.0451031   0.87555383 
    1500    241.78434   -189.97862    229018.04   -21183.858    1601.4247   -22785.282    5.5009772   0.87555383 
    1600    238.74503   -218.57492    229018.04   -21185.608    1581.2943   -22766.903    5.7953445   0.87555383 
    1700    242.53514   -386.39754    229018.04   -21205.304    1606.3975   -22811.701    6.2157384   0.87555383 
    1800    242.93038   -334.90118    229018.04   -21210.413    1609.0153   -22819.428    6.4894597   0.87555383 
    1900    246.53813    -547.5006    229018.04   -21127.652    1632.9107   -22760.563     7.030975   0.87555383 
    2000    245.82808   -320.49124    229018.04    -21099.91    1628.2079   -22728.118    7.5114511   0.87555383 
    2100     243.7023   -332.06726    229018.04   -21110.516    1614.1281   -22724.644    7.9666269   0.87555383 
    2200    244.24336   -353.44958    229018.04   -21106.092    1617.7117   -22723.804    8.4469634   0.87555383 
    2300    241.98537    -364.9503    229018.04   -21148.946    1602.7562   -22751.702    8.8095779   0.87555383 
    2400    248.65932   -93.394425    229018.04   -21146.677    1646.9602   -22793.637    9.2466635   0.87555383 
    2500    240.17441    -310.3374    229018.04   -21135.371    1590.7616   -22726.132    9.6781531   0.87555383 
    2600    241.74375   -297.97477    229018.04    -21182.69    1601.1559   -22783.846    10.051536   0.87555383 
    2700    238.70479   -259.80291    229018.04   -21158.323    1581.0277    -22739.35    10.686453   0.87555383 
    2800    244.11037   -319.01098    229018.04   -21158.272    1616.8308   -22775.103    11.245672   0.87555383 
    2900    235.66539   -442.77694    229018.04   -21227.174    1560.8967   -22788.071    11.609266   0.87555383 
    3000    239.02533   -260.05366    229018.04   -21258.725    1583.1508   -22841.875    11.900289   0.87555383 
    3100    236.11568    -329.6436    229018.04   -21263.458    1563.8791   -22827.337    12.191393   0.87555383 
    3200    234.55174   -173.28552    229018.04   -21283.424    1553.5206   -22836.944    12.876203   0.87555383 
    3300    238.92598   -328.17223    229018.04    -21244.79    1582.4928   -22827.283    13.502074   0.87555383 
    3400    235.29365   -144.11149    229018.04   -21253.726    1558.4345    -22812.16    14.073698   0.87555383 
    3500    239.89397   -329.09456    229018.04   -21256.421    1588.9041   -22845.325    14.696824   0.87555383 
    3600    234.37566   -172.93985    229018.04   -21219.289    1552.3543   -22771.643    15.487648   0.87555383 
    3700    237.29805   -375.14086    229018.04   -21253.251    1571.7104   -22824.961    16.218091   0.87555383 
    3800    235.85785    -268.9262    229018.04   -21251.652    1562.1714   -22813.824    16.849575   0.87555383 
    3900    236.22076   -360.08699    229018.04   -21242.382    1564.5751   -22806.958     17.00787   0.87555383 
    4000    230.63889   -353.25889    229018.04     -21267.9    1527.6044   -22795.504    17.314254   0.87555383 
    4100    235.85262   -164.79696    229018.04   -21213.614    1562.1368   -22775.751     17.59003   0.87555383 
    4200    246.30931   -169.70178    229018.04   -21187.509    1631.3952   -22818.904     17.89751   0.87555383 
    4300    249.55336   -329.00507    229018.04    -21092.36    1652.8817   -22745.242    18.231262   0.87555383 
    4400    242.01057   -374.98554    229018.04   -21103.523    1602.9231   -22706.446    18.944026   0.87555383 
    4500    244.78792   -303.36878    229018.04   -21142.918    1621.3185   -22764.236    19.275226   0.87555383 
    4600    243.69553   -329.61821    229018.04   -21173.032    1614.0832   -22787.115    19.636134   0.87555383 
    4700    238.60894   -183.12089    229018.04   -21203.427    1580.3929    -22783.82    19.948399   0.87555383 
    4800    242.38725   -274.27166    229018.04   -21158.814     1605.418   -22764.232     20.41283   0.87555383 
    4900    243.73902   -314.52568    229018.04   -21184.419    1614.3713    -22798.79    20.902868   0.87555383 
    5000    237.89792    -320.5444    229018.04   -21228.764    1575.6835   -22804.448    21.067565   0.87555383 
    5100    233.83717   -355.71379    229018.04    -21241.62    1548.7877   -22790.408    21.417429   0.87555383 
    5200     245.3662   -233.68479    229018.04   -21218.906    1625.1487   -22844.055    21.549136   0.87555383 
    5300    235.98199   -235.77151    229018.04    -21256.99    1562.9937   -22819.983    21.917625   0.87555383 
    5400    240.80929   -203.89065    229018.04   -21216.195    1594.9666   -22811.162    22.266643   0.87555383 
    5500    235.69418   -270.85377    229018.04   -21250.146    1561.0874   -22811.233    22.685049   0.87555383 
    5600    232.41595   -385.31298    229018.04   -21262.751    1539.3745   -22802.126    23.024621   0.87555383 
    5700    235.89701   -315.13177    229018.04   -21228.103    1562.4308   -22790.533    23.147842   0.87555383 
    5800    249.56835   -270.62904    229018.04    -21139.21     1652.981   -22792.191    23.596158   0.87555383 
    5900    241.49205   -154.27777    229018.04   -21173.683    1599.4888   -22773.172    24.128893   0.87555383 
    6000    233.88737   -57.867122    229018.04   -21270.793    1549.1202   -22819.913    24.733923   0.87555383 
    6100    239.11193   -305.14593    229018.04   -21242.039    1583.7244   -22825.763     25.22376   0.87555383 
    6200    239.79449   -322.86673    229018.04   -21204.347    1588.2452   -22792.592    25.666323   0.87555383 
    6300    246.62019   -424.10839    229018.04   -21157.335    1633.4543   -22790.789    26.223164   0.87555383 
    6400    247.88854   -303.71348    229018.04   -21159.805     1641.855    -22801.66     26.39354   0.87555383 
    6500    241.30327   -413.57806    229018.04       -21180    1598.2384   -22778.238    26.485193   0.87555383 
    6600    233.04935   -116.59157    229018.04    -21225.71    1543.5697    -22769.28    26.543086   0.87555383 
    6700    231.35405   -384.34347    229018.04   -21253.906    1532.3411   -22786.247    26.809301   0.87555383 
    6800    238.26769   -289.10211    229018.04   -21207.538    1578.1327    -22785.67    26.993637   0.87555383 
    6900    234.25114   -383.87406    229018.04   -21233.774    1551.5296   -22785.303    27.200462   0.87555383 
    7000    228.99092   -290.59688    229018.04   -21249.332    1516.6893   -22766.021    27.517595   0.87555383 
    7100    246.43819   -278.17434    229018.04   -21154.445    1632.2488   -22786.694    27.820665   0.87555383 
    7200    241.66235   -213.05172    229018.04    -21165.05    1600.6167   -22765.667    27.869807   0.87555383 
    7300    236.17421    -304.0423    229018.04   -21242.939    1564.2668   -22807.205    28.490159   0.87555383 
    7400    233.94491   -161.18882    229018.04   -21241.073    1549.5013   -22790.575    28.902702   0.87555383 
    7500    240.11754    -378.7319    229018.04   -21266.477    1590.3849   -22856.862    29.056254   0.87555383 
    7600    233.19627    -328.3435    229018.04   -21281.211    1544.5428   -22825.754    29.159136   0.87555383 
    7700    238.00039   -471.81416    229018.04   -21226.227    1576.3622    -22802.59     29.23034   0.87555383 
    7800    236.12198   -400.46626    229018.04   -21166.098    1563.9209   -22730.019    29.579516   0.87555383 
    7900    245.11296   -290.61789    229018.04   -21151.988    1623.4714   -22775.459    29.996658   0.87555383 
    8000    242.65237   -335.99922    229018.04   -21147.764     1607.174   -22754.938    30.056719   0.87555383 
    8100    236.97925   -378.73359    229018.04   -21178.816    1569.5989   -22748.415     30.67687   0.87555383 
    8200    236.48736   -287.91451    229018.04   -21223.465    1566.3409   -22789.806    30.891292   0.87555383 
    8300    230.06908   -156.89965    229018.04   -21225.303    1523.8303   -22749.133    31.287726   0.87555383 
    8400    238.61018   -256.48077    229018.04   -21222.505    1580.4011   -22802.906    31.593212   0.87555383 
    8500    240.45503   -232.47335    229018.04   -21220.088    1592.6202   -22812.708    31.596051   0.87555383 
    8600    239.82323   -309.66631    229018.04   -21171.187    1588.4356   -22759.623    31.861401   0.87555383 
    8700    231.53394   -443.53738    229018.04   -21241.349    1533.5326   -22774.882    31.958732   0.87555383 
    8800    239.69148   -219.32231    229018.04    -21188.77    1587.5629   -22776.333    32.047766   0.87555383 
    8900    241.66641   -211.90722    229018.04   -21227.278    1600.6436   -22827.921    32.028393   0.87555383 
    9000    236.78128   -272.80386    229018.04   -21173.326    1568.2877   -22741.614    32.048172   0.87555383 
    9100    235.17005   -293.34788    229018.04   -21144.419    1557.6159   -22702.035    32.288981   0.87555383 
    9200     233.6491   -446.15141    229018.04    -21172.93    1547.5421   -22720.472    32.450923   0.87555383 
    9300    236.08355   -358.58664    229018.04   -21196.469    1563.6663   -22760.135    32.619447   0.87555383 
    9400    233.98653   -312.05787    229018.04    -21225.92     1549.777   -22775.697    33.054102   0.87555383 
    9500    239.87338    -71.36553    229018.04   -21190.547    1588.7677   -22779.315    33.726494   0.87555383 
    9600    235.34773   -177.61588    229018.04   -21259.969    1558.7927   -22818.762    34.048304   0.87555383 
    9700    240.85663   -354.14716    229018.04   -21204.319    1595.2801   -22799.599    34.300112   0.87555383 
    9800    242.24609   -342.89941    229018.04   -21227.939    1604.4831   -22832.422    34.758133   0.87555383 
    9900    234.49268   -323.31834    229018.04   -21181.275    1553.1294   -22734.405    35.396167   0.87555383 
   10000    243.39435   -312.70183    229018.04   -21099.345    1612.0884   -22711.434     35.89728   0.87555383 
Loop time of 15.1239 on 64 procs for 10000 steps with 8943 atoms

Performance: 285.641 ns/day, 0.084 hours/ns, 661.206 timesteps/s
100.0% CPU use with 64 MPI tasks x no OpenMP threads

MPI task timing breakdown:
Section |  min time  |  avg time  |  max time  |%varavg| %total
---------------------------------------------------------------
Pair    | 0.0005302  | 3.7004     | 12.495     | 211.4 | 24.47
Neigh   | 0.00081949 | 0.25188    | 0.96127    |  62.6 |  1.67
Comm    | 0.02358    | 4.2409     | 12.843     | 194.2 | 28.04
Output  | 0.19409    | 0.19416    | 0.19487    |   0.0 |  1.28
Modify  | 0.2642     | 6.6029     | 14.772     | 242.6 | 43.66
Other   |            | 0.1336     |            |       |  0.88

Nlocal:    139.734 ave 439 max 0 min
Histogram: 24 12 9 3 0 0 0 0 0 16
Nghost:    825.188 ave 1347 max 0 min
Histogram: 8 0 4 0 0 5 23 8 4 12
Neighs:    0 ave 0 max 0 min
Histogram: 64 0 0 0 0 0 0 0 0 0
FullNghs:  14072.7 ave 53894 max 0 min
Histogram: 40 8 0 0 0 0 0 0 6 10

Total # of neighbors = 900654
Ave neighs/atom = 100.71
Neighbor list builds = 575
Dangerous builds = 0
write_data 	    ${DIR}/data.${NAME}_eq
write_data 	    run_28/data.${NAME}_eq
write_data 	    run_28/data.ibeam_cooling_28_eq

undump              1
unfix               4



################################################
#######         Run Simulation         #########
################################################

reset_timestep      0
timestep	    10.0
log                 ${DIR}/log.run_${NAME}
log                 run_28/log.run_${NAME}
log                 run_28/log.run_ibeam_cooling_28
