
# Set production fixes - Nose/Hoover
#
fix                 4 water temp/csvr ${START_TEMP} ${END_TEMP} 500.0 928347
fix                 4 water temp/csvr 240 ${END_TEMP} 500.0 928347
fix                 4 water temp/csvr 240 227 500.0 928347


## divide "droplet" into core and surface
#region		core_reg cylinder z 135 135 44.6 20 INF units box
#region		surface_reg cylinder z 135 135 44.6 20 INF units box side out
#group		core dynamic all region core_reg
#group		surface dynamic all region surface_reg

## compute pressure core
#compute        peratom_core core stress/atom NULL
#compute        p_core core reduce sum c_peratom_core[1] c_peratom_core[2] c_peratom_core[3]
#variable       press_core equal -(c_p_core[1]+c_p_core[2]+c_p_core[3])/(3*1249982.5)


## compute pressure surface
#compute        peratom_surf surface stress/atom NULL
#compute        p_surf surface reduce sum c_peratom_surf[1] c_peratom_surf[2] #c_peratom_surf[3]
#variable       press_surf equal -(c_p_surf[1]+c_p_surf[2]+c_p_surf[3])/(3*42395)

## compute total pressure of drop
compute        peratom water stress/atom NULL
compute        p water reduce sum c_peratom[1] c_peratom[2] c_peratom[3]
variable       press equal -(c_p[1]+c_p[2]+c_p[3])/(3*50320)


# compute order parameter
compute        3 all orientorder/atom nnn NULL cutoff 3.5

# compute center of mass of bridge
compute 	4 water com

# Run simulation
thermo_style        custom step c_2 press vol etotal ke pe v_press c_1[4] c_4[*]
thermo              200
dump		     1 water custom 400 ${DIR}/prod.${NAME}.dump id type x y z vx vy vz c_3[*] c_peratom[*]
dump		     1 water custom 400 run_12/prod.${NAME}.dump id type x y z vx vy vz c_3[*] c_peratom[*]
dump		     1 water custom 400 run_12/prod.ibeam_cooling_12.dump id type x y z vx vy vz c_3[*] c_peratom[*]
run                 ${STEPS}
run                 5200000
Neighbor list info ...
  update every 1 steps, delay 0 steps, check yes
  max neighbors/atom: 2000, page size: 100000
  master list distance cutoff = 6.67472
  ghost atom cutoff = 6.67472
  binsize = 3.33736, bins = 48 13 11
  2 neighbor lists, perpetual/occasional/extra = 1 1 0
  (1) pair sw, perpetual
      attributes: full, newton on
      pair build: full/bin/atomonly
      stencil: full/bin/3d
      bin: standard
  (2) compute orientorder/atom, occasional, copy from (1)
      attributes: full, newton on
      pair build: copy
      stencil: none
      bin: none
Per MPI rank memory allocation (min/avg/max) = 0.8541 | 5.967 | 7.144 Mbytes
Step c_2 Press Volume TotEng KinEng PotEng v_press c_1[4] c_4[1] c_4[2] c_4[3] 
       0    237.47296   -419.95985    216009.12   -18629.878    1381.0383   -20010.916   -1213.6685    34.965424    78.746349    22.609171    25.627343 
     200    239.28233   -144.10964    216009.12   -18669.885    1391.5609   -20061.446   -64.085803    36.942489    78.748137    22.609975    25.618062 
     400      238.186   -342.45562    216009.12   -18686.276    1385.1851   -20071.461     -867.416    38.103618    78.748144    22.610091    25.585743 
     600    246.09119   -368.26529    216009.12   -18577.941    1431.1582   -20009.099   -1003.6719     40.15367     78.74855    22.609592    25.577038 
     800    251.07523   -269.09784    216009.12   -18559.686    1460.1431   -20019.829   -580.88746    41.753887     78.74873    22.609797    25.592127 
    1000    241.69395   -463.75628    216009.12   -18672.135    1405.5858   -20077.721   -1426.0081    43.417085    78.748052    22.611062    25.582198 
    1200     242.5503   -254.48682    216009.12   -18591.964    1410.5659   -20002.529   -483.83214    45.107669    78.747494    22.611843    25.578471 
    1400    232.53155   -170.96309    216009.12   -18580.548    1352.3013   -19932.849   -139.66632    47.861151      78.7454    22.612864    25.576429 
    1600    242.38861   -275.82876    216009.12   -18592.954    1409.6256   -20002.579   -578.80588    49.046797    78.746912    22.614342     25.54623 
    1800    239.91856   -412.79767    216009.12    -18540.76    1395.2609   -19936.021     -1188.46    51.527853    78.747603    22.613298     25.54978 
    2000    248.97343   -374.38177    216009.12   -18480.817      1447.92   -19928.737   -1028.0544    54.228174    78.747032    22.612087    25.571143 
    2200    233.86428   -379.84691    216009.12   -18557.677    1360.0518   -19917.729   -1064.5084    55.716003    78.746558    22.612178    25.588043 
    2400    246.07033   -251.57165    216009.12   -18522.234    1431.0369   -19953.271   -461.96196    57.146877    78.745457    22.609261    25.602133 
    2600    239.74881   -204.42495    216009.12   -18561.768    1394.2737   -19956.042   -268.99066     58.53083    78.744322    22.606639    25.585921 
    2800    243.56649   -331.55424    216009.12   -18478.342    1416.4756   -19894.817   -851.83241    59.636054    78.740425    22.604799    25.596774 
    3000    242.98028   -330.72111    216009.12   -18466.039    1413.0665   -19879.106   -841.48045    61.145867    78.741156    22.601781    25.592858 
    3200    231.70475    -164.4795    216009.12   -18552.857     1347.493    -19900.35   -130.86011    63.189971    78.741483    22.601948    25.571291 
    3400    242.18717   -394.74899    216009.12   -18550.377    1408.4541   -19958.831    -1062.755    64.840355    78.741951    22.601848    25.574143 
    3600    234.99402   -239.90197    216009.12   -18531.427    1366.6219   -19898.049   -425.66956     66.74407    78.741616    22.603027    25.561519 
    3800    249.23749   -344.60027    216009.12   -18499.299    1449.4557   -19948.755    -866.4215    68.399086    78.739325    22.602556    25.563189 
    4000    246.94093   -289.40453    216009.12    -18616.54    1436.0999    -20052.64   -634.16258    71.414199    78.739022    22.602046    25.540604 
    4200    242.81512   -405.83702    216009.12   -18576.227     1412.106   -19988.333   -1134.4125    72.515991    78.740849    22.604507    25.539372 
    4400      240.179   -272.44801    216009.12   -18586.516    1396.7755   -19983.292   -591.42617     74.09829    78.740624    22.605184    25.530341 
    4600    236.40663   -375.71497    216009.12   -18683.341     1374.837   -20058.178   -998.30958    77.013089    78.740937    22.608032     25.53473 
    4800    244.18129   -309.10653    216009.12   -18547.192    1420.0511   -19967.243   -712.09297    79.128782     78.74179    22.606915    25.547601 
    5000    237.03563   -339.08827    216009.12   -18574.318     1378.495   -19952.813   -892.36906    80.969094     78.74366    22.604539    25.556888 
    5200    238.36343   -170.58024    216009.12    -18573.34    1386.2169   -19959.557   -111.87473      82.4825    78.742482    22.603382    25.563962 
    5400    239.09629   -287.02354    216009.12   -18605.325    1390.4789   -19995.804   -608.37616    84.624781    78.741906    22.602005    25.569757 
    5600    233.09474   -243.06993    216009.12   -18617.655    1355.5766   -19973.232   -429.87947    85.761391    78.741788    22.600454    25.569407 
    5800    240.99623   -441.60975    216009.12    -18557.48    1401.5281   -19959.008   -1299.7056    87.409071    78.742816    22.599355    25.582976 
    6000    243.00004   -244.92403    216009.12   -18591.784    1413.1814   -20004.965   -445.72867      88.8901    78.742091     22.59988    25.587389 
    6200    237.79151    -251.2191    216009.12   -18625.639    1382.8909    -20008.53   -500.15385    89.613833    78.740044    22.599591    25.585246 
    6400    236.79404   -278.79192    216009.12   -18590.594      1377.09   -19967.684   -624.14018    90.324391     78.73878    22.598904    25.587456 
    6600    237.14404   -266.00463    216009.12   -18632.738    1379.1255   -20011.864   -525.24842    93.590709    78.736581     22.60012    25.620765 
    6800    240.50988   -247.95161    216009.12   -18613.618    1398.6997   -20012.317     -455.072    96.768983    78.737822    22.598244    25.636643 
    7000    246.30319   -374.75151    216009.12   -18543.252    1432.3911   -19975.643   -955.93539    98.465649    78.736921    22.598984    25.626318 
    7200    233.84177    -385.7393    216009.12   -18647.474    1359.9209   -20007.395   -1014.8511     100.3682     78.73526    22.598322    25.615862 
    7400    236.39275   -467.69323    216009.12   -18591.627    1374.7563   -19966.384   -1413.6716    102.71115    78.735502    22.598299    25.629437 
    7600     236.9056   -246.68106    216009.12   -18543.767    1377.7388   -19921.505   -488.32036    103.94821    78.734674    22.599578    25.640226 
    7800    236.04124   -372.36397    216009.12   -18663.529    1372.7121   -20036.241    -985.5008    105.03964    78.734366    22.600811    25.632124 
    8000    246.56306   -346.57314    216009.12   -18584.627    1433.9024   -20018.529   -905.78657    107.86578    78.736007    22.600292    25.615609 
    8200    240.59205   -393.63415    216009.12   -18586.626    1399.1776   -19985.803   -1078.4181    108.18817    78.737686    22.602117    25.603977 
    8400    239.56945   -375.20417    216009.12   -18547.212    1393.2306   -19940.442   -1027.1001    110.16135    78.735766    22.605027    25.610832 
    8600    240.37517   -420.57691    216009.12   -18601.059    1397.9163   -19998.975   -1196.5296    111.03464    78.734554    22.604492     25.59122 
    8800    241.52646   -426.99865    216009.12   -18633.551    1404.6117   -20038.162   -1180.5281    111.62577    78.734633    22.604024    25.574983 
    9000    240.84269   -189.38689    216009.12   -18602.336    1400.6352   -20002.971   -215.58104    112.19569    78.737504    22.604042    25.587525 
    9200    242.55137   -273.81181    216009.12   -18568.422    1410.5721   -19978.995   -541.41448      112.908    78.738026    22.607043    25.578834 
    9400    241.29432   -262.97731    216009.12   -18602.945    1403.2617   -20006.206   -457.88019     114.8425    78.738253    22.606995    25.583287 
    9600    236.21684   -461.23869    216009.12   -18673.289    1373.7333   -20047.023   -1385.4081    116.34661    78.739237    22.605344    25.595338 
    9800    248.91583   -281.27161    216009.12   -18576.259     1447.585   -20023.844   -628.98482    116.40276    78.739438    22.604428    25.561011 
   10000    238.67068   -256.29313    216009.12   -18611.291    1388.0038   -19999.295   -500.37813     117.2616    78.739239     22.60395    25.545917 
   10200    250.87006   -308.47656    216009.12   -18521.883      1458.95   -19980.833   -755.71694    118.26375    78.738785      22.6044    25.542304 
   10400    242.44373   -266.90974    216009.12   -18525.396    1409.9462   -19935.342   -566.62439     118.0515    78.737739    22.603297    25.552001 
   10600    234.44251   -189.49243    216009.12   -18605.483    1363.4146   -19968.897   -213.34294    119.03302    78.738643     22.60037    25.540428 
   10800    240.89599   -324.21001    216009.12   -18629.297    1400.9452   -20030.242   -824.39203    119.74444    78.738531    22.597886     25.52895 
   11000    236.96738   -323.46926    216009.12   -18628.284    1378.0981   -20006.382   -784.50047    120.57402    78.736912    22.598723    25.531111 
   11200    235.58786    -343.3088    216009.12   -18609.379    1370.0754   -19979.455   -932.30665    120.85419    78.735534    22.599336    25.514319 
   11400    234.29399   -419.10398    216009.12   -18606.221    1362.5509   -19968.772   -1168.0386    121.39691    78.734364    22.600487    25.532899 
   11600    242.68971   -150.35802    216009.12   -18549.349    1411.3767   -19960.725   -42.925467    123.26142    78.733156    22.598701    25.534724 
   11800    237.66325   -232.01589    216009.12   -18529.534     1382.145   -19911.679   -442.43886    124.86876    78.733522    22.598247    25.537174 
   12000    240.88424   -357.06012    216009.12   -18543.056    1400.8769   -19943.932   -913.89762     125.2204    78.731013    22.596691     25.53418 
   12200      246.792   -236.54291    216009.12   -18583.024    1435.2338   -20018.258   -414.10827    125.43847    78.730021    22.598162    25.521379 
   12400    240.92241   -71.217446    216009.12   -18600.915    1401.0988   -20002.014    260.61441    125.52625    78.731814    22.597021    25.523875 
   12600    242.23035   -334.01173    216009.12   -18544.043    1408.7052   -19952.748   -885.79369     127.4444    78.731091     22.59848    25.492657 
   12800    238.45025   -334.87773    216009.12   -18554.524    1386.7218   -19941.246   -849.92088     128.3333    78.731369    22.600503    25.499962 
   13000    237.39323   -77.121188    216009.12   -18600.571    1380.5747   -19981.146    266.15389    129.42195    78.730513    22.602237    25.480414 
   13200    238.82404   -367.62604    216009.12   -18612.262    1388.8957   -20001.157   -1002.2815    131.05131    78.729912    22.604696    25.466093 
   13400    231.22609   -327.76517    216009.12   -18659.941    1344.7093    -20004.65   -812.97445    132.99219    78.730222    22.606508    25.451131 
   13600    240.48813   -145.99712    216009.12   -18647.021    1398.5732   -20045.594   -2.2121425    132.60966    78.729473    22.607553    25.465265 
   13800    241.91915   -418.89513    216009.12   -18574.719    1406.8954   -19981.614   -1205.5722    133.63549    78.728504    22.605787    25.473273 
   14000    246.91288   -256.63057    216009.12   -18563.263    1435.9368     -19999.2   -496.80888    134.59652    78.731135    22.604142    25.486896 
   14200    240.95105   -382.95267    216009.12   -18613.193    1401.2654   -20014.458   -1062.1198     135.8526    78.733281    22.602917    25.490566 
   14400    235.92731   -321.77133    216009.12   -18632.302    1372.0495   -20004.351   -791.63185     138.3811    78.734355    22.602439    25.507264 
   14600    241.41073    -372.9049    216009.12   -18635.458    1403.9387   -20039.397   -1037.9631    139.71425    78.735051     22.60293    25.495814 
   14800    239.81441   -271.53037    216009.12   -18614.679    1394.6552   -20009.334   -639.01772    140.71628    78.734304    22.604358    25.469934 
   15000    240.82731   -296.65038    216009.12   -18601.283    1400.5457   -20001.829   -668.86608    142.35172    78.734966    22.602478    25.464392 
   15200    239.01944   -108.93005    216009.12   -18571.719     1390.032   -19961.751     77.20371    142.74004    78.733617    22.602481    25.458349 
   15400    241.81113   -372.87805    216009.12   -18636.794    1406.2672   -20043.061   -1014.9557    144.21141    78.733089    22.600783    25.462808 
   15600    243.82967   -309.38748    216009.12   -18477.653    1418.0062   -19895.659    -724.5674    145.35466    78.733129    22.602534    25.462397 
   15800    242.63511   -355.43278    216009.12   -18511.192    1411.0591   -19922.251   -916.70999    145.60415    78.733381    22.603517    25.459342 
   16000    246.26039   -358.35899    216009.12   -18562.116    1432.1422   -19994.259   -996.18247    146.80055    78.734141    22.604352    25.463991 
   16200    234.90989    -378.6472    216009.12   -18552.386    1366.1327   -19918.519   -1024.9858    148.06753    78.734591    22.603906    25.476183 
   16400    241.42311   -450.02456    216009.12   -18573.952    1404.0107   -19977.962   -1339.9811    148.62499     78.73393    22.603837    25.468796 
   16600    246.38201   -356.66515    216009.12   -18501.134    1432.8495   -19933.983   -975.24364     150.6544    78.733737    22.603665    25.447873 
   16800    246.48332   -204.35293    216009.12   -18535.232    1433.4386    -19968.67   -325.94016    152.93364    78.734172    22.604345    25.451662 
   17000    234.79875   -480.79797    216009.12   -18595.049    1365.4863   -19960.535   -1427.4976    154.01354    78.735297    22.605741    25.448531 
   17200    236.14225   -538.87034    216009.12    -18591.74    1373.2995    -19965.04     -1732.84    156.15192     78.73541    22.606438    25.456466 
   17400    238.97236   -307.94879    216009.12   -18661.399    1389.7582   -20051.158   -767.50512    157.70726    78.736486    22.606426     25.45724 
   17600    241.91364   -295.81336    216009.12   -18618.609    1406.8634   -20025.473   -710.83322    159.68389    78.736676    22.605798    25.443418 
   17800     233.8244   -306.30311    216009.12    -18670.87    1359.8199    -20030.69   -724.33128    159.97612    78.736933    22.605495     25.42932 
   18000    241.47945   -356.78706    216009.12   -18638.488    1404.3383   -20042.827   -960.80785    161.75718    78.735751    22.604188    25.409255 
   18200    234.05938   -263.93458    216009.12   -18618.745    1361.1865   -19979.931    -530.1244    162.74238    78.733465    22.604142     25.42788 
   18400    235.21902   -456.16951    216009.12   -18584.803    1367.9304   -19952.733   -1336.5081    165.79431    78.734683    22.602584    25.410915 
   18600    239.01557    -404.1734    216009.12   -18574.126    1390.0095   -19964.135   -1155.8726    167.08557    78.734777    22.603995    25.432945 
   18800    238.67763   -394.29599    216009.12   -18619.867    1388.0442   -20007.911   -1082.5984    168.10278    78.733059    22.603233    25.448328 
   19000    245.84537     -300.188    216009.12   -18562.184    1429.7286   -19991.913   -682.47559    170.40215    78.732087    22.600373    25.438034 
   19200    234.81286   -256.74124    216009.12   -18599.757    1365.5684   -19965.325   -509.93876    171.24393    78.730623    22.599734    25.461862 
   19400    248.54559   -265.80935    216009.12    -18539.73    1445.4319   -19985.162   -552.68874    169.34984    78.732097    22.598446    25.483399 
   19600    239.21223   -273.91243    216009.12   -18567.275    1391.1532   -19958.428   -584.50347    170.33344    78.731806    22.600914    25.489215 
   19800    245.25901   -344.26757    216009.12   -18552.563    1426.3186   -19978.882   -862.06045    171.64939     78.73294     22.60028    25.491196 
   20000    246.51875   -335.15284    216009.12   -18589.164    1433.6447   -20022.809   -801.53155    172.55058    78.731962    22.600543    25.489596 
   20200    231.02202   -342.19846    216009.12   -18639.395    1343.5225   -19982.917   -934.37081    173.58268    78.731419    22.599742    25.492524 
   20400    245.95377   -218.68567    216009.12   -18543.955     1430.359   -19974.314   -331.38481    176.17907     78.73112    22.598656    25.471808 
   20600    232.20604   -218.30743    216009.12    -18611.95    1350.4082   -19962.358   -339.56592    177.63483    78.733608    22.597895    25.464574 
   20800    241.38349   -167.47268    216009.12   -18527.148    1403.7803   -19930.928   -103.35518    179.42148     78.73352    22.597592    25.466658 
   21000    237.05505   -346.66495    216009.12    -18565.46     1378.608   -19944.068   -883.57399    182.56782    78.732568    22.597854    25.463799 
   21200    239.72817   -384.85939    216009.12   -18505.485    1394.1536   -19899.639   -1031.2672    185.53123    78.732543    22.597809    25.458201 
   21400    243.32166   -334.45553    216009.12   -18533.803    1415.0518   -19948.855    -857.6931    185.97777    78.731231    22.596813    25.459107 
   21600    247.72942   -283.43136    216009.12   -18462.171    1440.6854   -19902.857   -621.25662    187.65219    78.731016    22.595708    25.504021 
   21800    242.82222   -339.10916    216009.12   -18584.252    1412.1473   -19996.399   -922.79887    187.38804    78.729264    22.597236     25.50378 
   22000    229.77019   -215.37487    216009.12   -18642.896    1336.2424   -19979.138   -330.66163    188.00171    78.726682     22.59636    25.487566 
   22200    238.78416    -295.5064    216009.12   -18666.576    1388.6637    -20055.24   -685.60863    189.71642    78.725908    22.595632    25.481931 
   22400    243.38417   -480.06464    216009.12   -18550.906    1415.4153   -19966.322   -1470.6675    190.45116    78.724478    22.593588    25.454863 
   22600    249.03954   -267.34882    216009.12   -18590.396    1448.3045   -20038.701    -537.6759     190.3724    78.726735    22.593244    25.457277 
   22800    244.94541   -300.08547    216009.12   -18555.081    1424.4948   -19979.575    -721.2005    192.55172     78.72705    22.591234    25.454625 
   23000    237.73654   -360.42774    216009.12   -18595.065    1382.5712   -19977.636   -959.69619    192.93578    78.727884    22.591758    25.445294 
   23200    240.81709     -189.026    216009.12   -18575.803    1400.4864   -19976.289   -266.90978    193.17482    78.728309    22.591159    25.423025 
   23400    242.30032   -319.49766    216009.12   -18591.159    1409.1122   -20000.271   -818.83771    195.20833    78.727225    22.590191    25.439166 
   23600    242.33106   -345.57933    216009.12   -18536.663    1409.2909   -19945.953   -924.90712    196.13053    78.726556    22.590348    25.441168 
   23800    236.30852   -277.70101    216009.12   -18519.599    1374.2665   -19893.865   -608.72243    198.29167    78.727866    22.589132    25.439527 
   24000    240.15652   -274.37818    216009.12   -18572.087    1396.6448   -19968.732   -575.65843    198.49783    78.726807    22.588935     25.42522 
   24200    236.02634   -379.64022    216009.12    -18547.15    1372.6254   -19919.776    -1059.057    198.90266    78.726123    22.588998    25.442239 
   24400    236.20739   -244.80581    216009.12    -18609.32    1373.6783   -19982.999    -439.1748     200.0052    78.723086    22.589168    25.458101 
   24600    239.49613   -249.27348    216009.12   -18680.491    1392.8042   -20073.295   -503.80364    201.33082    78.721501    22.591848    25.464354 
   24800     235.1398   -338.50749    216009.12   -18646.217    1367.4697   -20013.687   -820.16885    202.24352    78.720343    22.590888    25.465705 
   25000    235.17676    -253.1042    216009.12   -18632.821    1367.6847   -20000.505   -477.69661    203.27297    78.717121    22.590793    25.495021 
   25200    237.75942   -429.68247    216009.12   -18722.355    1382.7043   -20105.059   -1236.5117    203.72185    78.715024    22.590087    25.499285 
   25400     245.2543   -256.63734    216009.12   -18604.768    1426.2912    -20031.06   -476.51074    204.11802    78.715548    22.588903    25.510256 
   25600    243.34213   -244.70754    216009.12   -18477.313    1415.1709   -19892.484   -491.95465    206.15648    78.714261    22.588646    25.526916 
   25800    248.52118    -302.3638    216009.12   -18540.727    1445.2899   -19986.017   -713.87414     208.2843    78.714506    22.590057    25.522627 
   26000    235.58329   -268.24896    216009.12   -18572.346    1370.0488   -19942.395   -585.47141    210.35599    78.715156    22.591204    25.512362 
   26200    237.30539   -478.29102    216009.12   -18586.973    1380.0638   -19967.037   -1483.9826    211.30375    78.713905    22.591764    25.527443 
   26400    235.44066   -370.91537    216009.12   -18626.909    1369.2194   -19996.129    -1049.816     210.8834    78.716432    22.592733    25.501922 
   26600    241.18586   -213.60693    216009.12   -18541.551     1402.631   -19944.182   -370.65815    213.53987    78.718354    22.594093    25.500157 
   26800    243.94725    -226.7644    216009.12   -18572.761      1418.69   -19991.451   -396.26614    214.72655    78.718735    22.594071     25.51112 
   27000    244.96502   -412.38395    216009.12    -18495.18    1424.6089   -19919.789   -1168.1557    216.00374    78.716077    22.592895    25.504001 
   27200    239.35029   -350.59147    216009.12   -18581.232    1391.9561   -19973.188   -966.10379    218.17427    78.715054    22.592391    25.508065 
   27400    244.92174   -365.83691    216009.12   -18515.727    1424.3572   -19940.085   -959.05047    218.01569    78.714529    22.592284    25.527097 
   27600    236.90019   -298.59131    216009.12   -18653.265    1377.7073   -20030.972   -685.19448    218.98169    78.713167    22.592469     25.55028 
   27800    238.19773   -220.32427    216009.12   -18545.805    1385.2533   -19931.058   -314.38166    220.17071    78.712292    22.594071    25.536774 
   28000    233.72218   -329.19784    216009.12   -18629.894    1359.2255    -19989.12   -834.24921    221.98774    78.712563    22.593819    25.528593 
   28200    240.96277    -302.9013    216009.12   -18642.759    1401.3336   -20044.092   -738.81578    224.67628    78.711837    22.594853     25.51475 
   28400     241.4886    -312.2661    216009.12   -18669.656    1404.3916   -20074.047   -733.90436    227.11419    78.710497    22.596503    25.482996 
   28600    238.29492   -249.39221    216009.12   -18662.268    1385.8185   -20048.087   -471.60658     228.4086    78.711939    22.597121    25.488641 
   28800    235.08656   -465.77089    216009.12   -18626.594    1367.1601   -19993.754   -1377.9541    230.17666    78.710916    22.597221    25.505245 
   29000    246.68701   -237.48373    216009.12   -18580.227    1434.6232    -20014.85   -421.65262    230.68964    78.711563    22.596803    25.494518 
   29200    241.23101   -351.94445    216009.12    -18540.48    1402.8935   -19943.373   -884.28573    232.95467    78.710967    22.598715    25.502145 
   29400    239.68554   -133.03901    216009.12    -18541.65    1393.9058   -19935.556   -2.4617716    234.25663    78.709983    22.597861    25.505538 
   29600    237.46881   -324.53754    216009.12   -18549.777    1381.0142   -19930.791   -833.29982    235.52362    78.712613    22.600257    25.470055 
   29800    234.81884   -350.02823    216009.12   -18615.645    1365.6032   -19981.248   -909.69776    237.47895    78.715135    22.599032    25.477311 
   30000    236.91492   -294.11223    216009.12   -18683.398     1377.793   -20061.191   -666.12532    238.41178    78.715389    22.595126    25.495852 
   30200    243.88156   -324.96325    216009.12   -18638.624     1418.308   -20056.932   -844.40181    240.67055     78.71274    22.597361    25.492738 
   30400    239.30276   -264.21211    216009.12   -18610.353    1391.6797   -20002.033    -535.4425    244.00751    78.711723    22.600466    25.486143 
   30600    231.92284   -429.18759    216009.12   -18673.577    1348.7613   -20022.338   -1237.6805    246.33871    78.713941    22.602329    25.520627 
   30800    244.56419   -294.66649    216009.12   -18633.612    1422.2778    -20055.89   -698.16717    248.56933    78.714359    22.602589    25.510207 
   31000    240.35535   -288.81912    216009.12    -18624.53    1397.8011   -20022.331   -635.21426    250.07687     78.71568    22.602262    25.484101 
   31200    237.41568   -113.55363    216009.12    -18615.33    1380.7052   -19996.036    49.474142    250.52526    78.715825    22.600343    25.484611 
   31400    243.57934      -421.04    216009.12    -18566.97    1416.5504   -19983.521   -1222.6631    250.26313    78.718254    22.603447    25.481381 
   31600    235.26467   -434.65283    216009.12   -18629.648    1368.1959   -19997.844   -1285.0318    250.01852    78.717206    22.604062    25.492811 
   31800    241.38266   -163.39648    216009.12   -18551.794    1403.7754   -19955.569   -143.69822    251.51658    78.717305    22.603748    25.463734 
   32000    236.09416   -283.01928    216009.12   -18640.129    1373.0199   -20013.149   -598.52225    252.35757     78.71852    22.602465    25.467237 
   32200    237.32528   -384.28581    216009.12   -18651.092    1380.1795   -20031.272   -1031.4763    253.38929      78.7217    22.601989    25.477607 
   32400    240.77533   -389.57397    216009.12   -18641.553    1400.2435   -20041.796   -1118.7795    254.23082    78.724521    22.601147    25.474643 
   32600    242.57285   -229.94202    216009.12   -18585.384     1410.697   -19996.081    -395.4777    253.12527    78.727236     22.60167    25.416878 
   32800    243.03446   -221.47912    216009.12   -18594.624    1413.3816   -20008.006   -342.54009    255.51157    78.728254    22.603442    25.411577 
   33000    236.13202   -297.63129    216009.12   -18588.827      1373.24   -19962.067   -676.25227    256.00197    78.730557     22.60259    25.398606 
   33200    238.12642    -304.0623    216009.12   -18622.001    1384.8386    -20006.84   -699.18678    260.41554    78.730137    22.601374    25.410754 
   33400    233.11706   -371.40391    216009.12   -18669.748    1355.7064   -20025.455   -1018.7284    264.16177    78.731022    22.599823    25.397587 
   33600    238.96567   -331.08171    216009.12   -18680.311    1389.7193   -20070.031   -851.61555    265.25875    78.731973    22.600791    25.410445 
   33800    248.34535     -264.987    216009.12   -18520.096    1444.2674   -19964.363   -521.50052    263.36491     78.73458    22.600634    25.414656 
   34000    240.26419   -310.68396    216009.12   -18628.385    1397.2709   -20025.656   -747.36241    263.41804    78.734298    22.599227     25.43939 
   34200    238.42267   -401.78626    216009.12   -18597.358    1386.5614    -19983.92   -1170.4001     266.5945    78.733817    22.599068    25.429348 
   34400     238.5285   -242.23434    216009.12     -18642.4    1387.1769   -20029.577   -458.51911    267.23396    78.734277    22.600255    25.435599 
   34600    245.97952   -346.51112    216009.12   -18547.728    1430.5088   -19978.237   -936.66916    272.87267    78.737073    22.600051    25.429211 
   34800    236.25379   -405.19362    216009.12    -18650.53    1373.9482   -20024.478   -1170.4387    274.05892    78.737408    22.602848    25.425346 
   35000     238.5695   -258.64601    216009.12   -18654.487    1387.4154   -20041.902   -520.99855    274.98001    78.736011    22.607578    25.435586 
   35200    244.97917   -268.14375    216009.12   -18559.972    1424.6912   -19984.663   -567.90098    274.91055    78.736996    22.611283    25.447223 
   35400     236.8413   -313.94521    216009.12    -18586.16    1377.3649   -19963.525   -706.90972    276.80783    78.738958    22.614807    25.449095 
   35600    236.21989   -289.91931    216009.12   -18598.011    1373.7511   -19971.762   -676.31209    279.01207    78.741229     22.61831    25.451426 
   35800    241.74026   -309.00668    216009.12   -18536.894    1405.8551   -19942.749   -734.07724    281.88272    78.742432     22.62044    25.451009 
   36000    241.15743   -311.96217    216009.12   -18633.723    1402.4656   -20036.189    -717.0003    283.10912     78.74382      22.6224    25.449942 
   36200    246.86617   -179.07048    216009.12   -18636.074    1435.6651   -20071.739   -221.88057    285.35546    78.744587    22.622843    25.448212 
   36400    243.58167   -209.30122    216009.12   -18630.394    1416.5639   -20046.958   -283.07603    287.56925    78.747274    22.622788    25.469113 
   36600    236.73218   -391.70444    216009.12   -18619.074    1376.7303   -19995.804   -1115.1129    288.58195    78.746668    22.624726    25.479578 
   36800    235.66261    -334.1102    216009.12   -18672.627    1370.5101   -20043.138   -848.71208    290.74299    78.748374    22.625208    25.481427 
   37000    238.39422   -275.22056    216009.12   -18636.642     1386.396   -20023.038   -615.74279    290.86224    78.750768    22.627763    25.476447 
   37200    236.85859   -318.52546    216009.12   -18660.595    1377.4654    -20038.06   -764.89369    290.88409    78.750518    22.625872    25.476195 
   37400    236.01622   -382.41367    216009.12   -18648.731    1372.5666   -20021.297   -1002.3236    290.40486    78.749444    22.626359     25.47183 
   37600    234.24648   -255.77198    216009.12   -18651.375    1362.2745   -20013.649   -518.85278    292.85324     78.75127    22.627128    25.455623 
   37800    233.99385   -240.10378    216009.12   -18685.442    1360.8054   -20046.248   -468.49737    295.03296    78.751721    22.625412    25.434687 
   38000    237.61651   -351.11607    216009.12   -18597.541    1381.8731   -19979.415   -923.56095    296.14775    78.752343    22.625926    25.431616 
   38200    247.50477    -321.9888    216009.12   -18595.627     1439.379   -20035.006   -831.43787    297.18699    78.752858    22.624408     25.42598 
   38400    238.59187   -327.19931    216009.12   -18557.053    1387.5455   -19944.598   -822.59641    301.19232    78.751209    22.624528    25.421444 
   38600    237.81571   -223.00193    216009.12   -18597.393    1383.0316   -19980.425    -425.1176    302.28248    78.749204    22.622404    25.409462 
   38800    236.98666   -167.58513    216009.12   -18581.938    1378.2103   -19960.148   -152.20795    300.49135    78.749228    22.620554    25.418781 
   39000    247.39346   -331.06662    216009.12   -18537.859    1438.7316   -19976.591   -822.86032    301.50714    78.748852    22.619029    25.414528 
   39200    230.51056   -260.24455    216009.12   -18650.739    1340.5481   -19991.287   -526.79898    302.59999      78.7487      22.6178    25.392375 
   39400    240.94815   -424.46093    216009.12   -18616.933    1401.2485   -20018.181   -1210.8242    304.61085    78.751378    22.619737    25.413769 
   39600    240.08145   -197.94701    216009.12   -18561.813    1396.2082   -19958.021   -254.52399    305.80103     78.75256    22.620023    25.401164 
   39800     243.3788   -342.32975    216009.12   -18609.524    1415.3841   -20024.908   -914.67973    305.81317    78.753509    22.618608    25.415583 
   40000    241.40473   -337.40715    216009.12   -18564.812    1403.9038   -19968.715   -838.15535    307.01537    78.751702    22.619773    25.433244 
   40200     239.4397   -325.96117    216009.12   -18577.534     1392.476    -19970.01   -806.46022     307.3761    78.751949    22.619103    25.447118 
   40400    240.28827   -359.97994    216009.12   -18617.429    1397.4109    -20014.84   -932.40767    309.67509    78.750196    22.620037    25.444811 
   40600    244.31064   -438.38079    216009.12   -18529.908    1420.8033   -19950.711   -1314.8504    311.85082    78.750452    22.620755     25.44034 
   40800     238.5113   -445.95122    216009.12   -18592.412    1387.0769   -19979.488   -1356.7599    313.02033    78.749251    22.621281    25.436846 
   41000    237.59797   -270.65962    216009.12   -18536.258    1381.7653   -19918.023   -563.71172    313.38285    78.749477    22.618375     25.45506 
   41200    250.48051   -252.94322    216009.12   -18506.604    1456.6845   -19963.289   -497.29805    313.26137    78.750191    22.617518    25.462781 
   41400    241.59551   -374.26808    216009.12   -18553.079    1405.0133   -19958.092   -1021.2995    315.13332    78.750841    22.616871    25.448366 
   41600    241.04383   -374.84162    216009.12   -18533.972    1401.8049   -19935.777   -1038.1304    317.91459    78.752677    22.618383    25.450426 
   41800    243.31185   -377.28204    216009.12   -18513.629    1414.9948   -19928.623   -1043.2755    318.97685    78.753833    22.615658    25.442655 
   42000    239.14712   -307.17805    216009.12   -18569.524    1390.7745   -19960.298   -736.82716    322.90614    78.754907    22.615208    25.440649 
   42200    232.00107   -389.69119    216009.12    -18629.29    1349.2162   -19978.507   -1098.6446    327.63909    78.755337    22.614387    25.430249 
   42400     241.1902   -274.14171    216009.12   -18590.295    1402.6562   -19992.952    -585.8605    329.04102    78.754434    22.614263    25.422724 
   42600     232.4948   -282.63387    216009.12   -18623.423    1352.0875   -19975.511   -609.72593    329.62581    78.756179    22.613459    25.435192 
   42800    233.23481    -285.2692    216009.12   -18544.356    1356.3911   -19900.747   -639.94219    331.17444    78.756357    22.614816    25.461126 
   43000    239.46943   -365.30745    216009.12   -18555.013    1392.6489   -19947.662   -932.41189    334.18805    78.754376     22.61174     25.42606 
   43200    237.76106   -350.45973    216009.12   -18539.957    1382.7138   -19922.671   -880.06323    335.75572    78.753226    22.613676    25.414512 
   43400    237.71042   -144.59341    216009.12   -18564.348    1382.4193   -19946.767   -34.991615    337.81147    78.755043    22.614171    25.429985 
   43600    236.56925   -384.96222    216009.12   -18579.608    1375.7828   -19955.391   -1079.8356    338.83217    78.755891     22.61498    25.451904 
   43800    236.57982   -377.60572    216009.12   -18618.472    1375.8443   -19994.316   -1032.2717    341.26548    78.755324    22.612054    25.460803 
   44000    236.33904   -373.20645    216009.12   -18638.513     1374.444   -20012.957   -989.71193    344.39726     78.75516    22.608838    25.480156 
   44200    239.66147   -339.30247    216009.12   -18616.373    1393.7658   -20010.139   -882.73772    348.97938    78.754652    22.608213    25.499346 
   44400    235.03969   -284.56527    216009.12   -18660.472    1366.8875    -20027.36   -643.24746     353.4588    78.754284    22.609106    25.507347 
   44600    237.90041   -343.08939    216009.12   -18675.005    1383.5242   -20058.529   -904.51335    355.88952    78.755311    22.611764    25.503381 
   44800    229.50377   -341.70507    216009.12   -18660.774     1334.693   -19995.468    -849.3712    358.47399    78.755478    22.611241    25.484341 
   45000    239.10246   -230.80269    216009.12   -18644.368    1390.5148   -20034.883   -390.35024    358.95705    78.754733    22.611882    25.498072 
   45200    237.65157   -384.02276    216009.12   -18604.584     1382.077   -19986.661   -1060.4537    360.13621     78.75347    22.613122    25.509599 
   45400    236.25457   -242.01213    216009.12   -18661.507    1373.9527    -20035.46   -464.50693    362.24587    78.753504    22.611783    25.510756 
   45600    241.76769   -257.38982    216009.12   -18560.423    1406.0146   -19966.438    -540.8837     363.7588    78.756731    22.612206    25.525681 
   45800    239.81752   -438.87321    216009.12   -18625.697    1394.6733   -20020.371   -1257.3504    367.01638    78.757167     22.61295    25.529173 
   46000    239.65282   -269.40224    216009.12   -18570.684    1393.7155   -19964.399   -572.13328    364.71966    78.757667    22.614394    25.525007 
   46200    244.44042   -325.20886    216009.12   -18555.997     1421.558   -19977.555    -782.6307    362.33106    78.756186    22.612786    25.518288 
   46400    241.17943   -352.73106    216009.12   -18631.607    1402.5936   -20034.201   -924.33566    362.56822    78.756058    22.613532    25.521746 
   46600    240.74434   -319.37224    216009.12   -18608.301    1400.0633   -20008.364   -809.57784    361.33604       78.755    22.613503     25.49875 
   46800    246.22714   -362.36675    216009.12   -18558.031    1431.9488    -19989.98    -978.3124    361.16688    78.754073    22.612577    25.486123 
   47000    245.42111   -324.32154    216009.12   -18527.523    1427.2613   -19954.784   -820.21307    361.88285    78.755664    22.614148     25.46413 
   47200    235.31973   -300.46322    216009.12   -18618.599    1368.5161   -19987.115   -706.73752    360.28488    78.756211    22.615295    25.497026 
   47400     240.4185   -259.69374    216009.12   -18564.718    1398.1683   -19962.886   -572.02376    361.28997    78.757081    22.616104    25.502767 
   47600    239.06454   -198.00092    216009.12   -18608.658    1390.2943   -19998.952   -315.02452    364.38065    78.757808    22.613375    25.518426 
   47800    245.25093   -252.89149    216009.12   -18560.501    1426.2716   -19986.772   -499.17942    368.37374    78.758527    22.614589    25.549069 
   48000    241.42569   -291.48517    216009.12   -18566.961    1404.0257   -19970.987   -673.61626    371.31896    78.758727    22.615741    25.554122 
   48200    241.67156   -331.46833    216009.12   -18577.533    1405.4555   -19982.989   -832.14703    374.33252    78.758785    22.616225    25.562969 
   48400    237.16133   -291.11353    216009.12   -18556.364     1379.226    -19935.59   -667.84961    379.00911    78.757811    22.615716    25.563736 
   48600    225.91956   -463.76528    216009.12   -18660.322    1313.8488    -19974.17   -1436.2339    382.22246    78.757433    22.618289    25.582663 
   48800    245.79018   -166.42455    216009.12   -18642.276    1429.4076   -20071.684   -168.99369    383.03432    78.755496    22.615624    25.596625 
   49000    232.23772   -394.79749    216009.12   -18631.519    1350.5925   -19982.111   -1091.7549    383.83543    78.754999    22.614338    25.597508 
   49200    242.06978   -396.70214    216009.12   -18573.431    1407.7714   -19981.202   -1115.7732    383.31299    78.753348    22.615832    25.577447 
   49400    231.81797   -392.68512    216009.12   -18647.588    1348.1514    -19995.74   -1141.0249    384.52527     78.75544    22.615219    25.563981 
   49600    238.66756   -82.309424    216009.12   -18599.243    1387.9856   -19987.229    173.90858    385.27393    78.756202    22.615092    25.554771 
   49800    243.48143   -491.18633    216009.12    -18579.74     1415.981   -19995.721   -1503.9429     387.1474    78.756055    22.614227    25.560643 
   50000    243.88044   -259.38606    216009.12   -18611.042    1418.3014   -20029.343     -545.808     385.0659    78.756072    22.613193    25.578456 
   50200    233.95961    -385.5654    216009.12   -18546.824    1360.6062    -19907.43   -1057.6381    388.82673    78.755439    22.612511    25.581818 
   50400    240.28649   -269.50425    216009.12   -18586.253    1397.4006   -19983.654   -557.90597    388.14114    78.756039       22.613    25.586163 
   50600    243.17489   -348.85173    216009.12   -18501.597    1414.1983   -19915.796   -918.65832    388.27468    78.757888    22.612294    25.570094 
   50800    239.73539   -382.58324    216009.12   -18614.947    1394.1957   -20009.142   -1008.0728    386.89967    78.755552    22.612525    25.551656 
   51000    238.31399   -258.85514    216009.12    -18560.42    1385.9294   -19946.349   -506.92791    388.14341    78.755742    22.614418    25.538617 
   51200     232.8694   -210.17746    216009.12   -18577.881    1354.2661   -19932.147   -283.24793    389.66627    78.758156    22.616423    25.560901 
   51400    244.77248    -244.3584    216009.12   -18586.203    1423.4892   -20009.692   -446.19269    389.01256     78.75786    22.616933    25.553504 
   51600    241.60682   -425.93837    216009.12   -18628.749    1405.0791   -20033.828   -1260.5422    388.12517    78.759532    22.617906    25.549496 
   51800    230.42626    -66.05948    216009.12   -18536.272    1340.0578    -19876.33     334.8509    387.22923    78.760503    22.616517    25.551493 
   52000    235.16278   -220.50737    216009.12   -18603.858    1367.6033   -19971.461   -356.49112    390.11493    78.760441    22.614116    25.558533 
   52200    230.20418   -277.36757    216009.12   -18629.057    1338.7663   -19967.823   -600.97447    388.79794    78.757797    22.612629    25.566947 
   52400    237.96362   -337.37759    216009.12   -18645.117    1383.8918   -20029.009   -851.08021    388.55766    78.758487    22.613109    25.560321 
   52600    237.93847   -322.06904    216009.12   -18587.242    1383.7456   -19970.987   -794.14348    389.74349    78.757924     22.61155    25.562912 
   52800    239.43251   -353.45053    216009.12   -18477.674    1392.4342   -19870.108   -935.66718    390.99488    78.760334    22.613168    25.577819 
   53000    252.14604   -277.54023    216009.12   -18476.477    1466.3705   -19942.847     -565.532    395.18352    78.761867     22.61282     25.56928 
   53200    239.58508   -317.77637    216009.12   -18587.193    1393.3215   -19980.515   -781.31015    398.61977    78.762215    22.612328    25.548375 
   53400    242.54475   -369.19198    216009.12   -18563.124    1410.5336   -19973.657   -963.40063    399.03382    78.763747    22.613774     25.52896 
   53600    238.01796   -226.01005    216009.12   -18653.039    1384.2078   -20037.247   -385.26811    400.01733    78.766386    22.614196    25.555048 
   53800    234.66395   -336.00471    216009.12   -18620.115    1364.7024   -19984.817   -871.20266    402.07963     78.76467    22.613697    25.563986 
   54000    235.61184   -217.66678    216009.12   -18613.506    1370.2149   -19983.721   -355.97934    402.94826    78.766509    22.613611    25.571121 
   54200    233.99008   -453.47716    216009.12   -18545.312    1360.7834   -19906.095   -1350.3973    403.18889    78.764187    22.611615     25.56426 
   54400    244.92983   -281.66432    216009.12   -18502.978    1424.4042   -19927.383   -659.50727    401.59302    78.762505    22.612074     25.56466 
   54600     242.3472   -280.71298    216009.12   -18558.099    1409.3848   -19967.484   -595.59201    401.36484    78.766237    22.611064    25.558017 
   54800    235.56938   -240.28758    216009.12   -18542.704     1369.968   -19912.672   -478.32075     401.7951    78.766349     22.60852    25.543591 
   55000    244.31024   -326.62219    216009.12   -18507.216     1420.801   -19928.017   -796.33746     402.8124    78.766264    22.609226    25.558175 
   55200    231.37716   -230.66334    216009.12   -18652.341    1345.5879   -19997.929   -387.11094    403.03111    78.768628    22.608079    25.549356 
   55400     241.0183    -312.4318    216009.12    -18625.75    1401.6565   -20027.406   -757.05826    404.30459    78.766062    22.611985    25.559917 
   55600    243.81403   -267.49853    216009.12   -18616.255    1417.9152    -20034.17    -557.6146    407.95961    78.765419    22.611641    25.552365 
   55800    249.39227   -287.35701    216009.12   -18519.254    1450.3558   -19969.609   -680.23652    411.36359     78.76711     22.61147    25.545163 
   56000    241.21159   -108.59124    216009.12   -18548.105    1402.7806   -19950.885    125.49244    410.07288    78.767692    22.612437    25.575212 
   56200    243.03986    -371.3778    216009.12   -18534.443     1413.413   -19947.856    -999.5124    407.36397    78.768954    22.609834    25.575498 
   56400    231.86708   -333.19725    216009.12   -18636.239     1348.437   -19984.676   -829.81457    408.10206    78.766506    22.608782    25.564157 
   56600    232.24278   -275.65754    216009.12   -18696.533    1350.6219   -20047.155    -553.8938    409.25433    78.765596    22.609659    25.589199 
   56800    239.37415   -315.74274    216009.12   -18651.007    1392.0948   -20043.102   -751.08907    411.23936    78.764414    22.611526    25.578865 
   57000     241.2189   -84.426052    216009.12    -18714.46    1402.8231   -20117.283    209.89421    409.63757     78.76296    22.609876    25.567112 
   57200    241.93486   -285.12654    216009.12   -18618.753    1406.9868    -20025.74   -642.11426    412.65618    78.762125    22.605884    25.559262 
   57400    231.97814   -263.46052    216009.12    -18645.43    1349.0829   -19994.513   -515.30159     414.6184    78.761574    22.604021     25.56217 
   57600    233.51711   -297.85976    216009.12    -18659.14    1358.0329   -20017.173   -707.94237    415.03546    78.760106    22.606675    25.558419 
   57800    236.58285   -278.76956    216009.12   -18562.437    1375.8619   -19938.299   -580.92355    415.96185    78.762589    22.608783    25.558183 
   58000    245.69434   -455.33392    216009.12    -18595.15    1428.8502   -20024.001   -1299.8664    419.73335    78.764171    22.608425    25.546805 
   58200    242.77258   -258.94895    216009.12   -18561.677    1411.8586   -19973.535   -510.00659     422.1569    78.764717    22.608057    25.538251 
   58400    237.29335   -283.67144    216009.12   -18603.755    1379.9938   -19983.749   -635.07169    424.75674    78.764521    22.607624     25.51008 
   58600    242.90907   -538.00855    216009.12   -18643.262    1412.6524   -20055.914   -1696.9764    427.69938    78.762677    22.606376    25.518323 
   58800    242.90844   -329.32897    216009.12    -18631.22    1412.6487   -20043.868   -808.70873    428.00535    78.761509    22.604839    25.509622 
   59000    248.69529   -310.40879    216009.12   -18562.776    1446.3025   -20009.078   -688.96678    427.80506    78.760751    22.604298     25.53111 
   59200    241.70518   -224.90387    216009.12   -18610.213    1405.6511   -20015.864   -353.15719    426.64013    78.758598     22.60654    25.540956 
   59400    239.52549   -283.02256    216009.12   -18633.096     1392.975   -20026.071   -624.84875    427.63674    78.759763    22.606338    25.552418 
   59600    236.82166   -467.30951    216009.12   -18658.863    1377.2507   -20036.114   -1377.9379    429.28949    78.758548    22.607827    25.558553 
   59800    240.49476   -178.01976    216009.12   -18622.839    1398.6118    -20021.45   -179.38069    428.32549    78.758413    22.608127    25.575982 
   60000    236.63788   -262.17167    216009.12   -18580.045    1376.1819   -19956.227   -557.34283    429.53206    78.759346    22.608542    25.590142 
   60200    237.86259   -378.86327    216009.12   -18600.917    1383.3043   -19984.221   -1024.9134    430.48521    78.760612    22.609053    25.604085 
   60400     240.8062    -186.6199    216009.12   -18599.647     1400.423    -20000.07    -206.1215    430.22169    78.759639    22.609354    25.581364 
   60600    237.45532   -298.34155    216009.12   -18562.179    1380.9357   -19943.115    -697.9901    432.63774    78.759858    22.607313     25.57592 
   60800    241.72375   -161.45443    216009.12   -18499.623     1405.759   -19905.382   -77.903977    430.89065    78.757882    22.605598      25.5399 
   61000    245.11575   -376.49168    216009.12   -18566.328    1425.4855   -19991.813    -979.9162    433.62673    78.756982    22.606578    25.527851 
   61200    251.70711   -177.61185    216009.12   -18521.018    1463.8179   -19984.836    -168.0336    434.01123    78.754388     22.60595    25.540107 
   61400    240.67761   -344.97247    216009.12   -18538.429    1399.6752   -19938.104   -901.63749    434.31087    78.752851    22.604412    25.539072 
   61600    245.94872    -339.6157    216009.12   -18580.119    1430.3296   -20010.448   -868.66009    436.61849    78.753339    22.603652    25.547825 
   61800     233.4428   -436.33593    216009.12   -18625.612    1357.6007   -19983.213   -1321.4583     438.3223    78.752158    22.601141    25.559641 
   62000    242.21877   -220.52222    216009.12   -18570.102    1408.6379    -19978.74   -397.97527    435.22427    78.751688    22.601254    25.560746 
   62200    244.70642   -415.47687    216009.12   -18531.454     1423.105   -19954.559   -1209.1617    435.85928    78.752778    22.602279    25.574996 
   62400     240.5248   -272.05809    216009.12   -18559.675    1398.7865   -19958.462   -576.61696    437.29382    78.751318    22.604916    25.577207 
   62600     237.6448   -493.23011    216009.12   -18620.854    1382.0377   -20002.891   -1540.5821    436.38165    78.751451    22.607143    25.569338 
   62800    229.08913   -223.18216    216009.12   -18704.133    1332.2817   -20036.415   -370.14275    436.71456    78.752489    22.607412    25.580559 
   63000    239.43407   -226.27695    216009.12   -18573.762    1392.4433   -19966.205    -389.5908    438.69083    78.754858    22.608323    25.574926 
   63200    242.63168   -356.87223    216009.12   -18571.049    1411.0392   -19982.088   -977.79171    439.43481    78.755255    22.607254    25.598403 
   63400    233.97335   -404.76931    216009.12   -18635.018    1360.6862   -19995.704   -1164.4025     443.5554    78.753951    22.605249    25.600381 
   63600    234.70216   -428.57589    216009.12   -18623.148    1364.9246   -19988.073   -1288.5059    442.40209    78.754711    22.604591    25.622818 
   63800    233.73947   -392.99515    216009.12    -18634.55     1359.326   -19993.876   -1118.9202      443.274    78.751438     22.60213    25.632659 
   64000    243.07558   -193.76574    216009.12   -18545.229    1413.6207    -19958.85   -212.02599    441.82357    78.752618    22.602483    25.615101 
   64200    234.07607   -430.80967    216009.12   -18556.873    1361.2835   -19918.156   -1289.2654    444.49572    78.753327    22.606462    25.626654 
   64400    236.43555   -297.60923    216009.12   -18587.884    1375.0052   -19962.889   -692.55393     444.3959    78.751167    22.607926    25.617261 
   64600    234.03584   -303.30427    216009.12   -18641.227    1361.0495   -20002.277   -714.82731    445.86167    78.750998    22.608159    25.605248 
   64800    239.57513   -387.72975    216009.12   -18615.696    1393.2636   -20008.959   -1088.0309     448.6162    78.752229    22.607067    25.620853 
   65000    240.29071   -202.06359    216009.12   -18542.114    1397.4251   -19939.539    -275.5748    449.70024    78.753165    22.609003       25.634 
   65200    236.76708   -311.44773    216009.12   -18592.847    1376.9333    -19969.78   -750.01553    451.69676    78.750691    22.608238    25.601517 
   65400    235.11474   -309.03346    216009.12   -18588.328     1367.324   -19955.652   -724.96956    452.07915    78.748753    22.608301    25.585941 
   65600    250.39354   -259.92536    216009.12   -18532.905    1456.1788   -19989.084   -534.11213    454.80018    78.747359    22.607179    25.569419 
   65800    242.17805   -233.44826    216009.12   -18551.699    1408.4011     -19960.1   -383.11118    455.81813    78.748325    22.606517    25.562148 
   66000    240.40698    -226.3305    216009.12   -18585.756    1398.1013   -19983.858   -389.17271    455.10028    78.748529    22.608675    25.576406 
   66200    232.87772   -172.19783    216009.12   -18646.125    1354.3144    -20000.44   -147.69372    457.83294    78.748442    22.610896    25.563163 
   66400    239.40632   -184.77505    216009.12   -18649.642    1392.2819   -20041.924     -184.064    459.02087    78.747644    22.608143    25.559373 
   66600    238.45061   -291.85437    216009.12   -18657.419    1386.7239   -20044.143   -650.15382    460.68938    78.748632      22.6112    25.589152 
   66800    234.36477   -152.29322    216009.12   -18670.195    1362.9625   -20033.157   -90.145511    462.63587    78.748458     22.61251    25.590275 
   67000     230.8194   -425.63205    216009.12   -18700.343    1342.3442   -20042.687   -1208.1884    464.30716    78.747672    22.612665    25.579344 
   67200    242.80174   -454.51036    216009.12   -18610.981    1412.0282   -20023.009   -1344.3077     465.6546    78.745933    22.613678    25.580814 
   67400    242.45461   -172.72765    216009.12     -18588.3    1410.0094   -19998.309   -161.85706    465.75311    78.746522    22.615205    25.596448 
   67600    245.66019     -471.681    216009.12   -18565.224    1428.6517   -19993.876   -1448.3545    469.59071     78.74449    22.617957    25.576569 
   67800     238.4569   -271.08476    216009.12   -18590.014    1386.7605   -19976.774   -577.87707    469.35448     78.74462    22.619311    25.565758 
   68000     241.6775   -174.52837    216009.12   -18604.997    1405.4901   -20010.487   -197.88404    470.80244    78.742948     22.62079    25.544094 
   68200    237.89637   -298.33219    216009.12   -18626.783    1383.5007   -20010.284   -704.74152    471.94115    78.739757    22.617519    25.560553 
   68400    240.09405   -318.39901    216009.12   -18574.873    1396.2815   -19971.154   -767.19316    473.34245    78.740562    22.618047    25.561845 
   68600    231.12355   -300.06827    216009.12     -18593.4     1344.113   -19937.513   -666.94018    472.95437    78.741517    22.617923    25.588354 
   68800    241.73605   -361.46063    216009.12   -18586.702    1405.8306   -19992.532   -984.33849    473.64495     78.74081    22.619056    25.582566 
   69000    237.44083   -320.88695    216009.12    -18582.14    1380.8515   -19962.992   -837.74061    475.16785    78.742102    22.619022     25.57118 
   69200    238.20833   -340.22905    216009.12   -18650.323    1385.3149   -20035.638     -884.598    477.78247    78.743946    22.621196    25.563921 
   69400    231.45357   -209.03931    216009.12   -18683.964    1346.0322   -20029.996   -386.23097    478.38858     78.74072    22.621675    25.559082 
   69600    243.91588   -336.35869    216009.12    -18507.67    1418.5076   -19926.178     -827.942    481.63418    78.738316    22.624712    25.533347 
   69800    234.39727   -277.72657    216009.12   -18607.157    1363.1515   -19970.308   -624.49088    483.18314    78.740319    22.627655    25.521875 
   70000    246.40568   -312.76412    216009.12   -18588.402    1432.9871   -20021.389   -748.01884    485.50656    78.744008    22.627675    25.521106 
   70200    238.69437   -339.79535    216009.12   -18557.338    1388.1415    -19945.48    -869.0886    485.62079    78.743319    22.629087    25.507969 
   70400     245.4877   -429.84162    216009.12   -18512.144    1427.6486   -19939.793   -1281.9788    487.38445    78.743971    22.629929    25.490621 
   70600    234.50448   -384.49234    216009.12   -18581.492     1363.775   -19945.267   -1078.3834    488.55649    78.742675    22.630505    25.477362 
   70800    234.54646   -432.45171    216009.12    -18608.31    1364.0191   -19972.329   -1313.4303    490.82447    78.743485    22.630941    25.484238 
   71000    234.53809   -193.21665    216009.12   -18635.415    1363.9704   -19999.386   -271.92256    490.70817    78.742255    22.630944    25.463041 
   71200    242.71176   -274.67871    216009.12   -18606.889    1411.5049   -20018.394   -616.10981    491.44001    78.744783    22.631718    25.457416 
   71400    233.63745   -346.56736    216009.12   -18657.014    1358.7327   -20015.747   -930.80066    490.36756    78.745087    22.633784    25.490272 
   71600     236.7947   -291.44253    216009.12   -18599.873    1377.0939   -19976.967   -672.37615    492.22429    78.746285    22.635809    25.473205 
   71800    231.34123   -279.38184    216009.12   -18661.656    1345.3789   -20007.035   -603.93182    492.68752    78.745358    22.636309    25.467565 
   72000    238.75579    -455.7214    216009.12   -18657.643    1388.4987   -20046.141   -1386.5285    492.03615    78.744581    22.637022    25.476979 
   72200     241.4332   -386.67588    216009.12   -18509.255    1404.0694   -19913.324   -1043.0238    494.71568    78.745665    22.635584    25.480908 
   72400     237.4844   -177.05661    216009.12   -18576.598    1381.1049   -19957.702   -166.00494     496.2538    78.741027    22.633097    25.483384 
   72600    241.83714   -485.03681    216009.12   -18536.112    1406.4185   -19942.531    -1494.464    498.58353    78.741028    22.630089    25.468428 
   72800    242.09373   -314.40863    216009.12   -18569.035    1407.9107   -19976.946   -797.80224    500.53004    78.740954    22.630473    25.468224 
   73000    234.61365   -360.37069    216009.12   -18640.329    1364.4098   -20004.739   -1032.8597    500.36056    78.742597    22.628715    25.494665 
   73200    242.85197   -256.86384    216009.12   -18522.987    1412.3203   -19935.308   -496.30596    504.69421    78.743333    22.629771    25.495454 
   73400    239.17779   -273.21017    216009.12   -18558.117    1390.9529    -19949.07   -558.65408    506.39108    78.742924    22.627544     25.51466 
   73600    244.97132   -243.64715    216009.12    -18568.04    1424.6455   -19992.686   -500.14532    509.55459    78.741024    22.626228    25.520593 
   73800    232.36227   -253.94378    216009.12   -18690.687    1351.3168   -20042.004   -462.83522    510.12035    78.740858    22.626163    25.522784 
   74000    235.30332   -315.89814    216009.12   -18692.838    1368.4207   -20061.259    -750.9804    512.04617    78.742734    22.626757    25.512238 
   74200    230.93563   -389.89028    216009.12   -18607.148    1343.0201   -19950.168   -1042.3089    513.78671    78.743753    22.630021    25.501928 
   74400    241.09998    -260.1398    216009.12   -18619.115    1402.1315   -20021.247    -547.0284    511.82462     78.74499    22.630439    25.516569 
   74600    239.49088   -387.91828    216009.12   -18668.796    1392.7737    -20061.57   -1117.1649    513.63322    78.741634    22.632422     25.49731 
   74800    237.11885   -321.44266    216009.12   -18684.681     1378.979    -20063.66   -828.51202    512.88599    78.742191    22.633967    25.483096 
   75000    240.51963   -302.97926    216009.12   -18663.333    1398.7564    -20062.09   -675.04183    513.55779    78.741243    22.635973    25.499709 
   75200    235.90457   -374.68398    216009.12     -18588.1    1371.9173   -19960.017    -1000.319    515.38547    78.742444    22.634371    25.490706 
   75400    237.52169   -207.83007    216009.12   -18644.767    1381.3218   -20026.089   -358.46462    514.20764    78.741725    22.636422    25.501101 
   75600    241.90153   -423.83669    216009.12   -18618.607     1406.793     -20025.4   -1235.3532     519.4838    78.743726    22.635372    25.502781 
   75800      242.079   -195.24688    216009.12   -18579.793     1407.825   -19987.618   -219.67282    519.20713    78.744246    22.635592    25.496736 
   76000    242.29139   -376.62267    216009.12   -18571.877    1409.0602   -19980.938   -1036.3995    520.69433    78.741888    22.637767    25.512731 
   76200    234.21769   -330.38664    216009.12    -18664.12    1362.1071   -20026.227   -783.52599    518.86998    78.738517    22.637291    25.515583 
   76400    236.37132   -396.27339    216009.12   -18640.947    1374.6317   -20015.579   -1045.2174    520.03443     78.73878    22.638197    25.484546 
   76600    236.64871   -367.97285    216009.12   -18599.776    1376.2449   -19976.021   -985.11737    519.80496    78.741442    22.641126    25.470591 
   76800    235.66412   -210.76212    216009.12   -18645.829    1370.5189   -20016.347   -346.37031    521.70808    78.742012    22.640615    25.443293 
   77000    240.12818   -237.00718    216009.12   -18599.015    1396.4799   -19995.495   -392.44816    521.03798    78.740533      22.6401    25.461203 
   77200    240.74654   -321.58506    216009.12   -18562.534     1400.076    -19962.61   -728.61242    522.14589    78.739303    22.638797     25.48224 
   77400    240.14082   -258.05772    216009.12   -18584.879    1396.5534   -19981.432   -500.40777    522.38775    78.737856    22.636056     25.45975 
   77600    231.31938   -426.31497    216009.12   -18631.098    1345.2518    -19976.35   -1161.8926    524.03218      78.7352    22.635002     25.46006 
   77800    241.78431   -201.61952    216009.12    -18595.68    1406.1112   -20001.791   -293.23333    524.80933    78.734117    22.633619    25.449714 
   78000    234.27406   -105.65343    216009.12   -18611.563    1362.4349   -19973.998    139.42736    526.19675    78.731468    22.631051    25.437807 
   78200    234.38983   -352.38927    216009.12   -18540.897    1363.1082   -19904.005   -924.45124    525.49834    78.729809    22.630174    25.427156 
   78400    232.51598   -333.15773    216009.12   -18556.143    1352.2107   -19908.354   -810.29327    528.21474    78.729326     22.62893     25.41831 
   78600    241.53575   -394.97759    216009.12   -18560.854    1404.6657   -19965.519   -1106.1515    530.42821    78.728096       22.626    25.394805 
   78800    239.17404   -296.75739    216009.12   -18573.217    1390.9311   -19964.149   -678.56721    532.57965    78.727261     22.62191    25.385254 
   79000    241.96917   -457.31588    216009.12   -18556.493    1407.1863   -19963.679     -1381.63    531.36602    78.724481    22.619795    25.370106 
   79200    241.91647   -226.99812    216009.12   -18544.474    1406.8798   -19951.354     -366.499    531.79959    78.722697     22.61859    25.385067 
   79400    238.26138   -346.92136    216009.12   -18517.844    1385.6234   -19903.467   -898.82979    535.86301    78.722266    22.616954    25.375326 
   79600    245.70706   -379.27461    216009.12   -18598.914    1428.9243   -20027.838   -984.30482    537.32869    78.722383     22.61581    25.422368 
   79800    240.34864   -429.49388    216009.12   -18606.166     1397.762   -20003.928   -1279.9711    538.63093    78.723674    22.614839    25.423597 
   80000    238.39361   -172.75321    216009.12   -18610.052    1386.3924   -19996.444   -110.09509    539.52169    78.724034    22.614827    25.429735 
   80200    239.55566    -327.7901    216009.12    -18617.03    1393.1504   -20010.181   -815.79921    537.93872    78.723716    22.615946    25.439989 
   80400    236.14917   -367.73952    216009.12   -18613.808    1373.3398   -19987.148   -1012.4887    537.66938    78.726098    22.615036    25.437153 
   80600    239.65686   -211.04744    216009.12   -18572.724     1393.739   -19966.463   -331.01309    538.31015    78.724896      22.6152    25.459288 
   80800    235.37903   -307.38008    216009.12    -18573.65     1368.861   -19942.511   -747.82992    540.74251    78.725282    22.614357    25.467971 
   81000    243.30599    -307.7653    216009.12   -18581.481    1414.9607   -19996.442   -778.44465    540.76882    78.724634    22.613947    25.480651 
   81200    238.04663   -325.29807    216009.12   -18627.413    1384.3746   -20011.788   -808.91403    540.04244    78.723066    22.614925     25.48578 
   81400    236.21718   -347.18136    216009.12   -18620.231    1373.7353   -19993.966   -902.60955    540.29954    78.723348    22.615273    25.490964 
   81600    237.55606   -374.99996    216009.12   -18659.457    1381.5216   -20040.978   -1041.4003    540.39325    78.723612    22.614749     25.49352 
   81800    228.24699   -275.28381    216009.12   -18748.824    1327.3842   -20076.209   -620.77352    544.03208    78.724797    22.615662    25.490439 
   82000    230.95914   -270.67515    216009.12   -18645.252    1343.1568   -19988.409   -617.02475    544.53263    78.723775    22.616082    25.491145 
   82200    239.76242   -474.79808    216009.12   -18575.692    1394.3528   -19970.045   -1447.8258      543.832    78.724826    22.616145    25.478565 
   82400    242.33476   -233.43835    216009.12    -18593.14    1409.3124   -20002.453   -408.74395     542.6704    78.726773    22.614176    25.492591 
   82600    245.06936   -217.61678    216009.12   -18516.752    1425.2157   -19941.968   -342.14118    545.28952    78.725305    22.610877    25.484776 
   82800    240.87339   -256.39217    216009.12   -18598.501    1400.8138   -19999.315   -515.07985    545.40666    78.724466    22.610868    25.485628 
   83000    245.88221   -270.29742    216009.12     -18541.3    1429.9429   -19971.243   -562.11728    545.79814    78.724624    22.612476    25.493992 
   83200    240.63204   -158.57574    216009.12   -18584.311    1399.4102   -19983.721   -127.44001    545.09184    78.725376    22.612518    25.512062 
   83400    236.65329   -301.28173    216009.12   -18581.982    1376.2715   -19958.253   -689.58119    546.28207     78.72497    22.612173    25.518599 
   83600     239.9932   -367.70703    216009.12   -18632.616     1395.695   -20028.311   -987.79769    545.63365    78.726255    22.610849    25.517421 
   83800    238.23542   -408.85385    216009.12   -18612.338    1385.4725    -19997.81   -1196.3437    544.40231    78.725842    22.610643    25.521212 
   84000    247.90863   -303.90923    216009.12   -18595.751    1441.7276   -20037.479   -720.54569    545.24179    78.726068     22.61053    25.542815 
   84200    235.05817   -287.31332    216009.12   -18594.224     1366.995   -19961.219   -652.56462    546.18222    78.727291    22.610954    25.556144 
   84400    238.56233   -348.28185    216009.12   -18621.737    1387.3737   -20009.111   -944.16576    547.63772    78.727947     22.61172    25.547729 
   84600    237.89277    -193.0619    216009.12   -18555.162    1383.4798   -19938.642   -283.06761     548.6631    78.727324    22.614028     25.53305 
   84800    239.65843   -434.05682    216009.12   -18603.597    1393.7481   -19997.345   -1288.5943    552.29143    78.726952    22.615807    25.541276 
   85000    236.93896   -282.49656    216009.12    -18581.06    1377.9329   -19958.993    -610.4196    550.95911    78.729933    22.614469    25.521997 
   85200    240.06264   -335.34014    216009.12   -18584.965    1396.0988   -19981.064   -847.90097    553.25058    78.732677    22.614573    25.533737 
   85400    236.18058   -426.66852    216009.12   -18638.997    1373.5224   -20012.519   -1240.5093    553.92505    78.733637    22.617103    25.544881 
   85600    235.35416   -341.40585    216009.12    -18600.08    1368.7164   -19968.796    -872.7159    554.50309    78.734855    22.615899    25.553609 
   85800    247.14923   -428.93154    216009.12   -18512.812    1437.3113   -19950.123   -1216.7851    557.58726    78.735307     22.61608    25.547536 
   86000    239.24088   -235.07844    216009.12   -18588.595    1391.3198   -19979.915   -444.05539    557.49768     78.73389    22.616014    25.544488 
   86200    237.53332   -409.60352    216009.12     -18571.8    1381.3894    -19953.19   -1187.2951    560.12101    78.732962    22.617083     25.53077 
   86400     227.8779   -276.70015    216009.12   -18660.852    1325.2377   -19986.089   -627.91451    560.96672    78.732003    22.616133    25.558806 
   86600    246.14468   -247.71644    216009.12   -18556.442    1431.4693   -19987.912   -482.31196    562.42184    78.730307    22.617158    25.564087 
   86800    247.40145   -203.47133    216009.12    -18636.84    1438.7781   -20075.618   -287.75507    561.58678    78.728368    22.618214    25.551678 
   87000    234.12946   -260.55536    216009.12   -18624.931     1361.594   -19986.525    -545.2417    563.80891    78.727327    22.619983    25.531766 
   87200     235.9897   -299.00838    216009.12   -18613.287    1372.4124     -19985.7   -726.62248    567.10243    78.727819    22.622133    25.509903 
   87400    237.92039   -293.14356    216009.12   -18611.132    1383.6404   -19994.773    -662.6206    565.72776     78.72869    22.622434     25.52191 
   87600    234.03827   -313.43582    216009.12   -18624.361    1361.0637   -19985.425   -773.90606     565.3148    78.727168    22.622765    25.497886 
   87800    229.16692   -337.97577    216009.12   -18639.064     1332.734   -19971.798   -886.61632    565.64372    78.726876    22.625885    25.469133 
   88000    240.60478   -95.244983    216009.12   -18622.327    1399.2516   -20021.579     134.3778     565.8295    78.727017     22.62708    25.468703 
   88200    233.76546   -343.43701    216009.12   -18673.554    1359.4772   -20033.031   -893.60417    567.58793    78.726503    22.626521    25.477201 
   88400    237.72609   -259.50104    216009.12   -18644.482    1382.5105   -20026.993   -561.40225    570.48481    78.726643    22.627105    25.482528 
   88600    235.28448   -449.58536    216009.12    -18639.27    1368.3111   -20007.581   -1371.9375     572.5922    78.726231    22.629789    25.491482 
   88800    235.96593   -185.08514    216009.12   -18758.337    1372.2741   -20130.611    -232.9551    570.65411    78.724433    22.630176    25.504866 
   89000    238.02804   -349.15504    216009.12   -18695.586    1384.2664   -20079.853   -915.79863    576.86414    78.724175    22.629193     25.51695 
   89200    240.93794   -287.17285    216009.12   -18666.879    1401.1892   -20068.068   -650.12639    575.46615    78.724393     22.62855    25.482923 
   89400    236.08381   -345.45078    216009.12   -18652.529    1372.9597   -20025.489   -869.52615    576.49722     78.72487    22.626292    25.469683 
   89600    229.00798   -347.03792    216009.12   -18763.071    1331.8097    -20094.88   -915.44225    576.59751    78.723351     22.62586    25.451818 
   89800     241.6876   -336.81854    216009.12   -18650.169    1405.5488   -20055.718   -836.07098    576.69825    78.725507    22.623958    25.487569 
   90000    244.30148   -279.84553    216009.12   -18689.736      1420.75   -20110.486   -605.15038    577.53401    78.726683    22.623565    25.491789 
   90200    235.94599   -324.36237    216009.12    -18705.68    1372.1581   -20077.838   -847.55406    579.74904    78.728717    22.623449    25.502864 
   90400    239.98681   -328.50088    216009.12   -18652.297    1395.6578   -20047.955   -811.92689    579.98528    78.733244    22.623857    25.492782 
   90600    235.27345   -279.61291    216009.12    -18600.67    1368.2469   -19968.917   -676.99128    580.13211    78.736203    22.624946     25.49171 
   90800    235.98869   -377.44094    216009.12   -18613.362    1372.4065   -19985.769   -1053.4366    582.38145    78.734474    22.624639    25.499477 
   91000    232.89923   -260.70423    216009.12   -18674.132    1354.4395   -20028.572   -476.47041     583.0505    78.734454    22.625167    25.508242 
   91200    231.98481   -163.94937    216009.12   -18728.639    1349.1217   -20077.761   -112.38945    584.81717    78.735939    22.624927    25.497544 
   91400    239.52578   -358.77002    216009.12   -18666.637    1392.9766   -20059.613   -930.53705     586.1706    78.737772    22.626852    25.509902 
   91600    245.31691   -179.97107    216009.12    -18577.23    1426.6553   -20003.886   -181.85145    585.02762    78.737732    22.630277    25.506214 
   91800    245.13439   -336.32711    216009.12   -18565.439    1425.5938   -19991.033    -833.1499    585.72059     78.73839    22.631703    25.507371 
   92000    240.42898   -352.55134    216009.12   -18627.598    1398.2292   -20025.827   -943.56898    586.26427    78.739414     22.63155    25.500444 
   92200      240.123    -364.6053    216009.12   -18647.134    1396.4498   -20043.584   -976.18273    589.91839    78.741118    22.636325    25.485673 
   92400    239.27351   -286.28288    216009.12    -18596.04    1391.5095   -19987.549   -628.47269    589.32672    78.741983    22.635512    25.500389 
   92600    244.22242   -272.82659    216009.12   -18531.102    1420.2902   -19951.392   -648.47303    589.53229    78.741592    22.633997    25.521592 
   92800    240.76282   -253.48162    216009.12   -18564.624    1400.1707   -19964.795   -515.91977    588.47977    78.741033    22.635265    25.534465 
   93000    240.78735   -271.19706    216009.12   -18633.826    1400.3134    -20034.14   -563.15176    588.07366    78.741194    22.631578    25.546819 
   93200    237.67591   -310.82282    216009.12   -18620.735    1382.2186   -20002.954   -760.63125    591.86873    78.739338     22.63359    25.568711 
   93400    234.22856   -125.75021    216009.12    -18666.53    1362.1704   -20028.701     11.13207    594.01245    78.738328    22.631508    25.564691 
   93600    227.35142   -345.37787    216009.12   -18621.375    1322.1759   -19943.551   -915.24646    595.46934     78.73689    22.632322    25.549298 
   93800    234.05732   -271.98494    216009.12     -18626.4    1361.1745   -19987.574   -537.04951    596.48285    78.734425    22.632687    25.527134 
   94000     241.7735   -290.91899    216009.12    -18594.55    1406.0484   -20000.598   -629.29488     597.4726    78.733509    22.631787    25.499366 
   94200    244.16733   -433.83613    216009.12   -18534.037    1419.9699   -19954.007    -1272.321    599.80266    78.733532    22.633189    25.501342 
   94400    239.71536   -311.85855    216009.12   -18555.247    1394.0792   -19949.326   -725.12428    599.06431    78.734378    22.631127    25.499428 
   94600    240.15474   -298.50734    216009.12   -18569.349    1396.6344   -19965.983   -712.56429    598.80989    78.734632    22.630718     25.48525 
   94800    238.16239   -335.49402    216009.12   -18565.838    1385.0478   -19950.886   -866.84037     601.7351    78.734401    22.631553    25.475305 
   95000    239.54721   -244.52411    216009.12   -18553.554    1393.1012   -19946.655   -479.31826    602.84921    78.734741    22.631846    25.456206 
   95200    237.86436   -388.12889    216009.12   -18545.445    1383.3145    -19928.76   -1072.4404    606.37677    78.735796    22.632365    25.466318 
   95400    243.43095   -160.10276    216009.12   -18551.187    1415.6874   -19966.874   -102.57138    605.38687     78.73521    22.632311    25.469909 
   95600    234.44441   -370.89279    216009.12   -18547.905    1363.4256   -19911.331   -993.05433    607.46581    78.735604    22.633705    25.478706 
   95800    244.14234   -418.34365    216009.12   -18533.819    1419.8245   -19953.644   -1239.2284    609.98367    78.734968     22.63322    25.491411 
   96000      239.834   -386.90217    216009.12   -18536.948    1394.7691   -19931.717   -1083.6132    612.42686    78.736004    22.631365     25.50309 
   96200    238.82691   -298.85943    216009.12   -18502.556    1388.9123   -19891.468   -723.22061     613.2159      78.7331    22.627497    25.506536 
   96400     247.7427   -331.64752    216009.12   -18555.204    1440.7626   -19995.967   -841.37955    613.91882    78.731334    22.625798    25.493821 
   96600    241.52639   -287.01588    216009.12   -18605.218    1404.6113   -20009.829    -625.6689    614.49483    78.731434    22.624363    25.492775 
   96800    233.13147   -333.66861    216009.12   -18564.342    1355.7902   -19920.133   -842.21479    615.14434    78.730775    22.621191    25.489061 
   97000     236.1205    -228.2909    216009.12   -18604.458    1373.1731   -19977.631   -377.52084    614.47032     78.73147    22.620483    25.477472 
   97200    235.92208    -282.7303    216009.12   -18571.413    1372.0191   -19943.432   -622.61966    618.81126    78.731214    22.616871    25.490665 
   97400     242.7943   -343.47311    216009.12   -18570.279    1411.9849   -19982.264   -895.48623    622.94838    78.730921    22.614864    25.470918 
   97600     244.7033   -341.47372    216009.12   -18560.025    1423.0868   -19983.112   -881.01035    623.29156    78.730653    22.616046    25.477758 
   97800    239.83996   -179.26905    216009.12   -18613.254    1394.8038   -20008.058   -165.91933    623.57383    78.731089     22.61732    25.469557 
   98000    244.49026   -337.01096    216009.12   -18635.461    1421.8479   -20057.309   -909.33978    627.53112    78.732575    22.617949    25.442036 
   98200    234.84599   -331.10525    216009.12   -18644.586    1365.7611   -20010.347   -798.01584    626.85313    78.733561     22.61934    25.466395 
   98400    239.43143     -383.651    216009.12   -18596.465     1392.428   -19988.893   -1038.1557    624.86793    78.735221    22.619861    25.442636 
   98600    231.09682   -192.08405    216009.12   -18597.599    1343.9575   -19941.557   -281.09614    624.67555    78.737536    22.618257    25.456044 
   98800    238.10827   -309.90251    216009.12   -18550.027     1384.733    -19934.76   -727.79336    625.61464    78.734761    22.617331    25.463344 
   99000    237.48925   -427.80215    216009.12   -18572.273    1381.1331   -19953.407   -1260.1472    626.10444    78.734696    22.616111    25.459211 
   99200     240.6191   -301.81739    216009.12   -18563.775    1399.3349    -19963.11   -722.42233    627.06909    78.733132    22.615068    25.436218 
   99400    228.32324   -476.68402    216009.12   -18579.335    1327.8276   -19907.162    -1461.135    628.54473    78.732299    22.616103    25.434815 
   99600     239.2461   -469.93833    216009.12   -18519.239    1391.3502   -19910.589   -1454.2569    626.15185    78.733997    22.613668     25.42543 
   99800    237.62302   -183.24993    216009.12   -18560.255     1381.911   -19942.166   -203.64729    627.52058    78.734352    22.612747    25.415734 
  100000    244.66932   -474.08176    216009.12   -18535.461    1422.8892    -19958.35   -1409.3099    630.35792    78.734867    22.610972    25.437013 
  100200    233.31367   -285.71347    216009.12    -18607.47    1356.8497    -19964.32   -627.09026    629.04097    78.736599    22.609079    25.448355 
  100400    235.88409   -294.50675    216009.12   -18539.939    1371.7982   -19911.737   -695.70376    632.47876    78.736972       22.607     25.47634 
  100600    238.23896   -285.54898    216009.12   -18575.782    1385.4931   -19961.275    -651.4325    633.66154    78.735233    22.605742    25.455507 
  100800    236.95312   -285.90308    216009.12   -18589.755    1378.0152    -19967.77   -647.59946    635.12848    78.732817    22.606576    25.453598 
[...]
 5175800    225.14545   -600.49839    216009.12   -20596.008     1309.347   -21905.355   -1973.4593    9564.8271    79.360003    21.634032    25.665657 
 5176000     226.9851   -647.62939    216009.12    -20593.53    1320.0456   -21913.575   -2094.5053    9568.2392    79.359309    21.635049    25.665842 
 5176200    229.51134   -719.13963    216009.12   -20597.041    1334.7371   -21931.778   -2393.5585    9566.9575    79.359401    21.635322    25.661726 
 5176400    226.90784    -645.7694    216009.12   -20627.574    1319.5963    -21947.17   -2058.2127    9566.5192    79.357965    21.634611    25.660929 
 5176600    227.13051   -723.80903    216009.12   -20585.369    1320.8912    -21906.26   -2446.0336    9567.9261    79.357616    21.635056    25.667627 
 5176800    229.15438   -677.03928    216009.12   -20559.038    1332.6612   -21891.699   -2255.4045    9567.0988    79.357568    21.634393    25.661796 
 5177000    229.55804   -669.17126    216009.12   -20553.451    1335.0087    -21888.46   -2227.8279    9566.1164    79.358071    21.634621    25.667955 
 5177200     224.9721   -695.94903    216009.12   -20576.053    1308.3388   -21884.392   -2328.5535    9568.2787    79.358755    21.633972    25.666884 
 5177400    230.10329   -669.37507    216009.12   -20603.305    1338.1796   -21941.484   -2194.8454    9568.3482    79.359418    21.633143    25.667148 
 5177600    230.85748   -595.58144    216009.12    -20549.35    1342.5656   -21891.915   -1895.2778     9566.782    79.358402    21.632447    25.666426 
 5177800    234.86313   -612.27031    216009.12   -20580.966    1365.8607   -21946.826   -1945.9425    9564.8628    79.358282    21.631775    25.671385 
 5178000    230.74546   -664.11016    216009.12   -20598.238    1341.9141   -21940.152   -2208.1519    9569.7354    79.358111    21.631104    25.679941 
 5178200    227.47558   -640.52635    216009.12   -20603.939     1322.898   -21926.837   -2108.5876    9565.8875    79.359326     21.63062    25.677412 
 5178400    221.36662   -643.76288    216009.12   -20610.475     1287.371   -21897.846    -2106.681    9564.9998    79.358406    21.629537    25.676859 
 5178600    223.31038    -671.0169    216009.12   -20603.762     1298.675   -21902.437   -2216.0779    9568.3716    79.358417    21.628767    25.676176 
 5178800    228.57915   -687.95328    216009.12   -20563.337    1329.3158   -21892.653   -2286.6508    9566.2067    79.359043    21.629125    25.678823 
 5179000    229.07075    -662.2129    216009.12    -20586.75    1332.1748   -21918.925   -2177.9672    9566.9181    79.359957    21.628358    25.680095 
 5179200    229.48794   -717.87367    216009.12    -20572.24     1334.601   -21906.841   -2379.4129    9570.8013    79.359306     21.62757    25.680733 
 5179400    223.33619   -676.24766    216009.12   -20643.034    1298.8251   -21941.859   -2247.5685    9565.6901    79.359651    21.626192    25.678643 
 5179600     231.7337   -657.71423    216009.12   -20535.741    1347.6614   -21883.402   -2126.6127    9567.9212    79.358935    21.626171    25.677621 
 5179800    225.17071   -713.26381    216009.12   -20592.902    1309.4938   -21902.396   -2434.7146    9567.7874    79.358806    21.625419    25.673756 
 5180000    225.28517    -613.3494    216009.12   -20615.476    1310.1595   -21925.636   -1976.1169    9567.1414    79.358538    21.623409    25.670491 
 5180200    216.71855   -594.63889    216009.12   -20679.112    1260.3398   -21939.451   -1917.4436    9567.2106    79.358776    21.622353    25.676642 
 5180400    223.60514   -690.23246    216009.12   -20656.298    1300.3892   -21956.688   -2319.0381    9569.7646    79.358606    21.622958    25.679569 
 5180600    224.74804   -605.11632    216009.12   -20593.355    1307.0358    -21900.39   -1953.6216    9567.6654    79.359825    21.621937    25.678847 
 5180800    228.76054    -638.0171    216009.12   -20568.875    1330.3707   -21899.246   -2108.5364    9566.8891    79.360218    21.620499    25.673997 
 5181000    222.22641   -765.97704    216009.12   -20608.885    1292.3711   -21901.256   -2643.7987     9569.167    79.361117    21.619681    25.674396 
 5181200    222.76291   -677.93461    216009.12   -20615.838    1295.4912   -21911.329   -2227.5461    9569.0255    79.362872    21.617694    25.676964 
 5181400    222.61215   -684.20777    216009.12   -20649.249    1294.6144   -21943.864   -2257.0082    9567.1751    79.364159    21.617076    25.673457 
 5181600    224.45141   -751.00717    216009.12   -20586.919    1305.3107    -21892.23   -2541.0678    9566.7951    79.364524    21.615943    25.678139 
 5181800    222.71633   -622.95205    216009.12    -20669.87    1295.2203   -21965.091   -2012.7411    9566.9731    79.365298    21.617118    25.677008 
 5182000    221.62162   -659.05716    216009.12   -20575.847    1288.8539   -21864.701   -2193.1792    9565.1871    79.365531    21.616774      25.6706 
 5182200    228.82584   -721.17608    216009.12   -20589.517    1330.7505   -21920.267   -2439.1382    9569.3004    79.365826    21.616034    25.678405 
 5182400    226.31128   -635.68264    216009.12   -20576.795    1316.1269   -21892.922   -2040.4407    9567.2542    79.365773    21.616794    25.677504 
 5182600    219.75742   -625.69605    216009.12   -20663.427    1278.0125   -21941.439   -2020.2113    9567.0383    79.366358    21.617103    25.679473 
 5182800    229.44243   -677.23707    216009.12   -20607.582    1334.3363   -21941.918   -2240.4947    9568.7658     79.36634    21.616725    25.682581 
 5183000    224.46957   -594.19928    216009.12   -20591.676    1305.4163   -21897.092   -1868.9996    9565.9239    79.367332     21.61737    25.681506 
 5183200    230.73432   -602.38025    216009.12   -20547.221    1341.8494    -21889.07    -1937.288    9567.3098    79.370163    21.618438    25.684536 
 5183400    228.85132   -647.03567    216009.12   -20555.751    1330.8987    -21886.65   -2097.4475    9566.7821    79.370581    21.618605    25.671781 
 5183600    215.61357   -650.69719    216009.12   -20637.973    1253.9137   -21891.887   -2116.9575    9567.2829    79.371553     21.61829    25.674218 
 5183800    218.47154   -691.77752    216009.12   -20659.908    1270.5344   -21930.443   -2303.5768    9566.6683    79.372897    21.617061    25.675531 
 5184000    222.02822   -722.70155    216009.12   -20660.561    1291.2185   -21951.779   -2429.4068    9566.7123    79.373353    21.618004    25.682125 
 5184200    233.05707    -775.3297    216009.12   -20556.446    1355.3575   -21911.803   -2682.7287    9566.0799    79.373491    21.618417    25.681591 
 5184400    224.54462   -633.76681    216009.12   -20620.287    1305.8528    -21926.14   -2072.5571    9565.6712    79.374983    21.617936    25.681198 
 5184600    230.93281   -614.40682    216009.12   -20562.706    1343.0037    -21905.71   -1988.0303    9566.3863    79.375291    21.617584    25.681863 
 5184800    224.88634   -694.78109    216009.12   -20609.338    1307.8401   -21917.179   -2303.8511      9568.84    79.374917    21.616758    25.681471 
 5185000    222.95921   -637.97356    216009.12   -20626.426    1296.6327   -21923.059   -2037.7308    9567.1806    79.377038    21.617553     25.68212 
 5185200    222.99083   -601.48733    216009.12   -20603.296    1296.8167   -21900.113   -1863.3312    9566.5413    79.377744    21.616897    25.681518 
 5185400    218.48866   -722.33355    216009.12   -20633.257     1270.634   -21903.891   -2429.3089    9570.0299    79.377068    21.617375    25.689964 
 5185600    219.00454   -584.33232    216009.12   -20601.103    1273.6341   -21874.737   -1870.3896    9569.1686    79.377164    21.617658    25.694538 
 5185800     223.2855   -672.21056    216009.12   -20616.851    1298.5303   -21915.382   -2239.7576    9566.4646    79.379094    21.618321    25.694068 
 5186000    227.77901   -689.70581    216009.12   -20572.883    1324.6626   -21897.545   -2262.8465    9566.4542    79.379277    21.619191    25.687393 
 5186200    227.43988   -686.60041    216009.12   -20586.628    1322.6904   -21909.318   -2298.3601     9568.238    79.379612    21.618738    25.689194 
 5186400    225.06409   -602.17517    216009.12   -20586.899    1308.8738   -21895.773   -1935.3317      9567.51    79.381511    21.618869    25.694811 
 5186600     228.2751    -671.3051    216009.12   -20580.722    1327.5476   -21908.269   -2221.0348    9566.9695    79.382073    21.618075    25.689401 
 5186800    225.55531   -652.47643    216009.12   -20592.069    1311.7305     -21903.8   -2147.5586     9569.577    79.382988    21.617823     25.68784 
 5187000    228.09748   -660.28985    216009.12   -20611.879    1326.5146   -21938.393   -2160.5731    9565.4504    79.385012    21.617622    25.685222 
 5187200    224.54821   -719.94332    216009.12   -20573.642    1305.8737   -21879.515   -2434.4278    9568.7355    79.384488    21.617623    25.689037 
 5187400    231.50423    -594.6771    216009.12   -20586.682    1346.3268   -21933.009   -1890.0468    9568.2673    79.384917    21.617109    25.687704 
 5187600     228.4921   -627.10663    216009.12   -20632.474    1328.8096   -21961.284   -2029.0019    9569.1251    79.387791    21.617514    25.686201 
 5187800    225.52687   -674.54283    216009.12    -20584.73    1311.5651   -21896.295   -2220.6154    9569.6981    79.388856    21.616837    25.684529 
 5188000    227.33043   -639.12978    216009.12   -20598.387    1322.0539   -21920.441   -2115.7449    9565.6607    79.389068    21.616962    25.685337 
 5188200    232.93775   -681.90803    216009.12   -20547.114    1354.6635   -21901.777   -2278.0876    9569.6343     79.39086    21.617873    25.687649 
 5188400    230.39708   -716.63674    216009.12   -20577.063    1339.8881   -21916.951   -2402.4881    9568.5642    79.391851    21.616711    25.688271 
 5188600    231.00192   -645.73302    216009.12   -20584.508    1343.4056   -21927.913   -2077.5745    9566.0571    79.390771    21.616866    25.689339 
 5188800    225.28819   -658.98267    216009.12   -20632.793    1310.1771    -21942.97   -2148.3485    9568.7728      79.3923     21.61642    25.688252 
 5189000    223.82303   -697.14002    216009.12    -20628.58    1301.6564   -21930.237   -2321.2895    9568.4853    79.393337    21.615405    25.688341 
 5189200    224.01093   -594.74271    216009.12   -20623.067    1302.7491   -21925.816   -1885.9632    9565.9571    79.393383    21.615704    25.683084 
 5189400    219.03715   -615.16831    216009.12   -20680.756    1273.8238    -21954.58   -2026.1551    9567.8617    79.395564    21.615671    25.686671 
 5189600    228.11245    -634.4249    216009.12   -20629.797    1326.6017   -21956.399   -2045.4838    9568.3614    79.397853    21.616055    25.686693 
 5189800    226.75958   -668.64165    216009.12   -20587.177     1318.734   -21905.911   -2231.6974    9565.6406      79.3983    21.616036    25.689825 
 5190000     226.2546   -662.20484    216009.12   -20621.884    1315.7973   -21937.682   -2206.7611     9566.234    79.398668     21.61619     25.68745 
 5190200    223.18677   -694.89295    216009.12   -20597.106    1297.9562   -21895.062   -2299.3352    9568.0468    79.398814    21.615605    25.687953 
 5190400    219.83943    -662.3698    216009.12   -20616.472    1278.4895   -21894.961   -2213.2445    9566.2538    79.397607    21.615829    25.687655 
 5190600    230.13563   -636.71674    216009.12   -20546.209    1338.3677   -21884.577   -2069.4191    9566.0032    79.398531    21.616165    25.687095 
 5190800    223.87698   -726.99466    216009.12    -20614.89    1301.9701    -21916.86   -2475.2253    9568.4582     79.39992    21.616101    25.693138 
 5191000    225.33323    -659.5611    216009.12   -20597.592     1310.439   -21908.031   -2175.2259    9565.6305    79.399449    21.614865     25.69376 
 5191200    234.27023   -595.32656    216009.12   -20578.669    1362.4127   -21941.081   -1912.4549    9566.2518    79.400892    21.613332    25.687084 
 5191400    230.85755   -681.69321    216009.12   -20614.371     1342.566   -21956.937   -2292.7364    9567.8558    79.401592    21.612791    25.685401 
 5191600     218.7895   -562.84399    216009.12   -20630.382    1272.3835   -21902.766   -1710.5563    9566.9475    79.401754    21.611247    25.683664 
 5191800    220.15431   -630.23328    216009.12    -20617.28    1280.3207   -21897.601   -2041.3247    9569.9923    79.402106    21.610221    25.688198 
 5192000    232.05909   -708.58629    216009.12     -20556.8    1349.5537   -21906.353   -2386.1679    9567.2241    79.403407    21.610493    25.685916 
 5192200    225.72228   -585.47727    216009.12   -20527.025    1312.7015   -21839.727    -1848.974    9565.4526    79.402342    21.610684    25.684445 
 5192400    230.55604   -633.85517    216009.12   -20603.348    1340.8126   -21944.161   -2079.4613    9567.6439    79.401028    21.610447    25.684004 
 5192600    228.80068   -699.94084    216009.12   -20592.241    1330.6042   -21922.845   -2321.3671    9568.4004    79.403137    21.609989    25.679801 
 5192800    230.02004   -643.67732    216009.12   -20612.294    1337.6954    -21949.99   -2110.3179    9566.1319    79.403443    21.608986    25.683949 
 5193000    228.76212   -686.50399    216009.12   -20587.619    1330.3799   -21917.999    -2286.261    9567.4064    79.403859    21.609382    25.680181 
 5193200    222.40497   -636.79608    216009.12   -20658.912    1293.4095   -21952.321   -2034.1612    9566.9297    79.404453    21.608661    25.684556 
 5193400    228.61828   -695.51106    216009.12   -20584.942    1329.5434   -21914.486   -2325.2123    9566.3452     79.40436    21.607803    25.689876 
 5193600    225.10282   -709.35377    216009.12   -20604.101     1309.099     -21913.2    -2396.297    9566.9795    79.403797    21.608434    25.682975 
 5193800    224.94948   -670.71662    216009.12   -20593.191    1308.2073   -21901.399   -2219.4155    9566.4526    79.404819    21.608205    25.679458 
 5194000    227.95591   -631.49188    216009.12   -20576.203    1325.6914   -21901.894    -2021.116    9567.2134    79.405472    21.608409    25.679432 
 5194200    225.30735   -689.48541    216009.12   -20660.378    1310.2885   -21970.666   -2316.1977    9567.1696    79.404122    21.607707    25.684143 
 5194400    226.19247   -705.91837    216009.12   -20628.091    1315.4359   -21943.527   -2361.7909    9569.6876    79.404084    21.607282    25.681292 
 5194600    224.63644   -603.76235    216009.12   -20593.617    1306.3868   -21900.004   -1948.0192    9564.2504    79.404687    21.606453    25.678904 
 5194800    235.34886   -617.42102    216009.12   -20551.833    1368.6855   -21920.518   -1982.1996    9566.8594    79.404268    21.605639    25.683454 
 5195000    221.32575   -684.16283    216009.12    -20612.02    1287.1332   -21899.153   -2291.9214    9567.1393    79.404279    21.605914    25.690437 
 5195200    229.35158   -687.79585    216009.12   -20535.677     1333.808   -21869.485   -2298.6541    9565.6283    79.403984    21.605309    25.688098 
 5195400     230.1369   -579.20526    216009.12   -20601.017    1338.3751   -21939.393   -1842.2204    9565.9161    79.403397    21.604924    25.683916 
 5195600    232.90438   -656.84109    216009.12   -20561.351    1354.4695    -21915.82   -2207.6508    9567.3681    79.402906    21.605894     25.68135 
 5195800    224.96584   -619.88238    216009.12   -20628.594    1308.3024   -21936.896   -2003.8215    9569.3772    79.403789    21.605378    25.679197 
 5196000    231.54648   -607.47108    216009.12   -20541.556    1346.5726   -21888.129   -1924.7152    9567.4146    79.404414    21.605439    25.682355 
 5196200    227.77272    -649.5338    216009.12   -20573.633     1324.626   -21898.259   -2095.7724    9569.2661    79.403507    21.605181    25.680377 
 5196400    224.62559    -728.0212    216009.12   -20612.484    1306.3237   -21918.808   -2489.8557    9568.9218    79.402866     21.60446    25.678816 
 5196600    225.82748   -678.81196    216009.12   -20578.996    1313.3133    -21892.31   -2308.4696    9567.9531    79.402114    21.604486    25.678774 
 5196800    225.64944   -706.56242    216009.12    -20589.42    1312.2779   -21901.698   -2398.4961    9569.3672    79.401591    21.603442    25.683093 
 5197000    225.73343   -691.54565    216009.12   -20585.249    1312.7664   -21898.015   -2315.2922    9569.5566    79.400387    21.602114    25.678857 
 5197200    228.00404   -604.59694    216009.12   -20566.217    1325.9713   -21892.189   -1909.8486     9566.593    79.400167    21.600443    25.674602 
 5197400    228.21433   -702.02312    216009.12   -20625.769    1327.1942   -21952.963   -2335.7571    9570.0242    79.400264    21.599692    25.682496 
 5197600    221.17077   -752.98239    216009.12   -20634.856     1286.232   -21921.088   -2588.0711     9568.304    79.400832    21.598812    25.685942 
 5197800    224.07875   -649.39843    216009.12   -20638.628    1303.1435   -21941.771   -2126.4051    9566.1549    79.400562    21.597144    25.689988 
 5198000    222.72564    -726.5323    216009.12   -20676.356    1295.2744    -21971.63   -2446.2138    9567.8954    79.399364    21.595624    25.691095 
 5198200    231.67082   -676.61101    216009.12   -20581.976    1347.2957   -21929.271   -2235.0764     9569.051    79.398009    21.594679    25.695141 
 5198400    233.47061    -640.2142    216009.12   -20577.002    1357.7625   -21934.764   -2058.0382    9566.7496    79.396145    21.593949    25.695258 
 5198600    229.91074   -681.64119    216009.12   -20595.706    1337.0598   -21932.766   -2289.1458    9567.4982    79.395247    21.593159    25.688596 
 5198800    220.38993   -636.48844    216009.12   -20661.847     1281.691   -21943.538   -2104.4974    9568.2597    79.395068    21.591761    25.689952 
 5199000    227.58555   -584.14792    216009.12   -20624.257    1323.5375   -21947.795   -1870.6536    9566.0311    79.396031    21.590827    25.693015 
 5199200      236.467   -649.74128    216009.12   -20525.759    1375.1881   -21900.947   -2165.2324    9567.2147    79.393775    21.590922    25.689932 
 5199400     221.6313   -711.57832    216009.12   -20639.293    1288.9102   -21928.204   -2397.8075    9570.1924    79.393626    21.589893    25.688554 
 5199600    225.35465   -611.48831    216009.12   -20622.642    1310.5636   -21933.206   -1940.3677    9566.2403    79.394901    21.589034    25.688715 
 5199800    230.08002   -627.44359    216009.12   -20585.751    1338.0443   -21923.795   -2016.6946    9565.8097    79.393322    21.590335    25.686921 
 5200000    222.32723   -682.73432    216009.12   -20602.345    1292.9574   -21895.302   -2242.7954    9568.7988    79.393419    21.589601    25.682729 
Loop time of 7240.33 on 160 procs for 5200000 steps with 9248 atoms

Performance: 620.524 ns/day, 0.039 hours/ns, 718.199 timesteps/s
97.7% CPU use with 160 MPI tasks x no OpenMP threads

MPI task timing breakdown:
Section |  min time  |  avg time  |  max time  |%varavg| %total
---------------------------------------------------------------
Pair    | 0.24517    | 1460.4     | 5689.9     |5199.8 | 20.17
Neigh   | 0.31029    | 91.559     | 348.98     |1234.4 |  1.26
Comm    | 11.504     | 1801.4     | 5745.7     |4639.8 | 24.88
Output  | 89.677     | 89.746     | 91.679     |   1.6 |  1.24
Modify  | 224.41     | 3700.6     | 7050.3     |4821.8 | 51.11
Other   |            | 96.59      |            |       |  1.33

Nlocal:    57.8 ave 196 max 0 min
Histogram: 72 22 26 0 0 0 0 0 13 27
Nghost:    532.2 ave 904 max 0 min
Histogram: 20 4 0 8 8 32 35 16 22 15
Neighs:    0 ave 0 max 0 min
Histogram: 160 0 0 0 0 0 0 0 0 0
FullNghs:  5856.51 ave 23516 max 0 min
Histogram: 111 9 0 0 0 0 0 1 20 19

Total # of neighbors = 937042
Ave neighs/atom = 101.324
Neighbor list builds = 552835
Dangerous builds = 0
write_data 		${DIR}/data.${NAME}_run
write_data 		run_12/data.${NAME}_run
write_data 		run_12/data.ibeam_cooling_12_run
Total wall time: 2:00:55
