
### Dimensions ###


### IMPORT ATOMS ###
read_data ../Box_Setup/data.Ibeam_240K
Reading data file ...
  orthogonal box = (0.0000000 0.0000000 0.0000000) to (68.908000 85.848302 27.975384)
  8 by 8 by 2 MPI processor grid
  reading atoms ...
  8493 atoms
  reading velocities ...
  8493 velocities
  read_data CPU = 0.020 seconds
group water type 2
1689 atoms in group water
group graphite type 1
6804 atoms in group graphite


# Define potential
#
pair_style          sw
pair_coeff * * MLC_e.sw C mW

# Add velocity/set timestep
#

fix		1 graphite setforce 0.0 0.0 0.0
velocity 	graphite set 0.0 0.0 0.0
velocity            water create ${START_TEMP} ${SEED} rot yes dist gaussian
velocity            water create 240 ${SEED} rot yes dist gaussian
velocity            water create 240 1493 rot yes dist gaussian
timestep            5.0

# Define output
#
compute 1 water msd
compute 2 water temp


thermo	            100
thermo_style custom step c_2 press vol etotal ke pe c_1[4] density

# Neighbor lists
#
neigh_modify        delay 0 every 1 check yes


# Set fixes
#
fix                 2 water momentum 10 linear 1 1 1 rescale
fix                 3 all nve
fix                 4 water temp/csvr ${START_TEMP} ${START_TEMP} 500.0 928347
fix                 4 water temp/csvr 240 ${START_TEMP} 500.0 928347
fix                 4 water temp/csvr 240 240 500.0 928347

# Run 0.05 ns equilibration
#
dump                1 all custom 100 ${DIR}/eq.${NAME}.dump id type x y z vx vy vz
dump                1 all custom 100 run_3/eq.${NAME}.dump id type x y z vx vy vz
dump                1 all custom 100 run_3/eq.ibeam_cooling_3.dump id type x y z vx vy vz
run                 10000
Neighbor list info ...
  update every 1 steps, delay 0 steps, check yes
  max neighbors/atom: 2000, page size: 100000
  master list distance cutoff = 6.6747184
  ghost atom cutoff = 6.6747184
  binsize = 3.3373592, bins = 21 26 9
  1 neighbor lists, perpetual/occasional/extra = 1 0 0
  (1) pair sw, perpetual
      attributes: full, newton on
      pair build: full/bin/atomonly
      stencil: full/bin/3d
      bin: standard
Per MPI rank memory allocation (min/avg/max) = 3.603 | 4.507 | 4.728 Mbytes
Step c_2 Press Volume TotEng KinEng PotEng c_1[4] Density 
       0          240   -298.97748    165492.15   -16025.669    1207.5858   -17233.255            0    1.1252403 
     100    245.60393   -433.31269    165492.15   -15993.669    1235.7825   -17229.451   0.87658615    1.1252403 
     200    236.17673   -724.26042    165492.15   -16041.583    1188.3486   -17229.932    1.3586722    1.1252403 
     300    241.49264   -420.55479    165492.15   -16036.193    1215.0962   -17251.289    1.8506524    1.1252403 
     400    243.42755   -527.63703    165492.15   -16052.766    1224.8318   -17277.598    2.2882951    1.1252403 
     500    238.27361   -415.95737    165492.15   -16075.875    1198.8993   -17274.774     2.674938    1.1252403 
     600    235.67323   -402.93476    165492.15   -16157.834    1185.8152   -17343.649      2.99864    1.1252403 
     700    233.83885   -537.14684    165492.15    -16139.92    1176.5853   -17316.506    3.3846107    1.1252403 
     800    230.71402   -482.16368    165492.15   -16179.777    1160.8624   -17340.639    3.4773568    1.1252403 
     900    238.94248    -508.9143    165492.15   -16161.505    1202.2648   -17363.769    3.7299636    1.1252403 
    1000    237.87604   -562.23547    165492.15   -16107.415    1196.8988   -17304.314    3.8661391    1.1252403 
    1100    233.32498   -273.24675    165492.15   -16103.691    1173.9997    -17277.69    4.1811622    1.1252403 
    1200    230.11607   -572.66105    165492.15   -16146.541    1157.8537   -17304.394      4.55929    1.1252403 
    1300     239.7246   -532.09826    165492.15   -16113.491    1206.2001   -17319.691    4.9093817    1.1252403 
    1400    246.20745   -445.68519    165492.15   -16063.774    1238.8192   -17302.593    5.2557468    1.1252403 
    1500    244.37286    -434.3332    165492.15   -16072.317    1229.5883   -17301.905    5.5600323    1.1252403 
    1600    238.71471   -485.75848    165492.15   -16052.315    1201.1187   -17253.433    6.0663337    1.1252403 
    1700    240.88002   -475.77675    165492.15   -16061.677    1212.0137   -17273.691    6.4075163    1.1252403 
    1800     239.8007   -668.11897    165492.15    -16061.48     1206.583   -17268.063    6.6506698    1.1252403 
    1900    249.67002   -299.50766    165492.15   -15980.451    1256.2415   -17236.693    7.1135986    1.1252403 
    2000    250.18283   -404.95361    165492.15   -15963.317    1258.8218   -17222.138    7.4070052    1.1252403 
    2100     249.4629   -413.93153    165492.15    -15975.57    1255.1994   -17230.769    7.6814447    1.1252403 
    2200    248.55274   -453.51883    165492.15   -15977.421    1250.6198   -17228.041    8.2280435    1.1252403 
    2300    246.00789   -471.65601    165492.15   -16025.461    1237.8151   -17263.276    8.6663213    1.1252403 
    2400    245.10869   -478.35673    165492.15   -16016.364    1233.2907   -17249.654    9.0313269    1.1252403 
    2500    246.91485   -348.75185    165492.15   -16018.321    1242.3786   -17260.699       9.3996    1.1252403 
    2600      240.829   -574.26459    165492.15   -16054.714     1211.757   -17266.471    9.4572815    1.1252403 
    2700    239.70747   -605.05347    165492.15   -16035.301    1206.1139   -17241.415    9.9617658    1.1252403 
    2800    241.54217   -533.49861    165492.15   -16048.072    1215.3453   -17263.418    10.283078    1.1252403 
    2900    240.85327   -466.89462    165492.15   -16121.129    1211.8791   -17333.008    10.404729    1.1252403 
    3000     236.0024   -603.81568    165492.15   -16145.956    1187.4714   -17333.428    10.630922    1.1252403 
    3100     232.8418   -594.53104    165492.15   -16133.563    1171.5685   -17305.132    10.809676    1.1252403 
    3200    235.23695   -496.79177    165492.15   -16147.338      1183.62   -17330.958    11.296385    1.1252403 
    3300    237.12056   -502.50244    165492.15   -16113.462    1193.0975    -17306.56     11.74546    1.1252403 
    3400    239.24035   -534.94973    165492.15   -16117.156    1203.7635   -17320.919    12.295432    1.1252403 
    3500    236.36191   -501.26021    165492.15   -16111.568    1189.2803   -17300.848    12.764952    1.1252403 
    3600    241.28249   -533.88066    165492.15   -16101.716    1214.0388   -17315.755    13.002628    1.1252403 
    3700    240.88265   -194.11441    165492.15   -16129.798    1212.0269   -17341.825     13.07707    1.1252403 
    3800    237.07436   -655.80072    165492.15   -16105.861    1192.8651   -17298.726    13.261831    1.1252403 
    3900    239.57771   -441.92932    165492.15    -16115.17     1205.461   -17320.631    13.536251    1.1252403 
    4000     237.5348   -664.81366    165492.15   -16145.264    1195.1818   -17340.446    13.685569    1.1252403 
    4100     239.0442    -544.1408    165492.15   -16115.725    1202.7765   -17318.502    13.702268    1.1252403 
    4200    245.54451   -384.25576    165492.15    -16091.01    1235.4836   -17326.494     13.63281    1.1252403 
    4300    251.02429   -463.03813    165492.15   -16021.156    1263.0557   -17284.212    13.960205    1.1252403 
    4400    246.21254   -399.51485    165492.15   -16033.157    1238.8448   -17272.002    14.481337    1.1252403 
    4500    243.31922   -572.64381    165492.15    -16071.54    1224.2868   -17295.826     14.93011    1.1252403 
    4600    238.75657   -532.84738    165492.15   -16086.541    1201.3293    -17287.87     15.24855    1.1252403 
    4700    236.52107   -347.79385    165492.15   -16098.899    1190.0811    -17288.98    15.400847    1.1252403 
    4800    237.44849   -427.02982    165492.15   -16062.737    1194.7475   -17257.485    15.802598    1.1252403 
    4900    241.00665   -292.71346    165492.15   -16080.952    1212.6509   -17293.602    16.220537    1.1252403 
    5000    240.35113   -397.46651    165492.15   -16117.646    1209.3525   -17326.999    16.331037    1.1252403 
    5100    238.15143   -559.84742    165492.15   -16147.711    1198.2845   -17345.996    16.553406    1.1252403 
    5200    237.38362   -324.33923    165492.15   -16121.065    1194.4212   -17315.486      16.8925    1.1252403 
    5300    235.95037   -453.90699    165492.15   -16158.307    1187.2096   -17345.516    17.147476    1.1252403 
    5400    237.75199    -400.2339    165492.15   -16115.725    1196.2747       -17312     17.21011    1.1252403 
    5500     233.4649   -398.76302    165492.15   -16135.503    1174.7037   -17310.207    17.339236    1.1252403 
    5600    228.13335   -352.36215    165492.15   -16155.237    1147.8774   -17303.114    17.813136    1.1252403 
    5700    235.35232   -418.27008    165492.15   -16114.892    1184.2004   -17299.093    18.234972    1.1252403 
    5800     251.1252   -510.25132    165492.15   -16029.561    1263.5634   -17293.124    18.620474    1.1252403 
    5900    246.23913   -526.84729    165492.15   -16054.887    1238.9786   -17293.865    19.070441    1.1252403 
    6000    234.71566     -431.268    165492.15   -16135.737     1180.997   -17316.735    19.390741    1.1252403 
    6100    233.63017   -638.57552    165492.15   -16126.198    1175.5353   -17301.734    19.716248    1.1252403 
    6200    237.32464   -417.51276    165492.15   -16087.831    1194.1244   -17281.956    19.936232    1.1252403 
    6300     244.2299   -504.80422    165492.15   -16065.782     1228.869   -17294.651    19.786978    1.1252403 
    6400    240.45099   -346.80929    165492.15   -16059.253     1209.855   -17269.108    20.050413    1.1252403 
    6500     232.4648   -626.29857    165492.15   -16091.026    1169.6716   -17260.697    20.542319    1.1252403 
    6600    240.79405   -477.21195    165492.15   -16124.276    1211.5811   -17335.857    20.931604    1.1252403 
    6700    232.37686   -482.11517    165492.15   -16161.181    1169.2291    -17330.41    21.162607    1.1252403 
    6800    235.31237   -523.17506    165492.15   -16121.626    1183.9995   -17305.625    21.359778    1.1252403 
    6900    229.43744   -465.93043    165492.15   -16144.044    1154.4391   -17298.483    21.974649    1.1252403 
    7000    229.66172   -348.36027    165492.15   -16144.889    1155.5676   -17300.457      22.5107    1.1252403 
    7100    239.71624   -641.52453    165492.15   -16083.589     1206.158   -17289.747    23.007859    1.1252403 
    7200    238.72245   -434.99855    165492.15   -16083.254    1201.1576   -17284.412    23.147194    1.1252403 
    7300     236.9164   -593.34154    165492.15   -16142.699    1192.0703   -17334.769     23.50993    1.1252403 
    7400    237.28763   -669.83678    165492.15   -16137.922    1193.9382   -17331.861    23.445467    1.1252403 
    7500    236.03729   -412.71168    165492.15   -16163.008     1187.647   -17350.655    23.538376    1.1252403 
    7600    229.43002    -441.7439    165492.15   -16172.604    1154.4018   -17327.006    23.657259    1.1252403 
    7700    238.32534   -660.87107    165492.15    -16162.82    1199.1595    -17361.98    23.811269    1.1252403 
    7800    248.31042    -435.2066    165492.15     -16106.3    1249.4005   -17355.701    24.130847    1.1252403 
    7900    240.49869    -522.6872    165492.15   -16106.163     1210.095   -17316.258    24.378995    1.1252403 
    8000    246.58883     -414.779    165492.15   -16094.585    1240.7382   -17335.323    24.616972    1.1252403 
    8100    235.88482   -554.32294    165492.15   -16100.151    1186.8798   -17287.031     24.72041    1.1252403 
    8200    233.98221   -539.98849    165492.15   -16130.142    1177.3066   -17307.449    25.075868    1.1252403 
    8300    233.74548   -476.85132    165492.15   -16143.634    1176.1155   -17319.749    25.277772    1.1252403 
    8400    236.23777   -316.02623    165492.15   -16132.038    1188.6557   -17320.694    25.546694    1.1252403 
    8500    236.80267   -626.52146    165492.15   -16156.647    1191.4981   -17348.145    25.998481    1.1252403 
    8600    234.61139   -375.06609    165492.15   -16099.899    1180.4724   -17280.371    26.209381    1.1252403 
    8700    229.08932   -382.92395    165492.15   -16171.834    1152.6875   -17324.521    26.442502    1.1252403 
    8800    239.92183   -470.44944    165492.15    -16125.08    1207.1925   -17332.273    26.928837    1.1252403 
    8900    241.98211   -594.68042    165492.15   -16143.066     1217.559   -17360.625    27.234088    1.1252403 
    9000    243.83958   -444.69974    165492.15   -16106.386     1226.905   -17333.291    27.279125    1.1252403 
    9100    242.19592    -419.3145    165492.15    -16098.34    1218.6348   -17316.974    27.699299    1.1252403 
    9200    240.23144   -529.93158    165492.15   -16136.574    1208.7503   -17345.324    27.830644    1.1252403 
    9300    237.80642   -386.83265    165492.15   -16177.058    1196.5485   -17373.607    28.004855    1.1252403 
    9400     235.7485   -454.10279    165492.15   -16209.141    1186.1939   -17395.335    28.058288    1.1252403 
    9500    231.23416   -536.98998    165492.15   -16158.965    1163.4795   -17322.444    28.173927    1.1252403 
    9600    228.69691   -585.77581    165492.15   -16205.734    1150.7131   -17356.447    28.702089    1.1252403 
    9700    238.53256   -498.39476    165492.15   -16157.865    1200.2022   -17358.067    28.896369    1.1252403 
    9800    235.87165   -536.74561    165492.15   -16150.546    1186.8136    -17337.36    29.189645    1.1252403 
    9900    237.16276    -681.2054    165492.15   -16116.214    1193.3099   -17309.524    29.566306    1.1252403 
   10000    245.23635   -351.23885    165492.15   -16040.446     1233.933   -17274.379    29.749687    1.1252403 
Loop time of 5.89335 on 128 procs for 10000 steps with 8493 atoms

Performance: 733.030 ns/day, 0.033 hours/ns, 1696.828 timesteps/s
96.7% CPU use with 128 MPI tasks x no OpenMP threads

MPI task timing breakdown:
Section |  min time  |  avg time  |  max time  |%varavg| %total
---------------------------------------------------------------
Pair    | 0.00082302 | 1.8413     | 4.3562     | 116.0 | 31.24
Neigh   | 0.0042198  | 0.1335     | 0.30955    |  27.7 |  2.27
Comm    | 0.21621    | 1.657      | 3.7344     |  80.9 | 28.12
Output  | 0.1488     | 0.14892    | 0.14986    |   0.0 |  2.53
Modify  | 0.25221    | 2.0353     | 5.4478     | 133.5 | 34.54
Other   |            | 0.07732    |            |       |  1.31

Nlocal:        66.3516 ave         142 max           0 min
Histogram: 32 5 13 14 0 0 5 33 19 7
Nghost:        699.469 ave         920 max         491 min
Histogram: 17 3 18 14 14 14 12 20 3 13
Neighs:         0.00000 ave           0 max           0 min
Histogram: 128 0 0 0 0 0 0 0 0 0
FullNghs:      6958.66 ave       16797 max           0 min
Histogram: 42 22 0 0 0 0 15 30 12 7

Total # of neighbors = 890708
Ave neighs/atom = 104.87554
Neighbor list builds = 566
Dangerous builds = 0
write_data 	    ${DIR}/data.${NAME}_eq
write_data 	    run_3/data.${NAME}_eq
write_data 	    run_3/data.ibeam_cooling_3_eq
System init for write_data ...

undump              1
unfix               4



################################################
#######         Run Simulation         #########
################################################

reset_timestep      0
timestep	    10.0
log                 ${DIR}/log.run_${NAME}
log                 run_3/log.run_${NAME}
log                 run_3/log.run_ibeam_cooling_3
