LAMMPS data file via write_data, version 7 Aug 2019, timestep = 5000000

4090 atoms
1 atom types

2.7876846397611033e-01 5.1141231536021905e+01 xlo xhi
2.7876846397611033e-01 5.1141231536021905e+01 ylo yhi
2.7876846397611033e-01 5.1141231536021905e+01 zlo zhi

Masses

1 18.15

Atoms # atomic

3815 1 1.2343385059346093e+00 2.8426444491061251e+00 1.4041458779430915e+00 1 3 1
2727 1 2.4468058005696598e+00 7.4478900993755082e-01 2.7962800239323986e+00 2 0 2
3825 1 6.0894387848749592e+00 3.3356793633021149e+00 2.4177604035018780e+00 0 2 0
1892 1 5.1654436199552112e-01 1.0705637285336421e+01 3.6422926654788266e+00 0 0 2
1449 1 8.6196086583033669e+00 2.9138870474075285e+00 1.9589089001371045e+00 -1 0 1
482 1 9.7909190259590329e+00 6.8560533616680253e-01 3.0958340450085795e+00 0 -1 0
2555 1 1.3692759028555002e+01 2.4756981887150755e+00 2.9698138735602848e+00 -1 -1 0
599 1 1.6325695778824972e+01 2.0744921825339540e+00 2.0957675299127088e+00 0 -1 1
3569 1 1.9674285241713537e+01 2.5512815138798999e+01 9.3239960066855332e+00 1 -2 0
3062 1 2.4949152060205090e+01 2.2611497176132347e+00 1.4799583526697362e+00 -1 0 -1
2434 1 2.4177504122831897e+00 5.1963336746730935e+00 1.3431665155703505e+00 2 -1 0
414 1 5.1601195338862063e+00 5.0915286268266362e+00 7.1576251787013012e-01 2 -2 1
3480 1 9.9907829948649347e+00 4.8045381438083421e+00 2.6500152309377061e+00 0 2 0
517 1 1.2267948752472007e+01 4.2961403182870477e+00 1.3850528398443502e+00 1 1 0
3174 1 1.7582942343354471e+01 4.5139641719881265e+00 2.0513077004557907e+00 3 -2 0
3323 1 2.0195108549936737e+01 4.1586460907062603e+00 1.2705544243053879e+00 -1 0 1
2420 1 2.1895231612434930e+01 4.8550516340862444e+00 3.3706680257748398e+00 -1 0 -1
3219 1 2.4426297172910989e+01 4.6598269725073935e+00 2.1826045274272419e+00 1 2 2
3340 1 2.5327716543506661e+01 2.4396955597769747e+01 4.7126772294727814e+00 0 1 2
296 1 5.9508489542465703e+00 7.4023075849104227e+00 1.3228199362855237e+00 -2 0 0
244 1 4.2344565012291673e+00 8.5482773136241370e+00 3.1039843385654544e+00 2 0 0
3392 1 8.8446869871347804e+00 7.4271245565165218e+00 2.0511499915391891e+00 0 2 -1
942 1 1.2063180368279156e+01 8.8644844078086305e+00 6.1651209861255540e-01 -1 -2 1
429 1 1.5874430037778049e+01 6.2727102929482550e+00 6.5026460741357128e-01 1 2 -1
3362 1 1.3445677574246025e+01 6.8724084472343652e+00 1.8254096558099731e+00 0 2 1
3514 1 1.6786089992484850e+01 8.6634033764751059e+00 1.5644919867566991e+00 1 0 -2
2127 1 2.1247508480355201e+01 9.6050456519347254e+00 2.1211504538706132e+00 1 0 1
1529 1 2.4418274398222295e+01 3.9903956635904037e-01 3.5151505121237951e+00 -3 -1 0
2087 1 2.6505297280562226e+00 1.0350380996646809e+01 2.2523360190497650e+00 3 1 0
2173 1 4.5232256529030863e+00 1.2507402671307794e+01 3.0789099508245807e+00 1 -2 0
3603 1 2.5389936442307995e+01 1.9937367763668153e+01 6.2532096178167507e+00 1 0 2
3634 1 1.0106237963081723e+01 1.3027284991739695e+01 1.9146465915733000e+00 1 0 3
1519 1 1.1401044927297630e+01 1.0754749117665700e+01 2.5193248669914006e+00 1 0 0
3568 1 1.4728146069246151e+01 1.2561141268252120e+01 2.0613179014194909e+00 3 2 2
4034 1 1.3375741510791386e+01 1.4190356954114222e+01 4.2064029004213210e-01 0 1 0
2023 1 2.0110200437003357e+01 1.1733839541941826e+01 3.4768477764083618e+00 0 4 2
3836 1 2.3853476450121445e+01 1.0203225500577281e+01 3.1916739669492280e+00 0 1 2
402 1 1.2347729557204307e+01 2.0694761240345390e+01 2.8300019727428416e-01 -1 1 0
1318 1 3.3630757826879516e+00 1.4428552859925622e+01 1.6506997668131362e+00 0 1 0
2684 1 7.6494785176877640e+00 1.4577394388757627e+01 3.5233201733542931e+00 1 0 0
4072 1 1.2399550619117274e+01 1.6136488226295256e+01 2.1010372288524075e+00 0 2 1
3596 1 1.1425045009435001e+01 8.3692476606925037e-01 1.5453383030769457e+01 1 3 -1
1919 1 1.6734961201886044e+01 1.3675967022380034e+01 2.9531267731192958e+00 1 1 0
1650 1 1.9928038327541248e+01 1.3684257942484843e+01 1.4272255252271238e+00 1 -1 2
2757 1 2.5530958143399012e+01 3.0669801222130672e-01 1.7042611294808857e+01 -1 0 0
2822 1 2.4558185291513276e+01 1.4333002489206955e+01 2.8633101095163922e+00 0 0 1
3193 1 8.0005450406864898e-01 1.9135683758993689e+01 6.2249798965281133e-01 1 0 1
1494 1 4.6484331625373772e+00 1.6742163868909060e+01 1.7192067454828743e+00 0 0 1
3509 1 7.3366323073329669e+00 1.6425667305530826e+01 1.4470531694136972e+00 1 1 1
3336 1 8.5897433111325370e+00 1.8705015753892827e+01 1.1090087674811178e+00 0 0 -1
881 1 1.7262767990203130e+01 1.6765139242349502e+01 2.3834497337780309e+00 2 1 0
1761 1 1.6805949701666645e+01 1.9180344051371282e+01 3.6440188767894699e+00 -1 0 -1
3318 1 1.9894951260417422e+01 1.6198922329958361e+01 2.3867831411492753e+00 -1 2 -1
354 1 2.4384625996227577e+01 1.8571142937621488e+01 1.3280425890300742e+00 -1 2 1
2410 1 2.4295741998805500e+01 1.6836937778031302e+01 3.6653268730778295e+00 1 0 1
2683 1 1.6514584186380318e+01 3.2876469046629353e-01 1.3517969337328703e+01 1 1 1
2357 1 2.2029135873213352e+00 2.2569975090963080e+01 3.6669709751677289e+00 0 -1 0
848 1 9.0876303333213215e+00 1.0508945070862263e+00 1.6735776701187209e+01 0 -2 1
1875 1 4.7294017481985549e+00 2.1840573105565440e+01 3.2957041111385288e+00 0 0 0
301 1 1.2714565996880607e+01 2.1503205505462347e+01 2.7545277851621921e+00 0 3 -2
3764 1 8.5167160312444790e-01 1.5844300402621998e+01 4.7956444739720752e+00 1 0 2
2780 1 1.6940415464393233e+01 2.0991669613781575e+01 1.9031695018083084e+00 -1 0 2
3057 1 1.9874845045409632e+01 2.0958495646171873e+01 1.1031086662808973e+00 0 0 3
3087 1 2.1723105240550133e+01 2.1547233260072737e+01 3.0914248191894784e+00 -1 1 -1
3102 1 2.4306378668521987e+01 2.1258061855542056e+01 2.3003640721915564e+00 1 -2 0
325 1 1.0625269887454507e+00 2.4475933428376326e+01 2.3091615190801642e+00 -1 1 -1
2881 1 6.4151285412408674e+00 2.4264861335426499e+01 3.5520633583778376e+00 4 0 2
25 1 8.7261192191610704e+00 2.3970129389949864e+01 2.6159900422222715e+00 1 1 2
1771 1 1.3638963580432364e+01 2.4068205643713682e+01 3.0478740663878527e+00 0 -1 1
3027 1 1.6359832414952329e+01 2.3696541133917648e+01 2.6174198254764991e+00 0 0 1
3423 1 2.1852218554454009e+01 3.8578749823871389e-01 4.3823679014775347e+00 1 2 -2
1986 1 4.0417948446028902e+00 3.3055953213192879e-01 1.3874893188885071e+01 1 1 -1
2283 1 2.4085000208533742e+01 2.5397927440986077e+01 5.7655713186952140e-01 2 -3 0
3257 1 2.3012566104854262e+00 1.9377445844208305e+00 5.2458581495141168e+00 1 0 0
2039 1 7.2645443152568836e+00 1.8962952102483230e+00 6.4085894484261461e+00 3 0 1
1151 1 9.7460741622398483e+00 1.1456377857441982e+00 5.9025026004256924e+00 -1 3 1
3176 1 1.1142575100033689e+01 3.3462088288890639e+00 6.7281780253213368e+00 -1 2 1
3561 1 1.3646420440163972e+01 3.0218826551304909e+00 5.6271561418755836e+00 -1 4 0
3098 1 1.5046520604652875e+01 9.4877680970874123e-01 6.9046968983865771e+00 -1 0 1
2369 1 1.7742858614870784e+01 7.3050076491156390e-01 6.1635942966065542e+00 2 0 -2
1300 1 8.7603925448603679e+00 2.3053007438775385e+01 1.4059522486143265e+01 -1 0 0
3001 1 2.1572498551215759e+01 3.0491617666091897e+00 5.0623139989332895e+00 0 0 -1
475 1 1.9413845586493956e+01 6.2343325243607828e-01 1.6987429976614361e+01 -2 0 -3
2142 1 2.5457407124296600e+00 6.3607993700456458e+00 3.5395245937682183e+00 0 -2 -2
3397 1 3.7626954221914053e+00 4.4302172769402448e+00 4.8346904775263333e+00 0 2 0
1887 1 6.5026787663045003e+00 4.0792921789366057e+00 4.8859191008212095e+00 1 0 2
474 1 9.3457802042912466e+00 5.1817973197451090e+00 5.4424779049344005e+00 2 -1 -1
1527 1 7.3447306343434340e+00 6.8150620720325579e+00 6.8268225672064711e+00 -3 2 0
2513 1 1.5270813969603005e+01 5.0363660738368781e+00 6.0297714432217377e+00 -1 0 2
842 1 1.9034806650891390e+01 3.1077380572439490e+00 6.0243658795545851e+00 0 3 0
856 1 1.7587040573058442e+01 5.1325588632457855e+00 4.9136417939706662e+00 1 2 1
4057 1 5.7411954974386132e+00 8.8493151181158272e+00 5.4396309063301800e+00 0 2 1
858 1 9.7434203434989541e+00 9.3455609697901743e+00 3.8852288742271739e+00 1 0 0
3455 1 1.0897284901170524e+01 7.5779470012830377e+00 5.8218048853424795e+00 1 -1 0
3513 1 1.3514329748421440e+01 6.8989328689763871e+00 4.6891918464969065e+00 1 3 2
1131 1 1.4613171624019813e+01 9.3176485556473470e+00 5.2958520334703669e+00 -3 0 0
3707 1 1.7156262989756186e+01 9.5104928576730945e+00 4.2898434141107202e+00 -1 0 1
3129 1 1.8640708224547389e+01 7.6082522769549890e+00 5.1697103520575620e+00 0 0 -1
3307 1 2.1171493166441255e+01 7.4726817749342542e+00 4.0535812864485443e+00 -1 0 -1
2265 1 2.2876340670554232e+01 7.9063857496697061e+00 5.7289442681722385e+00 0 0 1
265 1 3.2173657899432793e+00 1.8552458574290576e+01 3.1366425024532896e-01 0 2 1
665 1 1.4229051883495516e+00 1.1708810644052463e+01 6.1275258692097951e+00 0 -2 -1
1203 1 2.5549543374371869e+01 7.9296949183062244e+00 4.6544553593020899e+00 1 1 0
37 1 7.6806980622446233e+00 1.0781834742632203e+01 5.0661208420516246e+00 1 0 1
3060 1 1.3290517850469532e+01 1.1597981389535825e+01 4.1256453389931060e+00 2 1 -1
1546 1 1.7622876482150708e+01 1.1944616981926247e+01 4.9426594493035694e+00 0 1 3
3618 1 2.1742526197859533e+01 1.2301539773811676e+01 5.6592192725967241e+00 0 -1 1
2431 1 2.4285384441942487e+01 1.2613970150432317e+01 4.8792949753551813e+00 1 1 1
435 1 2.6682441244508803e+00 1.3910355464839666e+01 5.2708607685754680e+00 2 2 0
3902 1 5.6583778980468971e+00 1.4356485759235335e+01 5.5461460619077307e+00 1 0 2
2442 1 7.1805834657190939e+00 1.1982936805658301e+01 2.4151457351356771e+00 1 1 0
3064 1 1.0440363791320317e+01 1.5095539079476087e+01 4.0865093101090855e+00 1 0 0
7 1 1.2132222994509060e+01 1.3617644445566912e+01 5.6629372596624004e+00 -1 1 0
944 1 1.5552810684779612e+01 1.5924028834545600e+01 5.2645407867710956e+00 1 0 2
3861 1 2.1529477840600446e+01 1.5014332840252207e+01 6.2883966458269747e+00 0 0 1
2122 1 1.8975632770845194e+00 1.8273126265204642e+01 4.7396267659705709e+00 1 -1 1
3835 1 5.4180699268966288e+00 1.6866402424563187e+01 6.8058623784012227e+00 1 1 2
2931 1 4.4360811405915417e+00 1.7964582823154018e+01 4.0369139834688008e+00 0 -1 1
4011 1 9.9457441556110684e+00 1.7747884325261769e+01 5.3590909768990640e+00 0 3 1
3616 1 1.3190491229411647e+01 1.7540284695191659e+01 4.6713045237440776e+00 -1 2 0
2221 1 1.7509905273462596e+01 1.6912194203578014e+01 7.2539178312394599e+00 -2 -1 1
569 1 2.1541603218872467e+01 1.7109114436135457e+01 4.4958907820194236e+00 0 2 -1
2470 1 6.0892195630806825e+00 1.9918186611475708e+01 4.3575487164095064e+00 -1 -1 1
3063 1 8.7921679851052019e+00 1.9564747586234155e+01 3.7752208407206309e+00 0 -2 1
6 1 1.0071456688620948e+01 2.2099275701535067e+01 3.9940656103988408e+00 0 1 0
4090 1 1.4336874241201128e+01 1.9953583897343016e+01 4.3359151395688089e+00 -1 0 -1
82 1 1.3981412035670195e+01 2.0563293400264602e+01 6.9361877826509923e+00 1 1 1
2958 1 1.8645486415644775e+01 1.9208784238643272e+01 5.8543800088221447e+00 1 0 2
521 1 1.7841410187938603e+01 2.2956639387631924e+01 6.6452512390430885e+00 -1 0 0
2081 1 2.1077863113962710e+01 1.9918739172352325e+01 5.3419385413138381e+00 1 1 -1
3595 1 2.2945294716771546e+01 2.0348536068622785e+01 7.1030047288892186e+00 -1 -1 1
2544 1 1.0109270250658907e+01 2.5557904728191865e+01 1.4121512033170774e+01 -2 -3 -1
1023 1 2.1411492297141121e+00 2.3052317096718561e+01 6.1175189727254873e+00 0 2 1
145 1 1.7117037184959756e+01 2.5400107787428283e+01 5.6577579257335031e-01 2 -1 1
3128 1 4.8721903996374607e+00 2.5224484169863928e+01 1.3175852930788896e+01 3 1 -1
121 1 9.7874629102436810e+00 2.2758264751281455e+01 6.4160286204229608e+00 1 0 1
185 1 1.1400467858282141e+01 2.4986110272983172e+01 6.5744903932654299e+00 1 2 -1
2935 1 1.3852699377039654e+01 2.4623498323978172e+01 5.6690292941908806e+00 2 -1 -1
3418 1 1.5385201260755609e+01 2.2866459375937847e+01 6.9575805867890628e+00 0 -2 -1
344 1 1.8096313578325748e+01 2.4223797762116796e+01 4.3685675379572704e+00 1 4 1
2485 1 2.0894143111381791e+01 2.4302328392540190e+01 3.6136458842905355e+00 -1 -1 -1
4014 1 2.2666705903647976e+01 2.4743162240622361e+01 5.6006902465454109e+00 0 1 2
2425 1 8.0119617977736712e-01 1.4964869095339084e+01 2.2513820378704934e+00 0 -1 0
367 1 2.1598870147074982e+00 3.5069859008567552e+00 8.9558621508567793e+00 -2 1 3
3538 1 3.1398857774254414e+00 9.7425474682160507e-01 8.8130059909351885e+00 2 1 -1
2279 1 5.5482140785214629e+00 1.1650802127713278e+00 1.0160597489343033e+01 -1 0 3
4046 1 7.1193378480554568e+00 2.6084276958150303e+00 9.0178511947913691e+00 -2 1 2
399 1 1.5054718439945917e+01 1.6283840722738312e+00 9.5919748223647208e+00 -1 0 0
523 1 2.0398150277881960e+01 1.6136596470650686e+00 1.0103870619604537e+01 0 -1 0
2507 1 2.2902913118564967e+01 2.1380541462337574e+00 9.1209586034337065e+00 2 3 0
787 1 3.2973068941765056e+00 5.0931529281890571e+00 7.3761805356469639e+00 2 2 2
3223 1 5.8291572708628800e+00 5.1411913672738327e+00 8.3343945812043945e+00 -1 2 0
2835 1 1.1251943454011460e+01 3.3328036569599786e+00 9.2948339333028027e+00 0 1 0
3566 1 1.2384128309982316e+01 5.7580656428976500e+00 9.6358700758326332e+00 2 0 -1
2758 1 1.5051223576409972e+01 5.5246726260723173e+00 8.8144196981476384e+00 1 -1 1
2733 1 1.6689481582922859e+01 3.7109673418169979e+00 1.0140262142200893e+01 1 3 2
1240 1 1.9144944212844837e+01 3.6877910544407451e+00 8.7020776623746325e+00 -1 2 0
4040 1 2.0033027742620565e+01 5.9924923974409703e+00 9.1598655647700600e+00 0 2 -1
3880 1 2.3082053112998057e+01 3.8242340834284860e+00 6.8970472376021918e+00 0 1 3
920 1 2.2368018079540466e+01 5.9952410933153857e+00 7.7349664664874371e+00 -1 1 0
3878 1 2.3001594803693375e+00 7.7891848689713576e+00 7.5804567879685658e+00 1 2 1
487 1 1.5668666675017764e+00 8.5269295583615854e+00 1.0009077082329568e+01 2 1 0
1396 1 3.3977813534305783e+00 9.8595223280432407e+00 6.7944079686506598e+00 0 -1 -1
3441 1 8.3544997489768154e+00 8.2537064525736668e+00 8.9804070486458922e+00 2 2 0
1962 1 1.1054925583292071e+01 8.0342906494460706e+00 8.5427719111476250e+00 2 0 2
2853 1 1.4907070081041802e+01 1.0145975580965455e+01 7.9554462171287668e+00 1 2 2
2174 1 1.5972993954955975e+01 8.0171926242254372e+00 9.0342858761469138e+00 0 2 1
2370 1 1.8621875133764863e+01 8.0988246366831262e+00 7.9065668405771907e+00 0 0 1
3430 1 2.3811891537618873e+01 7.7628012945310862e+00 9.8138377248904796e+00 0 -1 0
1750 1 4.5630190598423805e+00 1.0301958292531140e+01 9.3324319857143134e+00 -1 1 1
2082 1 8.2470620583287051e+00 1.1772374159610321e+01 7.4388494404294709e+00 -1 0 -1
2860 1 7.0140523117012830e+00 1.0563160150475939e+01 9.7798478428438713e+00 -1 -1 1
2204 1 1.0747586019299240e+01 1.2516588162411388e+01 7.8223666729673749e+00 -1 -2 0
1093 1 1.2285588067040109e+01 1.0450006246367375e+01 8.8314795515079236e+00 -2 1 1
236 1 1.6098758762911260e+01 1.2539784993889230e+01 8.4459480327633276e+00 -1 -2 -1
3789 1 1.8492549446913742e+01 1.2552351041171017e+01 7.1586235613804572e+00 0 2 1
168 1 1.9622976329723560e+01 1.0549860183490516e+01 8.6095232741294154e+00 -2 1 0
855 1 2.2091448103918236e+01 1.0121947927755508e+01 7.5298288044270469e+00 0 1 2
2297 1 2.4531711292258649e+01 1.1269566418699258e+01 8.5434292056522771e+00 2 -1 1
3445 1 2.7696260287677728e+00 1.4880772685859458e+01 7.9460584697372285e+00 2 0 2
1451 1 4.1100282522074885e+00 1.3027116552329744e+01 9.3668944398249483e+00 1 0 0
3574 1 6.4266424260427435e+00 1.3598931721238541e+01 7.9943022449875736e+00 -1 0 0
159 1 8.3614888071601587e+00 1.5559563212444287e+01 9.5716139852898294e+00 -1 0 0
2131 1 1.0773108522459360e+01 1.4590638244146628e+01 9.6461716193550817e+00 0 0 -1
3864 1 1.4286483827100092e+01 1.4450969030315415e+01 6.9650789795579122e+00 -1 -1 1
827 1 1.4535519994392381e+01 1.6205902913696310e+01 9.0834105643024401e+00 0 1 3
1287 1 1.9362813065781179e+01 1.5033028633660681e+01 7.6995719449825133e+00 0 1 -1
3855 1 1.9585718876489128e+01 1.4957363375881355e+01 1.0529214420847762e+01 1 1 0
1916 1 2.3038106293593771e+01 1.6036941303443648e+01 8.1636941164347334e+00 -2 0 1
1803 1 1.7783649245341957e+00 1.9074404761533692e+01 7.2332291095247347e+00 3 2 1
100 1 3.7294733846722727e+00 1.7392170067440954e+01 8.6825621383750722e+00 0 3 0
886 1 8.1099906692101698e+00 1.6992316915245731e+01 7.5880573528850199e+00 1 -1 2
2618 1 1.1744810380744992e+01 1.8850052664905924e+01 7.3241378114500471e+00 0 1 3
1417 1 1.2119109150631392e+01 1.7087498270237635e+01 9.4337232464511231e+00 0 -1 1
3869 1 1.5704229931324035e+01 1.8954096555599630e+01 8.2552788036702260e+00 0 -2 1
3215 1 1.8254871289645088e+01 2.0507793083022975e+01 8.1129215958737610e+00 0 1 1
991 1 1.9909030439836680e+01 1.8960344370189532e+01 9.8922334791077677e+00 -1 0 2
1992 1 2.2395366776938371e+01 1.8463030056017367e+01 9.1112175922988445e+00 1 1 0
1582 1 3.3799555764379394e+00 2.1804013620635782e+01 1.0271391187415109e+01 2 0 0
3599 1 6.1176474789878927e+00 2.0822324299519313e+01 6.6493338582501567e+00 0 0 1
3388 1 3.5161440867132869e+00 2.1202790019811367e+01 7.5104684692583179e+00 1 2 -1
2315 1 8.1382002307763290e+00 1.9584291655255001e+01 8.5069940615263935e+00 1 0 1
1335 1 1.0498610299598742e+01 2.1061773181087013e+01 8.2401629650186177e+00 0 -2 -1
568 1 1.1242997026795175e+01 2.2000674824849387e+01 1.0680168562588632e+01 -2 0 -1
1932 1 1.9926877810001184e+01 2.1225118942585521e+01 1.1792703584563739e+01 1 1 0
624 1 4.7477706451331594e+00 2.4368179305127057e+01 1.0623435156052864e+01 2 1 1
3668 1 7.3961704053094914e+00 2.3165619915524346e+01 7.5000470045240055e+00 2 -1 0
3874 1 7.3525874340984645e+00 2.3503030620394160e+01 1.0019142283539543e+01 1 0 0
257 1 1.5390515550212887e+01 2.3961676801213038e+01 9.5859787502399580e+00 -1 0 -1
2723 1 6.1662142682686989e+00 2.3300429737811800e+01 1.4544007456327353e+01 3 0 -1
2488 1 2.0102800348461880e+01 2.2807291518585981e+01 9.2166201222404549e+00 1 1 -1
1372 1 2.2567159353116580e+01 2.3108307273635223e+01 7.8446993749896619e+00 2 1 0
2734 1 2.4278671792307190e+01 2.3603860758899788e+01 9.7578650849273760e+00 0 2 1
4079 1 2.3694925794285719e+00 2.5562548599844220e+01 1.3692769228557070e+01 3 1 1
864 1 5.5651457911795070e+00 1.9573183044714531e+00 1.2728661540233537e+01 0 0 1
3476 1 8.2337722682041576e+00 1.9124849338677337e+00 1.2627544874197358e+01 2 -1 -1
2291 1 1.2431268762085104e+01 1.5133914286722132e+00 1.0635405612024853e+01 0 -1 1
3235 1 1.2525438149955342e+01 2.4554615731216654e+00 1.3297773978162622e+01 -1 0 1
1100 1 2.0307042496761209e+01 2.1826026231625590e+00 1.2707116673226075e+01 0 1 1
784 1 2.5481589341370235e+01 1.5188286922440872e+00 1.0706526506795839e+01 -1 1 0
3515 1 2.1179152400913677e+00 4.4234506636732149e+00 1.1546153601078682e+01 -1 2 1
2826 1 1.9210811605132879e+01 9.5021605334533668e+00 4.1356106540008969e-01 -1 1 2
1853 1 4.5736332770639692e+00 4.3726313950385558e+00 1.2459384946600199e+01 -1 1 0
3435 1 5.7634827632168930e+00 6.1942533742910477e+00 1.0841434770408810e+01 1 3 1
2257 1 8.9980946168322244e+00 3.3924978106128778e+00 1.0503520418412400e+01 2 0 -2
2611 1 8.3349851030841240e+00 6.1494713613474712e+00 1.1161207561101543e+01 0 -1 2
2870 1 1.6341410371837817e+01 4.5124425098031589e+00 1.2767776738352360e+01 -1 -1 -1
3468 1 1.8773259747552153e+01 4.3832838688714739e+00 1.3827677657342473e+01 0 2 1
3638 1 1.9963491675676206e+01 6.0300945877983567e+00 1.2034841899586191e+01 1 3 -1
2421 1 2.2409632569967233e+01 6.3707590397269742e+00 1.3371729399233791e+01 0 -2 0
1340 1 2.4058950020766574e+01 4.3980787844704547e+00 1.3799831045148995e+01 -1 1 -1
687 1 4.0842800093192828e+00 8.2302187336313963e+00 1.1123705898379502e+01 0 -1 0
912 1 4.2634171654173016e+00 9.5915602264669921e+00 1.3468271062721353e+01 0 -2 0
2320 1 1.2553488176515637e+01 6.4382562187486885e+00 1.2326930578678747e+01 0 0 -1
3739 1 1.1921665535797377e+01 9.1369165600161271e+00 1.3132722614667266e+01 2 -1 0
3917 1 1.5195709813306156e+01 6.5810150182842149e+00 1.3146429901751787e+01 1 0 1
3659 1 1.6256772783050099e+01 8.6592271154130014e+00 1.1906204586482998e+01 -1 1 2
749 1 1.8619905760546526e+01 8.3183783824514244e+00 1.2556851956239417e+01 -1 -1 -1
3533 1 2.3683214511557662e+01 8.4758815744577731e+00 1.2844902507950984e+01 0 0 1
1191 1 5.2181545105237284e+00 1.2000328500800711e+01 1.3533511031230139e+01 1 2 0
3407 1 7.6706067739113681e+00 1.1325334875483099e+01 1.2542826626224082e+01 1 -1 -1
3157 1 1.2511710218033150e+01 1.1184725756976286e+01 1.1476900401347001e+01 3 0 0
529 1 1.5030586094133252e+01 1.1089808667824741e+01 1.2408034521141131e+01 -2 0 0
1882 1 1.6060938930951828e+01 1.2933339999508107e+01 1.1095137225659430e+01 2 1 1
1835 1 1.8514910825277919e+01 1.2909523662635946e+01 1.2026281643839186e+01 2 1 1
711 1 1.9586992057006615e+01 1.0579144025806198e+01 1.1460731926650189e+01 -1 0 3
631 1 2.2270533928483175e+01 1.0909699682764533e+01 1.2114422492883115e+01 -1 -1 2
3201 1 1.3736202959166212e+01 2.2922904884659392e+01 1.4018307745765858e+01 0 2 2
3695 1 2.3958943121581189e+01 1.2385942768437850e+01 1.0873555575564524e+01 0 -1 -2
2961 1 1.4864683496089997e+00 1.4021748384040057e+01 1.2710397425890037e+01 1 0 2
709 1 3.9600512881471213e+00 1.3907353483518003e+01 1.1695453856013774e+01 2 2 0
1323 1 4.8534864764278689e+00 1.6173300521481664e+01 1.2702673741828404e+01 -1 2 1
2008 1 8.9853140724607083e+00 1.3685310155928290e+01 1.3184075151558586e+01 -1 1 1
3730 1 7.6365161098356067e+00 1.5607221378152230e+01 1.2213625646987417e+01 1 0 0
3762 1 1.1285705930193819e+01 1.3728151999549889e+01 1.2065302913608511e+01 -1 0 -2
3253 1 1.3203985088065741e+01 1.5159404115410421e+01 1.3242944092805052e+01 1 -2 0
1849 1 1.5441980277366749e+01 1.5495923323013333e+01 1.1553883386131902e+01 1 0 2
3310 1 2.5656622082680560e+01 1.5773486458885021e+01 7.4277984954323042e+00 2 1 2
2323 1 2.2476196242645990e+01 1.4668720456181070e+01 1.0442505772135778e+01 0 1 1
2176 1 1.0013012497675273e+00 1.8144683929656630e+01 1.1678841362693824e+01 2 -1 -1
2967 1 3.7376939290437865e+00 1.8070453783528510e+01 1.1496560226405885e+01 2 -1 -1
320 1 8.8121108455855577e+00 1.8183401668787461e+01 1.2670492106090173e+01 1 -1 1
2387 1 1.1540401306215504e+01 1.7579379133076895e+01 1.1963582088491213e+01 0 -1 0
3381 1 1.6484102837825958e+01 1.7511066468374015e+01 1.2344943937240171e+01 3 1 1
1215 1 1.9323629761067643e+01 1.7192131995743903e+01 1.1836951620527499e+01 -1 0 -3
1668 1 2.3274017412831302e+01 1.5883830854762493e+01 1.2445551426544519e+01 -1 3 1
3094 1 2.4051670686873681e+01 1.8385522504264628e+01 1.3228699154603715e+01 1 1 1
598 1 9.8927351111172968e-01 2.2171436333185138e+01 1.1038578272145068e+01 0 -1 0
3159 1 5.1480252212256961e+00 2.0265001333219853e+01 1.1557187341846763e+01 2 2 2
805 1 7.6843950806943351e+00 1.9793387090978342e+01 1.1143517156785435e+01 1 0 0
2691 1 9.0386014768478518e+00 2.1958613236461879e+01 1.1620402370249730e+01 0 0 2
146 1 1.2858397353539869e+01 1.9854966971113459e+01 1.2111420760112944e+01 1 -1 -1
1601 1 1.5352182866493965e+01 1.9271286097776429e+01 1.0875792618476000e+01 0 0 0
824 1 1.5405821457802654e+01 2.2106667509916846e+01 1.2091984862791749e+01 -1 -2 0
2248 1 1.7737046392022314e+01 2.1911165558740020e+01 1.3462740392390074e+01 1 0 -2
662 1 2.1898381102862981e+01 1.9671803784459222e+01 1.4485661681469761e+01 1 2 0
191 1 2.2101626975531094e+01 2.2337496688517344e+01 1.3224134876919821e+01 1 0 2
3349 1 2.4521988971327360e+01 1.9288426444378807e+01 1.0791774366007143e+01 2 2 -1
1227 1 2.4599656177794039e+01 2.1770888366578113e+01 1.1796377309892822e+01 -3 2 0
2017 1 1.0507097832739409e+00 2.3506005118525579e+01 1.3486893064433650e+01 0 0 3
465 1 5.1412522998186394e-01 7.6888779078646667e+00 1.4119006937442755e+01 -1 2 1
672 1 1.2680305061810419e+01 2.4029083406814621e+01 1.0476750273181560e+01 0 0 2
930 1 1.2545275518023265e+01 2.4997196191257689e+01 1.3252495466068028e+01 -1 0 2
1639 1 1.8115025840924616e+01 2.4600225529114223e+01 1.4407855736821173e+01 -1 1 -1
3813 1 2.0848745365511611e+01 2.4872554690183932e+01 1.3480290012038083e+01 0 3 1
1253 1 3.4174961121880258e+00 2.5245538186114985e+01 6.4430091406895391e+00 0 1 -1
3951 1 2.3279264805118743e+01 1.1883757548149880e+01 1.6329700878707637e+01 1 -1 2
2609 1 2.0337926618122324e+01 1.4977809693160631e+00 4.6292314830020959e-01 1 -1 1
728 1 2.2528886250275132e+01 1.3851208421111050e+01 8.8302835559318060e-01 -2 -1 0
1381 1 7.8969305824223177e+00 3.0118537270033103e+00 1.5327779871466653e+01 -2 3 0
1675 1 3.0684965432259209e-01 2.6309955529898748e+00 1.2843682803758309e+01 0 1 2
1158 1 1.5092514959465575e+01 2.5453384795445468e+00 1.4090545538354663e+01 2 0 1
3571 1 7.9290158472561834e-01 2.0214194518565350e+01 3.2731941756555503e+00 0 0 1
181 1 2.0961258790805189e+01 2.5649759961570719e+00 1.6273389173725452e+01 0 1 -2
390 1 1.5411186036790372e+01 2.3940554020391808e+01 1.5835587281801836e+01 -1 0 2
66 1 2.2583147122509772e+01 2.2379905178882025e+00 1.4190621919657673e+01 -2 1 0
2005 1 1.8914297940358376e+00 5.4188402762901076e+00 1.5517690847636972e+01 0 -2 1
33 1 5.4775003769968302e+00 3.4218178887837873e+00 1.6428710617797101e+01 0 0 0
2224 1 4.5286713093212754e+00 5.4350582412227055e+00 1.4920078027604013e+01 2 0 -2
2692 1 9.0934535588171634e+00 5.1204676622418734e+00 1.5364132016693029e+01 1 0 1
697 1 1.1562067631697602e+01 4.8692466450873102e+00 1.4117020369615753e+01 0 -2 1
2978 1 1.3196277985911394e+01 5.0343623388470098e+00 1.6485762117641386e+01 2 2 1
5 1 1.9352076269212656e+01 4.8578622164495711e+00 1.6181876570719151e+01 2 -1 0
840 1 1.4987811028382987e+00 1.0193974165199638e+01 1.6600242812599152e+01 -1 -1 4
3134 1 1.4377134503240814e+00 9.8380983768620602e+00 1.4054075105205722e+01 3 2 3
2477 1 5.5537987377046045e+00 7.7608696840571376e+00 1.4939744371423330e+01 1 -3 1
4009 1 8.1163334173611901e+00 7.2212642430199843e+00 1.3993312544554781e+01 2 2 0
3205 1 9.4864332875982829e+00 9.7931936813498357e+00 1.3992357296213234e+01 2 3 1
284 1 1.3116391077079840e+01 9.1428685908648877e+00 1.5588371454897489e+01 -1 -1 1
2647 1 1.4854104863998643e+01 7.0940456415033397e+00 1.5772918650047600e+01 0 -1 1
2970 1 1.9509766687311739e+01 9.0904307210918098e+00 1.5002505627626384e+01 2 2 1
2644 1 2.1020294552752230e+01 6.9161703212783463e+00 1.5493307425172487e+01 1 0 0
3738 1 5.0359305716425915e+00 8.4782943925036225e-01 1.9754091085409167e+00 0 2 3
1459 1 2.7103570255952762e+00 1.2572558615913627e+01 1.6863291124201968e+01 0 1 1
3276 1 9.2065996198731863e+00 1.0891784173920666e+01 1.6328634207689039e+01 -1 0 1
2768 1 5.4021328014456005e+00 1.2899632626461351e+01 1.6160900798084459e+01 1 0 1
295 1 1.4844157991472954e+01 2.8739758314803114e+00 1.6772146023050869e+01 1 -1 0
3750 1 1.4908856914981000e+01 1.1381837809572696e+01 1.5205186733422488e+01 1 -2 1
2006 1 2.1334561009868551e+01 1.1200705560540875e+01 1.4699016841877201e+01 -1 -1 -1
753 1 1.9786886041296906e+01 1.3367692683532436e+01 1.4353184718065716e+01 2 -2 1
2238 1 9.5042413550977916e+00 1.7062556940452765e+01 1.6820844350614212e+01 0 1 -1
2462 1 5.9905440398497067e-01 6.5558600805914482e+00 1.1423476370859657e+01 -1 0 1
3779 1 9.2719532389218196e-01 1.4566533930221979e+01 1.5534844243669122e+01 1 2 1
2869 1 6.2279614575671820e+00 1.5393498727052485e+01 1.6883983308551436e+01 0 2 1
2533 1 8.6943584686780326e+00 1.4532474502918387e+01 1.5731514524716300e+01 -1 0 -1
147 1 1.4245120310302026e+01 1.4023024643881694e+01 1.5310617035469809e+01 0 1 1
2028 1 1.6154900717301349e+01 1.5567261943561467e+01 1.6290725668071328e+01 -2 -1 0
364 1 1.8512326905958957e+01 1.3971690702340709e+01 1.6604733273636096e+01 -1 -1 1
3208 1 2.1719140720650451e+01 1.5490400370686928e+01 1.4481577645262773e+01 0 -1 -1
633 1 1.7397577955193601e+01 1.9860533768657042e+01 1.5474713592444074e+01 -2 -1 1
3325 1 1.0396798690966391e+00 1.9190046439963755e+01 1.4422318565037546e+01 -2 0 0
493 1 1.9652698930573540e+00 1.6877263079455748e+01 1.5904996422096044e+01 -1 -1 1
3122 1 6.0186516597538171e+00 1.9209558014666861e+01 1.5779079723987119e+01 0 -1 0
3380 1 4.7829599787732127e+00 1.6754626818442883e+01 1.5356810655957020e+01 0 1 0
2930 1 8.6380475010063424e+00 1.8971520436843942e+01 1.5220380460751546e+01 3 1 2
530 1 4.7763081502463498e+00 2.0947952875762127e+01 7.9402314872278013e-01 1 1 1
1798 1 1.2111788417910212e+01 1.6671110041363089e+01 1.7214999425753074e+01 0 0 0
2730 1 1.5619147654591369e+01 1.7776964478756497e+01 1.4848288248360703e+01 2 1 -1
748 1 1.3108755785308778e+01 1.7701264771081131e+01 1.4611326753411664e+01 0 1 0
483 1 1.6820957705078925e+00 1.3416880283247290e+00 1.7107236990695167e+01 0 0 0
760 1 1.9972336212587148e+01 1.7799291050696532e+01 1.4618462575025269e+01 0 0 0
1000 1 2.5547868455841796e+00 2.1359369735114299e+01 1.4977643930421955e+01 2 0 -1
1777 1 4.9557807994496423e+00 2.1035528094543928e+01 1.4084380592823502e+01 -1 1 3
106 1 1.0068609350460468e+01 2.1224218181329398e+01 1.5945017148003593e+01 0 -1 -1
23 1 1.2686145219329903e+01 2.0518954445334376e+01 1.5231169652927717e+01 -2 1 0
3585 1 6.1390149538682799e+00 2.5216388835380332e+01 6.0566314247932702e+00 1 -1 -1
1422 1 4.1963666131255346e+00 1.0202628346460751e+00 1.6216748176837640e+01 0 3 -2
3212 1 2.5068211603110374e+01 7.0973914990094773e+00 1.6625130792729692e+01 0 1 -1
2612 1 2.3532339705443455e+01 1.4467339040086603e+01 1.6577819667022140e+01 1 3 0
2830 1 7.9264616150634037e-01 3.2521972582385774e+00 1.5484088454118334e+01 1 1 0
2677 1 2.5526643874194349e+01 4.7548305645996001e+00 1.5839997687887919e+01 0 1 -1
1593 1 1.8907136125154334e+01 3.2849332244635271e-01 1.4200689076230208e+01 1 1 1
3222 1 1.6007004641701190e+01 2.1491022238220584e+01 1.7062895726797098e+01 0 0 -1
522 1 5.9546826925388991e+00 2.4313377954956245e+01 1.7101782006719080e+01 0 -1 2
3833 1 2.5678083060331691e+01 5.5426117232895180e+00 9.9946031710782393e+00 -1 1 3
3584 1 1.1327848156109246e+01 1.8166917143245954e+01 4.8254826274423124e-01 1 0 2
2614 1 2.0030639533421230e+01 1.8294787245405963e+01 4.2740265774423136e-01 1 1 0
72 1 1.4949399564634986e+00 2.2640290414656516e+00 1.9624858636844461e+01 -1 1 0
1303 1 8.6434443949474318e+00 2.9619332910261220e+00 1.8683589118268589e+01 -1 3 2
1126 1 1.2039650560106965e+01 1.8865309998059805e+00 1.9697769675064563e+01 1 2 0