LAMMPS data file via write_data, version 7 Aug 2019, timestep = 200000

4090 atoms
1 atom types

2.7876846397611033e-01 5.1141231536021905e+01 xlo xhi
2.7876846397611033e-01 5.1141231536021905e+01 ylo yhi
2.7876846397611033e-01 5.1141231536021905e+01 zlo zhi

Masses

1 18.15

Atoms # atomic

3495 1 1.1529574517488821e+00 1.7033343890438392e+01 5.1563610196758818e+00 1 1 0
775 1 6.4280759270042731e+00 3.0605317911620351e+00 3.4781038905009356e+00 0 0 1
677 1 9.0363624052319125e+00 4.0873514024910680e+00 1.1164512148162877e+00 0 0 1
2977 1 1.2398314153576344e+01 2.5776682125302024e+00 1.2560103130277076e+00 1 0 1
2230 1 1.9034970786625461e+01 1.4267660189268376e+00 5.2421250270258879e+00 0 0 0
3459 1 2.4283043567497714e+01 1.7305814500515833e+00 1.3986861670534633e+01 0 1 0
3211 1 2.3968795727805869e+01 1.0543618479859431e+01 3.8655995576126920e+00 0 0 0
1805 1 2.9909932728246309e+00 6.5010023098176957e+00 3.0658887103198924e+00 0 1 1
1361 1 3.9374332756095889e+00 4.4207666459125043e+00 4.6800778867419712e+00 0 1 0
529 1 7.8846903101484438e+00 5.9069371224970055e+00 4.1323985515241670e+00 0 0 0
3418 1 8.2350749729929902e+00 2.5121658005202956e+01 1.4407448616050273e+01 1 0 0
905 1 1.2905315795997263e+01 4.8288302468749897e+00 2.8946357027394147e+00 0 0 1
251 1 1.5435595736274536e+01 3.9117623465298959e+00 3.1845817053375916e+00 0 0 0
1204 1 1.6306214033452640e+01 2.5188023493605982e+01 1.2659174049537791e+01 0 0 0
1149 1 1.9379244348405738e+01 3.8371846449647284e+00 3.8479790695742122e+00 0 1 0
1428 1 7.7673564336645091e+00 3.6473854694098407e-01 1.1677463594968962e+01 0 1 0
270 1 2.5619272265966618e+01 4.3447969773180937e+00 2.2096623846804677e+00 0 0 0
3094 1 1.3392630196798882e+01 1.6331496635933898e+00 8.2200905383906626e+00 0 1 0
422 1 1.7051329407107698e+01 1.1225485854611222e+01 4.7211568341024790e-01 0 1 0
2162 1 9.7830436425573009e+00 1.0081356932989513e+01 3.1115138394929533e+00 1 0 0
1389 1 1.3650496372135240e+01 7.2941655848437277e+00 2.4824175031810078e+00 0 1 0
969 1 8.5548991057261397e+00 4.4454825128255822e+00 1.5838528074677447e+01 0 0 1
3939 1 2.4406356437905014e+01 2.0544393730292231e+01 2.6597967211746965e+00 0 0 1
983 1 1.7878371438252838e+01 5.2271794169870995e+00 2.1976661901228427e+00 0 0 1
2745 1 2.1241361018380619e+01 6.8865494660642916e+00 2.2624715903332424e+00 0 0 1
2949 1 3.6020949158546984e+00 1.5056842113744734e+01 1.7292077455246342e+00 1 0 1
3274 1 1.9267458589777167e+01 8.2255126342454687e+00 1.0608081095202033e+00 0 1 0
592 1 2.3971139025322177e+01 2.5161224533150815e+01 7.2772233493598861e+00 0 -1 0
1338 1 2.5291568979234214e+01 1.9944896583097670e+01 1.3552128695466255e+01 0 0 0
3844 1 2.4996808098767726e+01 7.6957955637054773e+00 1.5663810560148887e+01 0 1 1
2310 1 8.2253907045922077e+00 1.2256211780523408e+01 2.1408182382028138e+00 1 0 0
2802 1 1.7518262901902848e+01 6.9056287054222949e+00 1.6144093376154061e+01 0 0 0
416 1 2.1369286380796129e+00 1.3951555749705239e+01 1.2902135405429476e+01 0 0 0
3398 1 1.7454876539070554e+01 9.7822592152870449e+00 2.4446432160977025e+00 0 0 0
1388 1 1.0647847077083664e+01 1.9469517936598450e+01 6.5755228762002516e-01 0 0 0
1135 1 8.2769998350247107e+00 1.7657753692102600e+00 4.9522348348813159e+00 0 1 0
1067 1 8.6455298732008039e+00 1.6416576548819091e+01 1.7189172760631791e+01 1 0 0
1489 1 1.5641837873579448e+01 2.2237445225041441e+01 1.4911112392395371e+01 0 0 0
3937 1 9.3628351777953842e+00 1.5824871892502788e+01 2.6273188118102651e+00 1 1 1
1198 1 1.8911803019821839e+01 2.4411637652457724e+01 2.6242711757181265e+00 0 0 0
2199 1 1.2111040144632316e+01 1.2057257432002068e+01 3.7015111383928301e+00 0 0 0
105 1 2.5232219152953828e+01 2.1555367257301643e+01 9.5402346552783808e+00 0 0 0
2775 1 1.6043852875719626e+01 1.3770265491475790e+01 2.7226120394312816e+00 0 0 1
1095 1 1.9917942966551546e+01 1.2786533882125653e+01 9.9741107785007899e-01 0 1 0
4049 1 2.2194971132365946e+01 1.7351989822054485e+01 1.2140965988740300e+00 0 0 1
2636 1 2.2208942288964462e+01 1.4508379148236434e+01 5.7537296231101265e-01 1 0 0
1487 1 3.1124821110725405e+00 1.7805808944478706e+01 1.1117149175288783e+00 0 0 0
1416 1 5.1158685017820522e+00 1.8503150040258021e+01 3.1092431310884292e+00 0 0 1
2002 1 6.5219303312801165e+00 1.5894570285575103e+01 2.5858095040891103e+00 0 0 1
3696 1 4.0823884094298757e+00 2.5163034220633570e+01 1.2837150244890825e+01 1 0 0
2890 1 1.0699905648692409e+01 1.7987555827548494e+01 3.0765108505213514e+00 1 0 1
3548 1 1.3133026485847314e+01 1.6351984216658082e+01 2.2686376513743260e+00 0 0 0
1197 1 1.4861834727798396e+01 1.8901809012669894e+01 3.1925810155395320e+00 0 0 0
1357 1 1.9146093300520370e+01 1.7023532869071499e+01 1.7550000572017983e+00 0 0 0
2340 1 2.4461448692957795e+01 1.7930347697953035e+01 2.9653329722750268e+00 0 0 0
146 1 6.4368491299194384e+00 2.0300468193622738e+01 9.3643473907600072e-01 0 0 0
2879 1 5.8498984984689950e-01 5.6754984786500824e+00 5.8718099192704383e+00 1 0 1
1358 1 1.5651823115419907e+00 1.6738054996851346e+01 1.6606277804820259e+01 0 1 0
728 1 1.6843968502412697e+01 1.9797347800647131e+01 1.4214745581505028e+01 0 0 1
1414 1 2.1712014047248704e+00 3.1822904430720858e+00 1.8911176877763578e+00 0 1 0
3528 1 1.1877399260450485e+01 2.1340650889635945e+01 4.6574004502154152e+00 1 0 0
1076 1 1.1546134491509173e+01 2.0570369918507886e+01 1.5835190093606553e+01 0 1 0
1953 1 1.6992979384335804e+01 2.4818564260613911e+01 4.1726679780649678e-01 0 0 1
3746 1 2.3534620588665408e+01 1.0819213632838572e+01 4.4973631637549805e-01 0 0 0
176 1 2.6748157149744691e+00 2.2922503491862475e+01 2.7064504987298581e+00 0 -1 0
2708 1 2.3363065469621116e+01 2.4144505544007547e+01 3.7849596268964287e+00 0 0 1
1114 1 7.6668132920831633e+00 2.4236645313679706e+01 2.5183342820661485e+00 0 0 0
2901 1 1.6313611194013976e+01 2.2014255634386874e+01 5.8137384385033819e-01 1 0 1
754 1 8.3889133266752349e+00 1.8584503447644529e+00 1.5050519116698471e+01 0 0 0
1778 1 1.3646226040878272e+01 2.4622620671568630e+01 3.6451103664909046e+00 0 0 1
269 1 1.4535163393806052e+01 2.1755404778816455e+01 2.6996898166018122e+00 0 0 0
674 1 1.0662443795082899e+01 7.0176108682210092e-01 1.6202466551752423e+01 0 0 0
237 1 1.0053142292616203e+01 1.3726365377528418e+00 2.5036604017039488e+00 0 0 0
268 1 1.9706626277840471e+01 2.1834300494369224e+01 2.3387079916319071e+00 0 0 0
93 1 5.5549418649944924e+00 1.3327685935963360e+00 1.5876173058131320e+00 0 0 0
3169 1 2.2474961825730357e+01 2.2254827127813581e+01 1.7398797217153716e+00 1 0 0
1761 1 3.1649581709346775e+00 3.3883648452066892e+00 6.7955029598670871e+00 0 1 0
3997 1 7.3619294339879584e+00 3.6769589160267346e-01 8.9464294264593054e+00 0 1 1
1032 1 3.2764257401730617e+00 1.1841185760819166e+00 3.2300351146812658e+00 1 0 1
1514 1 1.8931235929961680e+01 2.4202904740923955e+01 6.2465404118028847e+00 0 0 0
1100 1 5.3345228690759221e+00 1.1185735044073523e+01 1.4857320595728284e+01 0 1 0
3014 1 1.5172290213052653e+01 1.3914210604813100e+00 2.3002631894497672e+00 0 0 1
3426 1 1.2551057126259856e+01 1.5984094539139246e+00 5.4299391437762790e+00 0 1 1
130 1 1.5917481580942194e+01 9.8811188409857664e-01 5.5327599810630765e+00 0 0 0
691 1 1.8026899224090304e+01 8.5183387717820958e-01 2.5802832944225966e+00 0 0 1
420 1 2.0090058324584415e+01 3.0037015018455495e+00 7.4902104804748522e+00 0 0 0
2056 1 7.0669267298085767e+00 2.5647474241310508e+01 6.9258113835670807e+00 1 0 0
335 1 1.6130381754823901e+00 2.0652368915588799e+01 3.7083055347915179e+00 0 0 0
3025 1 2.5210876598660811e+01 1.1734996072561486e+01 1.6680037281630362e+01 0 0 1
2701 1 6.0872333800177501e+00 6.2884758585216831e+00 6.1857711011384531e+00 0 0 0
2916 1 9.2637560264297996e+00 3.9045796646568238e+00 6.3113253483425673e+00 1 0 0
1610 1 1.1461098196386887e+01 4.8753345611332382e+00 5.1337136701388451e+00 0 1 0
2154 1 1.5770167346607060e+01 4.0650489479507339e+00 6.0280646061143699e+00 1 0 0
1015 1 1.8003793996219361e+01 5.5951836398104344e+00 6.2233063853814334e+00 0 0 1
4063 1 2.2336630145248449e+01 4.0013599906844002e+00 4.0557516902438664e+00 0 0 1
943 1 2.4265131388799489e+01 6.3444482856977453e+00 3.9942890567239626e+00 0 0 1
2376 1 3.5371808938984954e+00 9.6909786686788699e+00 4.9795874282258472e+00 1 0 0
2068 1 6.9237208921056892e+00 7.9974531809892824e+00 2.6084433369447280e+00 0 0 0
1505 1 6.2877396900381450e+00 1.0169314331995434e+01 4.6770510367328413e+00 0 0 0
1771 1 1.0565205323172176e+01 7.4669655903153291e+00 4.2441993427634976e+00 0 0 1
643 1 1.6178692839568271e+01 7.3581123125586725e+00 3.0405937984608777e+00 0 0 1
1017 1 1.6582934570570615e+01 8.0650441384302702e+00 5.6401760221057060e+00 0 0 1
119 1 1.9982852306091242e+01 6.9174131709733029e+00 5.0434040301308496e+00 0 0 0
752 1 2.3502205872519678e+01 8.4921740503646390e+00 2.3255111543457363e+00 0 0 1
547 1 2.4216403736899830e+00 1.1272317768276759e+01 6.6734139668150156e+00 0 0 0
2357 1 2.2153850087500224e+00 1.0904600539482933e+01 1.4145803971747495e+00 1 0 0
2779 1 6.4502669407399900e+00 1.3001430202031687e+01 4.0862976588093574e+00 1 0 1
2073 1 3.0402103319012230e+00 1.1461548680022513e+01 9.6423643859264523e+00 1 0 0
1273 1 1.3235173388153827e+01 9.5386073356759162e+00 4.0826208445775141e+00 0 0 0
2180 1 1.5432044179019181e+01 1.1023002091521588e+01 4.3761740846206267e+00 1 0 0
220 1 1.6442677456070729e+01 1.3165848658601417e+01 6.4353074122072815e+00 0 0 0
217 1 1.9534294911858833e+01 9.7060723078127715e+00 4.4641655760396608e+00 0 0 0
356 1 2.2409263222990727e+01 9.5514938894014172e+00 6.0563426838370908e+00 0 0 0
3481 1 2.0309319490593278e+00 1.4732958776585082e+01 4.1455111066206838e+00 1 1 0
368 1 4.7092123116989102e+00 1.2075222184816759e+01 1.5123939576017089e+00 0 0 1
2070 1 1.0831255098480309e+01 1.3093869463194684e+01 5.9172068990708251e+00 1 0 0
4055 1 8.9334543449349759e+00 1.4459498202223534e+01 5.0131767096724635e+00 1 0 1
3780 1 1.3914942233276989e+01 1.4505245508022451e+01 4.0761775252885855e+00 0 1 1
1210 1 1.8132406616968961e+01 1.4189960324251544e+01 3.9943055118687489e+00 0 0 0
2283 1 2.0347021679553105e+01 1.2440944538166283e+01 3.8720357636153748e+00 0 0 0
3133 1 2.3302666447947846e+01 1.4437884898649127e+01 5.3247263597953056e+00 0 0 0
1187 1 2.2827285297134935e+01 1.2838910396026240e+01 3.1796776867364889e+00 0 0 0
3591 1 1.2639073133943418e+01 2.4999318851673095e+01 1.6684775632105563e+01 1 0 0
481 1 6.2086060947636330e+00 1.7258663719135431e+01 5.7459936868735255e+00 0 0 0
584 1 1.1782238701216695e+01 1.6825944576074299e+01 7.6760180594096568e+00 0 0 0
2968 1 1.3096544903222044e+01 1.4520917267888573e+01 6.8532230823012243e+00 1 0 1
810 1 1.4811081327395140e+01 1.7349560580588399e+01 7.5055135852106272e+00 -1 0 1
2788 1 1.6127128739623345e+01 1.8296595022105972e+01 5.2563449148210566e+00 0 0 1
289 1 1.8519217920983287e+01 1.6766039762087612e+01 4.4229866404385882e+00 0 0 0
142 1 2.0399591183747070e+01 1.8150259681043284e+01 5.7329333039138621e+00 0 0 0
794 1 2.2668304543088464e+01 1.7124856855974272e+01 5.1998626555328515e+00 0 0 1
525 1 2.4306419477514861e+01 1.8268548115016287e+01 6.9544232713334129e+00 -1 0 0
3757 1 1.8844804244658757e+01 2.4143166619617872e+01 9.1103669105685778e+00 1 0 1
1712 1 3.2374756661227506e+00 1.8595507857176404e+01 5.5670495644771361e+00 1 0 1
1879 1 3.0775098116524826e+00 2.1396294770114778e+01 6.5821511997353195e+00 0 0 1
1479 1 5.7432082273859706e+00 2.1601359543947332e+01 6.8892039805218594e+00 0 0 0
709 1 1.0884893017939692e+01 2.1783706914369713e+01 2.0810276009628148e+00 0 0 1
3023 1 6.8505422831806575e+00 2.0752456088724177e+01 4.3945335606538940e+00 1 0 1
2262 1 9.2786836366073615e+00 1.9429630492470899e+01 5.4564731843812728e+00 1 0 0
1013 1 1.1036704416637317e+01 2.3759513783881776e+01 6.1120089922498888e+00 0 0 1
207 1 1.2720952751018116e+01 1.8679019419719069e+01 5.2127817950681719e+00 0 0 0
1597 1 1.7324839782332187e+01 2.0591132144869459e+01 5.8140448703936203e+00 0 1 0
1325 1 1.9565387611108083e+01 2.0574534833465645e+01 4.5701724250955547e+00 0 0 0
67 1 3.4619342325826001e+00 2.5000263353191915e+01 4.4473068752829761e+00 0 0 0
1106 1 8.2728909638691697e+00 2.1729415403014642e+01 2.2619856390715096e+00 0 0 0
305 1 1.0087237658927936e+01 2.4797304387490005e+01 3.3322593153232423e+00 0 0 0
927 1 1.4168973216348649e+01 2.3125569940794396e+01 6.3054807658407954e+00 0 0 1
3083 1 1.6277249676295149e+01 2.3000757284262466e+01 4.9862353373879946e+00 0 0 0
2801 1 2.0870119478387107e+01 2.1976685006127170e+01 6.4575438075803344e+00 0 -1 1
2764 1 2.3435707360257350e+01 2.2778643042100633e+01 6.3010457845781573e+00 0 0 1
2864 1 4.3769325773735517e+00 9.5914748626652579e-01 9.1759832985653418e+00 0 0 1
2933 1 6.5443748558145733e+00 2.4799125962097412e+00 7.4056514059614020e+00 1 0 1
2445 1 2.5394220704015318e+01 2.0781789317151567e+01 6.5253273502515592e+00 0 0 0
1223 1 2.4538464364595928e+01 1.8665220016601027e+00 2.5872548799606747e+00 0 1 0
616 1 1.5901180809628203e+01 2.8075384385019015e+00 8.5757272599846033e+00 0 0 0
3090 1 1.8126032473542342e+01 1.4959524219587983e+00 9.4228890948117883e+00 1 1 0
1529 1 1.6478691387301666e+01 2.4793430529370493e+01 1.0095920909616027e+01 0 0 0
3348 1 2.3977951073014495e+01 1.8495196427727121e+00 5.3085906831081946e+00 0 1 0
1090 1 1.6026732493821030e+00 5.3815535403592678e+00 8.3757265390846829e+00 0 1 0
507 1 3.4954145105206784e+00 7.6650919889046607e+00 6.5014914252991964e+00 0 0 0
1248 1 3.6305649672563387e+00 8.5756907256153490e+00 9.0779775028888476e+00 0 0 0
699 1 7.2960181592958753e+00 5.1964612789121833e+00 8.5072604564826673e+00 0 0 1
1184 1 9.9785918294214593e+00 6.1807552183647445e+00 8.8559670084321525e+00 0 1 0
504 1 1.3103322951409668e+01 5.1925070220527303e+00 7.4823460558407699e+00 0 1 0
3988 1 1.9092533224651515e+01 5.2844915421132583e+00 8.6748271633377101e+00 1 0 0
3602 1 4.5534584250287118e+00 2.2291592760185445e+01 7.2966134153457840e-01 0 0 0
2173 1 3.2808113955213125e+00 5.8397191402107951e-01 6.2336925039942850e+00 0 0 0
349 1 2.2975990110520915e+01 3.6640098521328164e+00 7.6002936251793685e+00 0 0 0
2314 1 2.5573258962185420e+01 1.5267000258509080e+01 1.4534335201860047e+01 0 0 0
98 1 1.1659634380436156e+01 1.1878130975448284e+01 6.8876003729802560e-01 0 0 0
2428 1 1.1289763764094589e+01 3.7532165667094830e-01 1.2784997070086497e+01 1 0 0
3383 1 7.7825707358414169e+00 8.8845980651040222e+00 6.6517725934653607e+00 1 0 0
1227 1 6.2208606913157727e+00 8.4150210157233403e+00 9.7899393880251786e+00 0 1 0
60 1 1.0294012795651923e+01 7.9787943244921307e+00 6.9751977366995863e+00 0 0 0
1228 1 1.2779349843199842e+01 9.2021496439367922e+00 6.8605577030385740e+00 0 1 0
2277 1 1.4560534606733430e+01 7.7544622793283189e+00 7.9344730791529425e+00 0 0 0
66 1 2.2309239158786827e+01 6.8009331443470895e+00 5.9508734390066165e+00 0 0 0
95 1 2.4932325238969728e+01 7.5158787097286970e+00 8.9079086492094497e+00 0 0 0
543 1 7.2151912567852063e+00 1.0884441647492716e+01 8.6985353473960796e+00 0 0 0
2349 1 1.0388683413495393e+01 7.3652479912807847e+00 1.1143889288166404e+01 1 0 0
999 1 9.6409450247218142e+00 1.3150137632167615e+01 8.5770737278816771e+00 0 0 1
908 1 1.2282612200619523e+01 1.1231406195204647e+01 8.9955041765542649e+00 0 0 1
97 1 1.6885425641761188e+01 1.0744619421047364e+01 7.4569504756605687e+00 0 0 0
2062 1 1.9455478671976888e+01 1.0296044765728530e+01 7.7577926636659882e+00 0 0 0
2492 1 2.0601118325241437e+01 1.1132729784572470e+01 1.0663252702651743e+01 0 0 0
493 1 2.4346088568153473e+01 1.0042786107417539e+01 7.6959209739756309e+00 0 0 0
2092 1 5.2038328178300759e+00 1.6128428351890680e+01 1.1243847376064686e+01 0 0 0
2359 1 1.5135140906358822e+00 1.5609643772070122e+01 8.1433112642006105e+00 1 0 0
2375 1 2.3918765487655360e+00 1.3717802389019925e+01 6.3635298487089784e+00 1 0 0
2435 1 5.1899357640852788e+00 1.4649153756996588e+01 5.9782687054084409e+00 0 0 0
37 1 1.1483672418069109e+01 1.4706071010117759e+01 1.1131171537561428e+01 0 0 0
3011 1 1.3681030364204000e+01 1.3603823659899932e+01 9.5161611157226211e+00 0 0 1
3831 1 1.9118824080416680e+01 1.4793604462467270e+01 6.9998926423624530e+00 0 1 0
924 1 2.0901159677389884e+01 1.2513748356380834e+01 7.0004315291462866e+00 0 0 1
848 1 2.3481675254196706e+01 1.4044879208772167e+01 8.3217121154368758e+00 0 0 1
1897 1 2.4303960193682492e+00 1.8350251254485897e+01 8.4276822041792574e+00 1 1 1
2109 1 8.9183983547052623e+00 1.6618133051078136e+01 6.5779037143904127e+00 1 0 0
1653 1 7.9733798451275897e+00 1.7453224366798050e+01 1.0608044698144719e+01 0 0 0
1274 1 1.0746351116658865e+01 1.7099852003233597e+01 1.0088842674118142e+01 0 0 0
684 1 1.6397223499065223e+01 1.5131153602809256e+01 8.7212242948407610e+00 0 0 0
1645 1 1.6017499971726771e+01 1.8919124131476007e+01 9.8411663047477020e+00 0 0 0
1525 1 1.9936984548759145e+01 1.6422014241084852e+01 8.9798006908309791e+00 0 1 0
2420 1 2.0902939907972836e+01 1.8803541265279126e+01 8.3785366430652868e+00 0 0 0
2191 1 2.3156675312996452e+01 1.8324504431419260e+01 9.4250125021193067e+00 1 0 0
3606 1 5.7154506939980356e+00 2.0248636021657010e+01 1.0507261856194749e+01 1 0 0
46 1 6.9179259129569912e+00 1.9217172209213913e+01 8.0888058910203355e+00 0 0 0
3886 1 9.6792185339425760e+00 2.0116092174603665e+01 8.5162532962688697e+00 0 0 1
3135 1 1.2034226763439250e+01 2.0085311203373148e+01 7.7789951971546261e+00 0 0 0
970 1 1.7053360405647027e+01 2.0968630786289935e+01 8.4895227201289902e+00 0 0 1
2743 1 1.9628200815930509e+01 2.1383936857920457e+01 8.9153928393090034e+00 0 0 1
2279 1 4.0686252877535214e+00 2.2058540870058781e+01 1.0218047807666720e+01 1 0 0
3167 1 1.8323725965759363e+00 2.4114406611212789e+01 6.7910751534942095e+00 1 0 0
196 1 5.6122492120120873e+00 2.4200968584405089e+01 1.0549046690598084e+01 0 0 0
1372 1 7.1207887534071066e+00 2.3313104977165594e+01 8.1382910498607632e+00 0 0 0
2010 1 9.6372455536761006e+00 2.2767802235135015e+01 8.1911366978495028e+00 0 0 1
1163 1 1.1694215886726949e+01 2.3712623470916451e+01 9.9234947438926238e+00 0 0 0
2123 1 1.3274532803424231e+01 2.1351887808529483e+01 9.9729617124715091e+00 0 1 0
3437 1 1.5232258381100731e+01 2.2746069504283383e+01 8.7142178368389516e+00 1 0 0
204 1 1.6930371111024094e+01 1.8640670382565972e+01 1.0614058916482274e+00 0 0 0
43 1 1.8350110433054116e+01 2.7452428996166183e+00 7.0866387726680535e-01 0 0 0
569 1 4.1776515084443329e+00 3.0597900907686908e+00 1.1380479987807076e+01 0 0 0
211 1 8.4952362255058045e+00 2.9263500220246175e+00 1.1617220600172271e+01 0 0 0
1192 1 4.7513777067870926e+00 7.2229688443442033e+00 8.0847778785506619e-01 0 0 0
2131 1 1.0131780771763079e+01 2.9304780460067188e+00 9.0694498924275937e+00 0 0 0
3195 1 1.4209433623941507e+01 2.7960801830670419e+00 1.1820490504408495e+01 1 1 0
1789 1 2.5168350123276674e+01 2.4339777744971247e+01 9.5851496135339982e+00 0 0 1
2130 1 2.0580464480469544e+01 1.8430608937768869e+00 1.0745375791963898e+01 0 0 0
122 1 2.4227049179062295e+01 2.5864478786409926e+00 9.6106358486662824e+00 0 0 0
181 1 1.2520183917552443e+00 3.4436369854493099e+00 1.1768033273214675e+01 0 0 0
13 1 1.8823974896612641e+00 7.1949174693125073e+00 1.0476216480239188e+01 0 0 0
896 1 6.4592431725734860e+00 4.3749516381020692e+00 1.1044582848174111e+01 0 0 1
1398 1 6.1168945601969993e+00 6.8458729774595666e+00 1.2237488850539807e+01 0 0 0
1843 1 9.8879985346972408e+00 4.6195871056272990e+00 1.3298771626362313e+01 0 1 0
2303 1 1.2423739684448238e+01 3.9492415995378476e+00 9.9753078248746281e+00 0 0 0
6 1 1.6617250973229595e+01 5.1259334296640757e+00 9.9598168614295517e+00 0 0 0
3016 1 2.0742678097587227e+01 4.5337402369927462e+00 1.1621270696325903e+01 0 0 1
2269 1 2.2258520667766653e+01 6.0039332746633765e+00 8.5569198502945714e+00 0 0 0
2159 1 1.0090358920503455e+01 4.1010983100563370e-01 7.9980956140022021e+00 1 0 0
1565 1 8.5483783052182183e+00 2.4512086469355413e+01 1.7051088578376934e+01 0 0 0
431 1 8.6255776785579457e+00 7.3204739407980490e+00 1.3289526760419438e+01 0 0 0
1913 1 1.2378909544087620e+01 5.9717316070668058e+00 1.1980676944542122e+01 0 1 0
3559 1 1.3990197810857959e+01 8.5870515483395042e+00 1.1718760363407911e+01 0 1 0
4 1 2.0228649530494241e+01 7.7121864214684051e+00 9.8102476533985676e+00 0 0 0
1318 1 2.1805865557428163e+01 8.6251870138648705e+00 1.1728292986158948e+01 0 1 0
2483 1 2.4393855051192567e+01 7.5160985624521048e+00 1.1438134723859051e+01 0 0 0
494 1 3.3017940884838497e+00 1.4385684694126155e+01 1.0234781982729588e+01 0 0 0
2386 1 7.4193993881764779e+00 1.1052182181149098e+01 1.1759235984068603e+01 1 0 0
272 1 1.1438462576366106e+01 9.7798711319263170e+00 1.1274386717537766e+01 0 1 0
451 1 1.1157557755923508e+01 1.1758097002833642e+01 1.3499275797823694e+01 0 0 0
2446 1 1.5954673104559305e+01 9.6157229597137981e+00 9.8934120382976882e+00 0 0 0
2248 1 1.7894804210706894e+01 1.1056635631041978e+01 1.1637026702738686e+01 0 0 0
2691 1 2.4673310469136968e+01 1.2097266309897472e+01 1.1861807653726743e+01 0 0 0
348 1 2.3406238986630882e+01 1.1751773738227813e+01 9.5046243353858824e+00 0 0 0
1855 1 1.0053503510327882e+01 9.2774696248969555e+00 4.1593225822480862e-01 0 0 1
2197 1 7.5521514891499741e+00 1.4960089442517678e+01 8.9156276505422678e+00 1 0 0
417 1 5.4706279613807336e+00 1.3036804551632425e+01 8.3216205533514387e+00 0 0 0
1926 1 7.3655103784340428e+00 1.4167608058307755e+01 1.2004937798125011e+01 0 0 1
1607 1 9.8172833213450783e+00 1.4297106990197914e+01 1.3619438311917914e+01 0 1 0
790 1 1.3972364432788194e+01 1.2985207737295465e+01 1.2502767002419400e+01 0 0 1
3358 1 1.4935671696456954e+01 1.5678475928056153e+01 1.3695223131452771e+01 0 1 0
2552 1 1.6448072339220996e+01 1.3371014486000680e+01 1.0906083739035523e+01 1 0 0
467 1 2.0824282673750027e+01 1.3700494191961416e+01 1.1887398299162781e+01 0 0 0
3395 1 2.2114543609974060e+01 1.5233312425532816e+01 9.9623751639055644e+00 0 1 0
1504 1 3.8876875615697903e+00 1.8361519273329076e+01 1.0698104063052639e+01 0 0 0
2817 1 2.6540912661648894e+00 1.9186259762582473e+01 1.2716475750641985e+01 1 0 1
2311 1 4.3016236182977048e+00 1.5570212925504801e+01 1.3885446204286968e+01 1 0 0
402 1 7.4021533478992714e+00 1.6744821236101373e+01 1.3579743083781564e+01 0 0 0
1449 1 1.0479748670731334e+01 1.8873564321637886e+01 1.4061689940601442e+01 0 1 0
821 1 1.1387884106183682e+01 1.6376931988024211e+01 1.5351004948933189e+01 0 0 0
2305 1 1.2862694852167202e+01 1.7356191606935770e+01 1.2399915367318124e+01 0 0 0
2558 1 1.8013806734341454e+01 1.7387922916185016e+01 1.0655163167867856e+01 0 0 0
436 1 2.1181554111020326e+01 1.7714767402319318e+01 1.4560697664544474e+01 0 0 0
3517 1 2.4255437605974926e+01 1.6858050264968011e+01 1.1439132112651750e+01 0 0 0
2421 1 2.4123692223144626e+01 1.7564705990253351e+01 1.3934809539859513e+01 0 0 0
297 1 7.8227366804152254e+00 2.0552453665096596e+01 1.2392869706637487e+01 0 0 0
2082 1 7.5930263296742435e+00 1.9132296171061778e+01 1.4630567406511062e+01 0 0 0
1542 1 1.0473555456617989e+01 2.0037887446185010e+01 1.1316819934817831e+01 0 1 0
198 1 1.4653925802458010e+01 1.9384154834915851e+01 1.2012071333261410e+01 0 0 0
391 1 1.3073576325879811e+01 2.1632254196877966e+01 1.3550142509435059e+01 0 0 0
2001 1 1.9201723756695142e+01 1.8793303868546239e+01 1.2952515911319582e+01 0 0 1
361 1 2.0675787327519330e+01 2.0886842251079656e+01 1.1519359553393912e+01 0 0 0
233 1 1.7315544052575871e+00 9.0487072555636026e+00 3.3180564896543161e+00 0 1 0
3280 1 2.3617416133886977e+01 2.0252942291717215e+01 1.1388865694494800e+01 0 0 0
2663 1 3.8337142995652127e+00 2.2076703979063495e+01 1.3109832960232177e+01 1 0 1
1113 1 7.8584996035720671e+00 2.3321288225682885e+01 1.2403781301266552e+01 0 0 0
1885 1 7.7838911757895080e-01 1.8145475117969433e+01 2.2950256937952394e+00 1 0 1
531 1 1.0788029017302128e+01 2.3045504723620830e+01 1.2287310882443727e+01 0 0 0
230 1 1.4121760016828887e+01 9.5764317768802325e+00 1.5900988477073863e+01 0 0 0
3298 1 1.8067761423205951e+01 2.3956578281173883e+01 1.4271502246776610e+01 1 0 0
3540 1 1.9873891209135721e+01 2.3643411473570669e+01 1.2138458376255777e+01 1 0 0
3166 1 1.5890307192280815e+00 1.1519647294506514e+00 1.5863298069641750e+01 1 1 0
3840 1 3.9351641451845873e+00 1.5245235242716770e+00 1.3758354094583927e+01 1 1 1
1402 1 1.4885178949772957e+01 3.1299071424983942e+00 1.5912087716727706e+01 0 1 0
3158 1 4.9080252715283761e+00 3.4329049294268716e+00 1.5427682084683436e+01 1 2 0
773 1 1.2031348777136085e+01 2.8190798936165331e+00 1.3745048690161619e+01 0 0 0
2674 1 5.3025389030186467e+00 1.9200106341604595e+01 1.6917899038928589e+01 1 0 0
3715 1 1.6011284122145241e+01 6.0741521090143868e-01 1.5444358897226582e+01 0 1 0
906 1 2.0724625975352733e+01 1.5954264513105043e+00 1.6452759548901192e+01 0 0 0
3331 1 1.7842095177388231e+01 2.0387449418268080e+00 1.3985142146147865e+01 0 0 0
759 1 1.5268355916440552e+00 2.2716640954088337e+01 9.6521521439130176e+00 0 0 1
1655 1 2.2874757200939037e+01 5.8596121820884770e+00 1.6122269296145262e+01 0 1 0
1087 1 2.1943314278409584e+01 5.9107395275670571e-01 1.4567308966494021e+01 -1 1 0
2 1 1.3676048771400497e+00 3.6226820874620702e+00 1.4467637633385273e+01 0 0 0
2281 1 3.2496107510339192e+00 5.8171237307823578e+00 1.5143405691606043e+01 1 0 0
3425 1 1.3897590927996779e+01 5.4695297464091901e+00 1.4626274790817211e+01 1 1 0
3679 1 1.6856623367998182e+01 4.0463071602688236e+00 1.2151691660185538e+01 1 0 0
3692 1 1.6398013067801568e+01 6.0975607711498112e+00 1.3814531773681484e+01 1 1 1
2091 1 2.0452417184838019e+01 5.6315782960501855e+00 1.4312146689419084e+01 0 0 1
561 1 2.4894352635592661e+01 5.5963172574434763e+00 1.3359944633408146e+01 0 0 0
337 1 2.3536816758666451e+01 3.5939016811142785e+00 1.2042263779598866e+01 -1 0 0
2106 1 1.5688068605389647e+00 1.2324076603030262e+01 1.5213684513533734e+01 1 0 0
1503 1 3.4404294694116002e+00 7.4177366096766075e+00 1.2809453293621271e+01 0 1 0
3275 1 4.8229310669415577e+00 9.9809936740598140e+00 1.2514871337338706e+01 1 1 0
2253 1 6.4060431986515520e-01 2.3462185334457835e+01 1.4795526891271580e+01 1 0 0
1251 1 7.5853272382195236e+00 1.0259101624009492e+01 1.5919247871947698e+01 0 0 0
2835 1 8.9431704122849247e+00 9.9843412388414698e+00 1.3597217136920250e+01 1 0 0
1464 1 1.2679402958953867e+01 7.2361779934783037e+00 1.6178811318659641e+01 0 0 0
1586 1 1.5731611515639498e+01 9.4087090098287813e+00 1.3755405579700088e+01 0 0 0
2256 1 1.7605992058446340e+01 7.6066902291338350e+00 1.1240184968985682e+01 0 0 0
3193 1 1.9149017843687083e+01 7.7995714069761473e+00 1.3705121406509816e+01 0 1 0
56 1 1.9461358925729527e+01 1.0140043056800907e+01 1.5071830460122943e+01 0 0 0
904 1 5.5045465403120564e-01 2.7008414473631142e+00 6.0349261047661695e+00 0 0 1
3368 1 1.8327773806977421e+00 2.2652298313434375e+01 1.6895166946345196e+01 0 0 0
1148 1 2.3799103003396906e+00 1.0983443106743799e+01 1.2379361160771591e+01 1 1 0
1348 1 6.6596541138785623e+00 1.0186674800357501e+01 9.7890254278301336e-01 0 0 0
2728 1 1.2419925626056795e+01 1.1813105401664091e+01 1.5869571783261501e+01 1 0 0
1594 1 1.7732868220648136e+01 1.1952601339674287e+01 1.4390782084998373e+01 0 0 0
817 1 2.1656226530992161e+01 1.0359110217623179e+01 1.3837801191225637e+01 0 0 0
3342 1 2.3008265596607796e+01 1.2620928664260431e+01 1.3525841778482871e+01 0 1 0
1642 1 2.3112745844296331e+01 9.6880768358533587e+00 1.5957280749250566e+01 0 1 0
710 1 9.8858735988047162e+00 7.0330844302261326e+00 1.6019841772574232e+01 0 1 0
1241 1 4.6142464191455650e+00 1.3791365308610434e+01 1.5720628095445067e+01 0 1 0
2452 1 2.9574126178073641e+00 9.9678326762505201e+00 1.5705533218213018e+01 1 0 0
364 1 7.5201987924235851e+00 1.4309260247073894e+01 1.5734481074222645e+01 0 0 0
743 1 1.9243650388248678e+01 3.7306472930199304e+00 1.5841942707055201e+01 0 0 1
1569 1 1.3786449299916484e+01 1.4221798869719947e+01 1.5755872050603930e+01 0 0 0
565 1 1.7124805957274756e+01 1.5325398338618054e+01 1.2362310602724145e+01 0 0 0
167 1 1.6072956535155598e+01 1.2773995717498448e+01 1.6454756793656209e+01 0 0 0
445 1 1.8909977139561281e+01 1.4173163341237066e+01 1.3850315956288924e+01 0 0 0
1206 1 2.3864822267952718e+01 1.3787021847682079e+01 1.5917448642423038e+01 0 0 0
3235 1 3.4278885498354215e+00 1.7809946187533821e+01 1.5096840880904079e+01 1 0 0
1725 1 2.3931027272423869e+01 3.2577111215717856e+00 1.6325396743223472e+01 0 1 0
1005 1 4.3934699615524115e+00 2.1788157274889933e+01 1.5940931257822143e+01 0 0 1
2810 1 6.2598483454478195e+00 5.4269643959567251e+00 1.6958639129616902e+01 1 0 0
288 1 1.3211931891131245e+01 2.5662059822281524e+01 7.6528024175452645e+00 0 0 0
227 1 1.5816815349927614e+01 1.7515430458183349e+01 1.5299779263215349e+01 0 0 0
1672 1 1.9985034085710222e+01 1.5886153031589508e+01 1.5577892955296925e+01 0 1 0
2979 1 8.8276938904188162e-01 2.2291739772807912e+01 1.2306918373721288e+01 1 0 1
338 1 8.0745898890922641e-01 8.5777008849420238e+00 1.4387002435270256e+01 0 0 0
1706 1 1.1337871197123572e+00 1.0561992127502924e+00 1.0255771638273016e+01 1 1 1
3153 1 1.3645960769810104e+01 2.4510487524682848e+01 1.3758784454433323e+01 1 0 0
362 1 1.3399040098666058e+01 1.8347139805580756e+01 1.6669548458590072e+01 0 0 0
1309 1 3.4254233139001722e-01 5.3703620602730355e+00 2.9717950663153836e+00 0 1 0
4008 1 2.1693517861110781e+01 4.9761004995262059e-01 7.6663434026264303e+00 0 1 1
2409 1 1.7738524504636477e+01 1.6715563000034205e+01 1.6764099285250808e+01 0 0 0
1014 1 8.6670143356903360e+00 6.8089300977105225e+00 5.6772020294250669e-01 0 1 1
4004 1 1.2101259023448479e+01 2.9288470760449314e+00 1.7078682716833185e+01 0 1 1
446 1 5.6290860593562444e+00 2.3951988673808337e+01 1.7083299619327068e+01 0 0 0
1136 1 2.4938877899511731e+01 1.3631468273970009e+01 2.8187006537216064e-01 0 1 0
4081 1 1.6960525506508608e+00 3.7244571462640543e+00 1.9078195544449322e+01 1 1 1
2209 1 5.9719168428774188e+00 3.6025279482207124e+00 1.9221015563984093e+01 1 0 0
3507 1 8.3216014617918042e+00 1.5937395012946154e+00 1.9338067756817605e+01 1 1 0
2400 1 1.7137901940924440e+01 9.6712530743292757e-01 3.2713331841137347e+01 0 0 0