
# Create simulation box and atoms
lattice		    sc 1
Lattice spacing in x,y,z = 1 1 1
region 		    all block 0 51.42 0 51.42 0 51.42 units box
create_box 	    1 all
Created orthogonal box = (0 0 0) to (51.42 51.42 51.42)
  2 by 2 by 3 MPI processor grid

create_atoms	1 random 4457 ${SEED} all
create_atoms	1 random 4457 12581 all
Created 4457 atoms
  create_atoms CPU = 0.00155187 secs

mass		    1 18.15

# Define potential

pair_style 	    sw
pair_coeff	    * * mW_real.sw mW
Reading potential file mW_real.sw with DATE: 2019-02-27

# Run minimization

minimize 	    1.0e-8 1.0e-8 10000 1000
WARNING: Using 'neigh_modify every 1 delay 0 check yes' setting during minimization (../min.cpp:168)
Neighbor list info ...
  update every 1 steps, delay 0 steps, check yes
  max neighbors/atom: 2000, page size: 100000
  master list distance cutoff = 6.3065
  ghost atom cutoff = 6.3065
  binsize = 3.15325, bins = 17 17 17
  1 neighbor lists, perpetual/occasional/extra = 1 0 0
  (1) pair sw, perpetual
      attributes: full, newton on
      pair build: full/bin/atomonly
      stencil: full/bin/3d
      bin: standard
Per MPI rank memory allocation (min/avg/max) = 4.225 | 4.227 | 4.228 Mbytes
Step Temp E_pair E_mol TotEng Press 
       0            0    5988997.3            0    5988997.3    4160271.5 
     708            0     -50248.9            0     -50248.9   -1042.6565 
Loop time of 1.94009 on 12 procs for 708 steps with 4457 atoms

99.2% CPU use with 12 MPI tasks x no OpenMP threads

Minimization stats:
  Stopping criterion = max force evaluations
  Energy initial, next-to-last, final = 
          5988997.2833     -50248.7790446     -50248.9001305
  Force two-norm initial, final = 1.18252e+08 2.27176
  Force max component initial, final = 5.85394e+07 0.453324
  Final line search alpha, max atom move = 0.0538499 0.0244114
  Iterations, force evaluations = 708 1000

MPI task timing breakdown:
Section |  min time  |  avg time  |  max time  |%varavg| %total
---------------------------------------------------------------
Pair    | 1.5165     | 1.6596     | 1.7726     |   4.6 | 85.54
Neigh   | 0.025411   | 0.026374   | 0.027595   |   0.3 |  1.36
Comm    | 0.10779    | 0.22387    | 0.3668     |  12.5 | 11.54
Output  | 0          | 0          | 0          |   0.0 |  0.00
Modify  | 0          | 0          | 0          |   0.0 |  0.00
Other   |            | 0.03022    |            |       |  1.56

Nlocal:    371.417 ave 377 max 360 min
Histogram: 1 0 1 1 1 1 1 0 1 5
Nghost:    1062.75 ave 1077 max 1047 min
Histogram: 2 1 1 1 0 1 0 2 2 2
Neighs:    0 ave 0 max 0 min
Histogram: 12 0 0 0 0 0 0 0 0 0
FullNghs:  12016.8 ave 12385 max 11404 min
Histogram: 1 0 1 0 2 1 1 2 1 3

Total # of neighbors = 144202
Ave neighs/atom = 32.354
Neighbor list builds = 40
Dangerous builds = 0

# Create Cavity with Hard sphere "indent" potential

region		    cavity sphere 25.71 25.71 25.71 13.8 side in
delete_atoms	    region cavity
Deleted 367 atoms, new total = 4090
fix 		    5 all indent 10.0 sphere 25.71 25.71 25.71 13.8

# Equilibration of molecular water

# Add velocity/set timestep

velocity	    all create ${TEMP} ${SEED} rot yes dist gaussian
velocity	    all create 215 ${SEED} rot yes dist gaussian
velocity	    all create 215 12581 rot yes dist gaussian
timestep	    5.0

# Define output

compute			1 all msd
thermo	    	50
thermo_style	custom step temp press vol etotal ke pe c_1[4]

# Neighbor lists

neigh_modify    delay 0 every 1 check yes

# Set fixes

fix             1 all momentum 10 linear 1 1 1 rescale
fix             2 all nve
fix             3 all temp/csvr ${TEMP} ${TEMP} 500.0 ${SEED}
fix             3 all temp/csvr 215 ${TEMP} 500.0 ${SEED}
fix             3 all temp/csvr 215 215 500.0 ${SEED}
fix             3 all temp/csvr 215 215 500.0 12581
fix             4 all press/berendsen iso ${PRES} ${PRES} 1000.0 modulus 20000
fix             4 all press/berendsen iso 1.0 ${PRES} 1000.0 modulus 20000
fix             4 all press/berendsen iso 1.0 1.0 1000.0 modulus 20000

# Run 1 ns equilibration

dump		    1 all atom 2000 ${DIR}/eq.${NAME}-${TEMP}.dump
dump		    1 all atom 2000 run_2/eq.${NAME}-${TEMP}.dump
dump		    1 all atom 2000 run_2/eq.hardcavity_freeze_nvt_2-${TEMP}.dump
dump		    1 all atom 2000 run_2/eq.hardcavity_freeze_nvt_2-215.dump

reset_timestep  0

run	            200000
Per MPI rank memory allocation (min/avg/max) = 4.49 | 4.491 | 4.492 Mbytes
Step Temp Press Volume TotEng KinEng PotEng c_1[4] 
       0          215   -217.96792    135955.32    -42936.35    2620.5344   -45556.884 6.9049515e-34 
      50    137.70852   -256.91484    135951.06   -42364.872    1678.4647   -44043.337   0.22948994 
     100    152.59063    -128.3525    135773.21   -41912.206    1859.8558   -43772.062   0.43099101 
     150    169.07326   -101.40591    135590.45   -41586.851    2060.7549   -43647.606    0.6095909 
     200    179.13613   -27.691256    135464.76   -41282.229    2183.4065   -43465.636   0.78987905 
     250    186.53532   -249.84096    135181.32   -41112.516    2273.5918   -43386.108   0.98871348 
     300    190.88051   -282.47122    134924.41    -40975.38    2326.5533   -43301.934    1.1961008 
     350    195.52644   -217.46107    134626.54    -40830.65    2383.1803    -43213.83    1.4044587 
     400    201.60905   -178.11582    134405.11   -40733.383    2457.3185   -43190.702    1.5981164 
     450    203.90866   -199.29749    134154.85    -40669.35    2485.3473   -43154.697    1.7785165 
     500    207.84495   -173.14379    134016.58   -40573.541    2533.3249   -43106.866    2.0092141 
     550    210.75542   -237.68913    133796.54   -40534.057    2568.7993   -43102.856     2.167808 
     600    206.01392    11.617408    133526.71     -40510.9    2511.0073   -43021.907     2.287209 
     650    210.68148    3.4156811    133504.65   -40514.734     2567.898   -43082.632     2.503475 
     700    209.11795   -117.16087     133300.1   -40485.927    2548.8409   -43034.767    2.6808155 
     750    213.40309   -25.857774    133253.73   -40486.084    2601.0704   -43087.155    2.8021609 
     800    215.56381    34.898683    133263.73   -40487.615    2627.4064   -43115.022    2.9280001 
     850    211.76907   -95.888483     133204.1   -40475.453    2581.1541   -43056.607    3.1641011 
     900     212.3392   -189.32408    132945.81   -40495.693    2588.1032   -43083.796    3.3996501 
     950    212.41229  -0.56164286    132802.79   -40515.951     2588.994   -43104.945    3.6475471 
    1000    217.48651   -162.13124    132767.35   -40455.589    2650.8414    -43106.43     3.887028 
    1050    216.90786   0.40323246    132561.49   -40467.658    2643.7884   -43111.446    4.0866266 
    1100    217.75263   -44.361721    132584.91   -40469.606     2654.085   -43123.691    4.2296729 
    1150    217.29659    86.475958    132490.74   -40467.985    2648.5265   -43116.511    4.3911966 
    1200    215.19337    158.13516    132568.65   -40491.595    2622.8914   -43114.487    4.5234976 
    1250    216.45843   -3.4721783     132558.5   -40492.332    2638.3106   -43130.643    4.7631861 
    1300    218.08585    -272.8975    132448.64   -40458.959    2658.1464   -43117.105    4.9759686 
    1350    220.32211    51.555115    132225.68   -40470.028    2685.4031   -43155.431    5.1593921 
    1400    214.78445     47.65926    132164.58   -40451.418    2617.9072   -43069.325     5.326372 
    1450    215.08061   -12.629681    132114.66    -40424.47    2621.5169   -43045.987     5.483276 
    1500    216.75939   -19.359509    131987.52   -40457.843    2641.9789   -43099.821    5.6307511 
    1550    211.29975    94.260109    132114.27    -40515.92    2575.4338   -43091.354     5.767196 
    1600    216.27058   -12.541976    132215.72   -40510.391    2636.0209   -43146.412    5.9349514 
    1650    213.40739     -23.3456     132039.1   -40530.009    2601.1229   -43131.132    6.1023835 
    1700    219.69108    95.829615    132117.42    -40449.54    2677.7118   -43127.252    6.3166154 
    1750    218.72822   -79.437748    132191.89   -40448.727    2665.9759   -43114.703    6.4439153 
    1800     218.7257    78.417916    132046.89   -40435.436    2665.9453   -43101.381    6.6192043 
    1850    219.86948    24.854652    132136.25   -40494.997    2679.8863   -43174.884    6.8444009 
    1900     215.6114    -18.36885    132201.87   -40546.176    2627.9865   -43174.162    7.0009373 
    1950    212.71076   -22.645452    132135.23   -40569.081     2592.632   -43161.713    7.2079387 
    2000    210.86612   -2.4148399    132121.55   -40588.794    2570.1485   -43158.943    7.4002607 
    2050    212.36164    94.370443    132412.65   -40559.127    2588.3767   -43147.503    7.5823727 
    2100    214.14701   -176.75678    132269.44   -40585.099    2610.1377   -43195.237    7.7487008 
    2150    213.04265  -0.16449455    132074.29    -40589.86    2596.6772   -43186.537    7.9113632 
    2200    211.18617   0.85879478    131915.88   -40597.594    2574.0494   -43171.643     8.101716 
    2250     215.0925   -55.918584    131889.01     -40606.9    2621.6619   -43228.562    8.1988198 
    2300    208.80697 -0.018784732    131889.82   -40637.718    2545.0505   -43182.769     8.221767 
    2350    212.56494    24.216573     131998.9   -40691.587    2590.8546   -43282.442    8.3107791 
    2400    215.93293    92.631099    132038.05   -40635.599    2631.9055   -43267.505    8.5328052 
    2450    216.63246       189.83     132026.7   -40597.313    2640.4318   -43237.745    8.7271912 
    2500    212.88352   -109.12879    131935.19   -40629.445    2594.7376   -43224.182    8.9156944 
    2550    214.57252   -100.82529    131833.52   -40615.016    2615.3241    -43230.34    9.0933196 
    2600    216.37844    208.24007     131887.1   -40582.169    2637.3355   -43219.504    9.2461985 
    2650    211.32404    61.433797    131983.28   -40631.475    2575.7299   -43207.205    9.4723748 
    2700    218.00255   -47.496194    132089.98   -40599.328    2657.1311    -43256.46    9.6863653 
    2750    216.88852   -109.92871    132108.37   -40639.493    2643.5528   -43283.045     9.889109 
    2800    213.74139   -7.8061927    132000.39   -40644.783    2605.1938   -43249.977     10.07196 
    2850     210.9758   -17.407012    132093.73   -40632.708    2571.4854   -43204.193    10.245844 
    2900    211.33093    3.1122168    132167.26   -40609.583    2575.8138   -43185.397    10.347548 
    2950    215.75966     88.97345    132132.67   -40600.855    2629.7936   -43230.649    10.379034 
    3000    216.94147   -153.04756    132196.95   -40523.874    2644.1982   -43168.072    10.519851 
    3050    220.20769   -173.89776    132177.58   -40510.667    2684.0086   -43194.675    10.739861 
    3100    217.72779   -22.101863     132006.6   -40488.149    2653.7822   -43141.931    10.912485 
    3150    218.73712    114.70875    132008.36   -40508.574    2666.0844   -43174.658    11.088186 
    3200    215.53547    12.347848    132020.52   -40575.998    2627.0611   -43203.059    11.217555 
    3250    212.15333     42.22987    131922.97   -40551.818    2585.8377   -43137.655     11.49351 
    3300    214.65295   -33.944068    131924.93   -40578.457    2616.3044   -43194.761    11.599779 
    3350    215.56286    18.096946    131941.85   -40539.183    2627.3949   -43166.578    11.735997 
    3400    213.00106   -12.902087    131997.66   -40555.501    2596.1703   -43151.671     11.90601 
    3450    210.49357    141.11914    132109.86   -40544.135    2565.6077   -43109.742    12.119872 
    3500    215.99925   -194.19426    132035.59   -40574.148    2632.7138   -43206.862    12.240832 
    3550    217.20001   -113.01904    131914.47   -40561.652    2647.3493   -43209.001    12.431233 
    3600    213.70946   -92.365056     131844.8   -40545.387    2604.8046   -43150.192    12.543431 
    3650    215.82091    13.159099     131654.6   -40513.915    2630.5402   -43144.455    12.648213 
    3700     215.9426   -50.433424    131514.28   -40562.384    2632.0234   -43194.407    12.808282 
    3750    212.80444   -61.716637    131469.22   -40545.074    2593.7738   -43138.848    12.960016 
    3800    212.19614    127.79566    131554.37   -40566.503    2586.3595   -43152.862    13.181791 
    3850    211.95518    10.001316    131642.13   -40587.808    2583.4226    -43171.23    13.391866 
    3900     213.5944   -66.443391    131474.68   -40632.165    2603.4023   -43235.567     13.72724 
    3950    210.99817   -70.345895    131298.73   -40700.273    2571.7581   -43272.031    13.909974 
    4000    211.22795    37.954999     131390.8   -40685.495    2574.5587   -43260.054    14.021106 
    4050    212.55657    65.177094    131267.82   -40653.571    2590.7526   -43244.324    14.101347 
    4100     210.1175     25.15418    131483.26   -40657.095    2561.0239   -43218.119    14.288856 
    4150    214.37479   -40.181787    131526.14     -40623.7    2612.9141   -43236.614    14.573088 
    4200    214.68898   -35.649677    131572.82   -40613.055    2616.7436   -43229.799    14.712113 
    4250    213.76664   -91.075748    131538.19   -40558.571    2605.5016   -43164.072    14.903406 
    4300    217.37783   -111.07575    131335.01    -40561.65    2649.5168   -43211.167    15.036499 
    4350    214.30824   -42.963439    131333.49   -40538.934    2612.1029   -43151.037    15.198398 
    4400    216.08646    82.714119    131150.26   -40554.474    2633.7768   -43188.251    15.244333 
    4450    216.58461    90.336033    131190.67   -40548.502    2639.8485   -43188.351    15.343172 
    4500    217.78153    -24.16638    131316.42   -40539.209    2654.4372   -43193.646    15.543193 
    4550    215.79556     74.73399     131373.1   -40524.358    2630.2312    -43154.59    15.704482 
    4600    213.78597    96.305801    131382.07    -40543.16    2605.7371   -43148.897    15.919099 
    4650    216.44589    3.6719991    131332.95   -40535.975    2638.1577   -43174.132    16.106299 
    4700    215.21342   -77.892304    131292.64   -40532.017    2623.1357   -43155.153    16.189806 
    4750    218.53406    57.637191    131167.92   -40514.898    2663.6094   -43178.508    16.214854 
    4800    214.60821   -38.806555    131116.99   -40526.241    2615.7591       -43142    16.316957 
    4850    214.94234    100.08871    131159.61   -40531.755    2619.8317   -43151.587     16.43972 
    4900    215.76842    141.34539    131313.96   -40542.324    2629.9003   -43172.224    16.484554 
    4950      211.244    -32.34207    131425.78    -40562.73    2574.7543   -43137.484    16.628073 
    5000    216.91004   -91.459676    131343.97   -40585.106    2643.8151   -43228.921    16.809658 
    5050    212.86302   -23.220697    131233.21    -40606.23    2594.4878   -43200.718    17.005308 
    5100    213.66292   -20.197852    131008.93   -40606.069    2604.2373   -43210.306    17.152378 
    5150    210.91128    80.423654    131072.37    -40634.09    2570.6989   -43204.789    17.254534 
    5200    214.32709    31.070649    131253.51   -40624.513    2612.3326   -43236.846    17.358734 
    5250    214.86993   -3.6016013    131297.77   -40617.829    2618.9491   -43236.778    17.612623 
    5300    215.24654   -32.354095    131455.48   -40569.862    2623.5394   -43193.401    17.847394 
    5350    213.16607    73.254442    131596.82   -40609.195    2598.1815   -43207.377    17.918368 
    5400     215.6617  -0.84194748    131644.55   -40610.089    2628.5996   -43238.689     18.15959 
    5450    212.50078    62.855339    131553.96   -40626.566    2590.0727   -43216.638    18.304382 
    5500    216.96722     58.09415     131632.9   -40578.132    2644.5119   -43222.644    18.537111 
    5550    216.25663   -10.951153    131620.65   -40562.519    2635.8509    -43198.37    18.687877 
    5600    214.15967   -110.28589    131550.19   -40573.244     2610.292   -43183.536    18.827733 
    5650    216.86829    3.9403874    131474.98   -40549.803    2643.3061   -43193.109    19.105198 
    5700    213.39092   -40.949835    131464.04   -40570.484    2600.9222   -43171.406    19.274015 
    5750    214.12727     23.22344    131339.48    -40586.82    2609.8971   -43196.717    19.367037 
    5800    210.67363   -38.415793    131508.88   -40590.218    2567.8023   -43158.021    19.491987 
    5850     216.9427    147.63706    131456.11    -40597.77    2644.2132   -43241.983    19.687854 
    5900    211.60175    51.898725    131714.48   -40595.749    2579.1148   -43174.864    19.973766 
    5950    219.24804   -82.304711    131742.15    -40512.37    2672.3118   -43184.682    20.099234 
    6000     215.9955   -82.277038    131676.81   -40515.969    2632.6681   -43148.637    20.304365 
    6050    218.82851      69.4407    131672.17   -40524.133    2667.1983   -43191.332    20.459524 
    6100    218.64553    78.582542    131850.22   -40497.586    2664.9681   -43162.554    20.553075 
    6150    217.41014    -79.19686    131836.24   -40505.518    2649.9106   -43155.429    20.701281 
    6200    218.82722   -33.310216     131619.6   -40530.424    2667.1826   -43197.607    20.939194 
    6250     213.8797   -224.63118    131681.84   -40529.607    2606.8796   -43136.487    21.075153 
    6300    220.70564    132.59212    131591.84   -40514.507    2690.0778   -43204.585    21.284871 
    6350    221.62714    83.519703    131753.97   -40530.333    2701.3096   -43231.642    21.310479 
    6400    218.66446    107.68326    131863.49   -40546.318    2665.1988   -43211.516    21.419774 
    6450    216.26418    -26.08384    131933.21   -40567.894    2635.9429   -43203.837    21.557807 
    6500    215.74267   -4.6630135    131907.96   -40609.594    2629.5865   -43239.181     21.73224 
    6550    215.61958   -109.89351    131928.78   -40613.065    2628.0862   -43241.151    21.875826 
    6600    215.19525    74.237155    131868.61   -40659.392    2622.9143   -43282.306    22.000746 
    6650     215.7252    73.125384    131908.43   -40680.109    2629.3736   -43309.483      22.2027 
    6700    219.12827   -173.51772    131907.37    -40680.65     2670.852   -43351.502    22.344969 
    6750    215.39382    97.389317    131864.04   -40626.405    2625.3345    -43251.74    22.528496 
    6800    210.93073   -88.606112    131876.06   -40617.225     2570.936   -43188.161    22.643036 
    6850    216.83806    101.04834    131898.11   -40620.533    2642.9377    -43263.47    22.746201 
    6900    223.02459   -143.01933    131883.14   -40612.334    2718.3425   -43330.676    22.990587 
    6950     216.2607     12.20643    131808.02   -40601.974    2635.9005   -43237.875    23.040369 
    7000    217.90825     -43.1675    131838.13   -40589.865    2655.9817   -43245.847    23.281752 
    7050    217.72938   -6.5027771    131903.89   -40601.887    2653.8016   -43255.689     23.45134 
    7100    216.38706   -179.09884     131867.1   -40605.458    2637.4407   -43242.899    23.485144 
    7150     219.9896  -0.35090968    131851.55   -40596.875    2681.3504   -43278.225    23.702317 
    7200    216.51248    97.034844    131820.65   -40593.995    2638.9693   -43232.964    23.846028 
    7250    215.10776    125.09431    131975.77    -40634.36    2621.8479   -43256.208    24.120218 
    7300    216.23712   -19.975916    131916.51   -40575.299    2635.6131   -43210.912    24.138681 
    7350    218.13892    100.34351    131827.41   -40617.291    2658.7933   -43276.084    24.298097 
    7400    215.46598   -109.72782    131917.77   -40663.744     2626.214   -43289.958    24.588156 
    7450    214.07886   -48.092432    131930.79   -40602.524    2609.3071   -43211.831    24.651278 
    7500    214.10399    42.654775     132030.7   -40594.279    2609.6133   -43203.893    24.715009 
    7550    217.16554   -80.176941       131933   -40600.252    2646.9291   -43247.181    24.885537 
    7600    214.89653   -42.925684    131874.96   -40681.762    2619.2733   -43301.036    25.041149 
    7650    216.93365   -40.428438    131716.92    -40616.27    2644.1029   -43260.373    25.247686 
    7700    220.13703    45.160645    131697.61   -40555.597    2683.1473   -43238.745    25.322699 
    7750    215.92768    129.19335    131856.42   -40592.309    2631.8415   -43224.151    25.410589 
    7800    215.07103  -0.77543803    131959.26   -40616.216    2621.4001   -43237.616     25.53557 
    7850    215.62245   -77.597622    132078.89   -40577.957    2628.1212   -43206.078    25.771562 
    7900    215.04807    12.771856    132034.63   -40592.252    2621.1204   -43213.373    25.847426 
    7950    218.01724   -128.85928    131992.64   -40605.148    2657.3101   -43262.458    25.972438 
    8000    219.13064   -13.572403    131923.05   -40631.039    2670.8809    -43301.92    26.251973 
    8050    216.33812   -13.238228    131939.87   -40594.739    2636.8442   -43231.583    26.440678 
    8100    217.26196    133.41469    132016.32   -40571.966    2648.1044   -43220.071    26.468903 
    8150    221.51038   -97.954221     132066.3    -40532.38    2699.8864   -43232.267    26.676092 
    8200    220.61838   -7.5234196    132115.64   -40549.643    2689.0142   -43238.657    26.914838 
    8250     220.4045    45.615574    132107.82   -40520.154    2686.4074   -43206.561     27.07294 
    8300    217.21441   -70.260058    132085.07   -40524.254    2647.5248   -43171.779    27.121448 
    8350    217.62186    102.68348     132062.6   -40548.425    2652.4911   -43200.916     27.41077 
    8400    218.03261    25.015071    132164.03   -40563.824    2657.4975   -43221.322    27.653343 
    8450    219.28881   -75.232784    132145.22   -40562.704    2672.8088   -43235.513    27.887653 
    8500     217.0252   -227.06155     132002.4   -40610.995    2645.2186   -43256.214    28.029421 
    8550    213.41411    49.133748    131815.43   -40594.701    2601.2048   -43195.905    28.215467 
    8600    214.37263   -73.551562    131830.16   -40651.494    2612.8877   -43264.382    28.322773 
    8650    220.68232    77.278578    131816.61   -40634.914    2689.7935   -43324.707    28.532635 
    8700    216.91484    66.484961    131880.57   -40621.394    2643.8736   -43265.268    28.836289 
    8750     219.0917   -132.77319    131890.41   -40668.914    2670.4063    -43339.32    29.047678 
    8800    212.69707   -44.920507    131783.93   -40728.924    2592.4651   -43321.389    29.242945 
    8850    219.54996    62.152956    131751.75   -40687.915    2675.9918   -43363.907    29.376579 
    8900    218.95427   -66.172854    131800.01   -40714.713    2668.7312   -43383.444    29.533968 
    8950    218.09795   -50.963021    131872.36   -40681.767    2658.2939   -43340.061    29.711372 
    9000    215.72189   -55.531416    131796.18   -40689.041    2629.3333   -43318.374    29.790588 
    9050    218.16601   -9.8754251    131821.29   -40696.628    2659.1235   -43355.752    29.967803 
    9100     216.1644   -107.16939    131854.53   -40734.656    2634.7268   -43369.383     30.05551 
    9150    216.45615    9.0827802     131757.1   -40764.473    2638.2828   -43402.756    30.163108 
    9200    211.31664    15.370951     131840.1    -40714.37    2575.6398    -43290.01    30.269142 
    9250    218.32372   -102.10748    131792.01   -40699.088    2661.0457   -43360.134    30.321139 
    9300    218.19301    134.43915    131977.83    -40623.12    2659.4525   -43282.572    30.501081 
    9350    217.60168    48.905814    132105.47   -40661.251    2652.2451   -43313.496     30.64799 
    9400    214.97366   -75.591763    132141.56   -40704.963    2620.2134   -43325.176    30.804509 
    9450    212.41867   -30.250698    131940.05   -40681.195    2589.0718   -43270.267    30.980103 
    9500    213.88469    86.410289    131910.41   -40688.954    2606.9404   -43295.894    31.205087 
    9550    221.84209    132.37744    132039.67   -40610.858    2703.9294   -43314.787    31.296293 
    9600    221.79675   -2.7706004    131975.52    -40607.31    2703.3768   -43310.687    31.308476 
    9650    222.79635   -116.42171    131834.25   -40644.178    2715.5605   -43359.738     31.38128 
    9700    217.93934    141.30052    131935.58   -40629.449    2656.3606    -43285.81    31.513501 
    9750    217.05002   -153.96327    132019.07   -40668.499    2645.5212    -43314.02    31.822475 
    9800    214.05757   -35.586992    131957.08   -40731.506    2609.0476   -43340.554    32.065355 
    9850      217.696   -16.647761     132009.5   -40722.251    2653.3947   -43375.646    32.297815 
    9900    212.17516   -126.64613    131922.42    -40729.09    2586.1038   -43315.194    32.375542 
    9950    210.66746    128.02261    132025.12   -40715.176    2567.7272   -43282.903    32.508326 
   10000    214.63582   -59.440675     132053.8   -40656.624    2616.0956   -43272.719    32.547826 
   10050    217.71758    106.04766    132139.69   -40660.526    2653.6577   -43314.184    32.684874 
   10100    215.11208    60.656657    132150.01   -40638.483    2621.9006   -43260.384    32.816363 
   10150     215.4923   -60.761667    132109.69   -40623.566    2626.5349   -43250.101    32.986297 
   10200    216.55795    131.42125    132032.19   -40622.952    2639.5236   -43262.476     32.98891 
   10250    217.24912   -34.529804    131958.99   -40623.476    2647.9479   -43271.424    33.110198 
   10300    215.15873   -2.6965407    132002.96   -40592.917    2622.4692   -43215.386    33.415348 
   10350    216.37207   -94.506993    131867.96   -40598.626     2637.258   -43235.884    33.485945 
   10400    213.34285    40.525708    131799.49   -40623.417    2600.3362   -43223.753    33.520133 
   10450    217.56104    155.94171    131893.28    -40606.54    2651.7498    -43258.29    33.849304 
   10500    216.87163   -4.8640034    131987.82   -40626.066    2643.3469   -43269.413    34.058894 
   10550    216.58969   -17.526755     131997.6   -40651.686    2639.9104   -43291.597    34.211695 
   10600     215.9465   -83.426366     131898.7   -40614.311    2632.0709   -43246.382    34.338069 
   10650    216.19501   -166.05647    131935.53   -40647.516    2635.0999   -43282.616    34.457257 
   10700    216.15703    150.52856       131856   -40642.618    2634.6369   -43277.255    34.487208 
   10750    218.56647   -46.778581    131971.53   -40652.477    2664.0045   -43316.482    34.521448 
   10800    215.85988    22.112757    131872.73   -40663.196    2631.0151   -43294.211     34.69632 
   10850    216.75324   -89.192468    131766.46   -40664.215    2641.9039   -43306.118    34.831879 
   10900    219.37414   -53.071837    131864.41   -40602.788    2673.8488   -43276.636    35.036813 
   10950    214.55417    89.591117    131898.86    -40586.64    2615.1004   -43201.741    35.315973 
   11000    218.58921    24.966164     131982.3   -40624.957    2664.2816   -43289.238    35.370267 
   11050    218.76941    79.005464    132019.12   -40648.382     2666.478    -43314.86    35.577023 
   11100    217.60553   -181.59541    131850.75   -40651.849     2652.292   -43304.141     35.75276 
   11150    214.27759   -24.621599    131839.47   -40679.665    2611.7294   -43291.394    35.913933 
   11200    213.41846   -109.21858    131736.51   -40678.696    2601.2578   -43279.954    36.060038 
   11250    211.67856    182.92892    131817.38     -40710.7    2580.0509    -43290.75    36.228669 
   11300    212.60973   -211.44448    131785.76   -40724.711    2591.4005   -43316.111    36.250627 
   11350    214.09503    6.6800297    131550.93   -40710.545    2609.5041   -43320.049     36.39135 
   11400    218.96022    108.68183    131612.43   -40699.271    2668.8038   -43368.075    36.537899 
   11450    213.51264    107.73232    131653.05   -40673.315    2602.4057   -43275.721    36.552473 
   11500    217.86103    11.430924    131714.44   -40681.169    2655.4061   -43336.575    36.782526 
   11550    215.36016   -80.074745    131598.92   -40724.604    2624.9243   -43349.528    36.852847 
   11600    214.29227   -93.799392    131535.36    -40718.99    2611.9083   -43330.899    37.041578 
   11650     215.7084   -9.8482797    131425.01   -40723.866    2629.1688   -43353.035    37.053973 
   11700    218.82288    52.044415    131458.75    -40699.14    2667.1298   -43366.269    37.073602 
   11750     216.3879    155.96854    131503.42    -40705.18    2637.4509   -43342.631     37.28586 
   11800    220.28928   -103.88138    131590.86   -40646.335     2685.003   -43331.338    37.488861 
   11850    217.73597    176.98016    131538.46   -40671.558    2653.8819    -43325.44    37.568528 
   11900    216.34654   -1.7439015    131756.89   -40696.062    2636.9468   -43333.009    37.681508 
   11950    221.96734    12.164716    131772.05   -40667.376    2705.4561   -43372.832    37.869854 
   12000    216.32379   -19.834064    131639.65   -40675.334    2636.6694   -43312.003    37.964371 
   12050    220.63991    102.66687    131686.91   -40719.421    2689.2766   -43408.697    37.984111 
   12100    221.33413    165.27483    131813.94   -40715.979    2697.7382   -43413.717    38.231195 
   12150    213.79634    48.892654    131884.64   -40733.675    2605.8636   -43339.538     38.33772 
   12200    213.00808    23.306512    131752.27   -40738.444    2596.2559     -43334.7    38.323911 
   12250    212.77971    48.598741    131950.51   -40741.586    2593.4724   -43335.059    38.514782 
   12300    210.02919   -191.25796    131839.92   -40825.753    2559.9476     -43385.7    38.716739 
   12350    213.81118   -107.86172    131735.67    -40805.52    2606.0445   -43411.565    39.015334 
   12400    212.45011    191.03933    131677.09   -40812.793     2589.455   -43402.248     38.83253 
   12450    215.99723    137.30518    131815.08   -40781.192    2632.6892   -43413.882    39.024394 
   12500    213.69964    35.349172    131907.47   -40811.078     2604.685   -43415.763     39.29024 
   12550    210.79607    63.245048    131950.99    -40823.25    2569.2947   -43392.545    39.413871 
   12600    216.11238    30.346877     131912.3   -40753.632    2634.0927   -43387.724    39.523414 
   12650    215.08207   -47.557839    131837.04   -40782.231    2621.5347   -43403.765    39.626188 
   12700    214.07703    18.235919    131844.29   -40767.023    2609.2848   -43376.308    39.842107 
   12750    218.37197   -196.86866    131766.53   -40775.837    2661.6338   -43437.471     39.89495 
   12800    216.18074    82.195901    131736.79   -40765.141    2634.9259   -43400.067    40.055839 
   12850    217.25207   -3.2918482    131906.87   -40734.201    2647.9839   -43382.185    40.194151 
   12900    214.55307    65.242549    131905.58   -40776.855     2615.087   -43391.942    40.332718 
   12950    213.74246   -7.3085331    132018.78   -40810.592    2605.2069   -43415.799    40.494254 
   13000    214.46779    149.67856    132144.93   -40776.498    2614.0475   -43390.545    40.595312 
   13050    213.95284    25.493072    132176.45   -40767.915    2607.7711   -43375.686    40.840266 
   13100    215.50462    51.355586    132133.54   -40807.169    2626.6851   -43433.854    40.917815 
   13150    212.33548    69.023703    132064.81   -40783.924    2588.0579   -43371.981    41.080096 
   13200    211.25511    83.500353    132132.57    -40807.62    2574.8897    -43382.51       41.393 
   13250    215.00573    18.534735    132095.36   -40784.872    2620.6043   -43405.476    41.392991 
   13300    212.28091   -24.700504    132067.58   -40796.078    2587.3928   -43383.471    41.559556 
   13350     214.9877   -62.890431    131961.92   -40793.505    2620.3845    -43413.89    41.826906 
   13400    211.88501   -171.88969    131794.89   -40845.951    2582.5673   -43428.519    41.939614 
   13450    218.87952   -20.241969    131780.84   -40812.942    2667.8201   -43480.762    42.040557 
   13500      216.253   -108.90364     131782.9   -40776.288    2635.8067   -43412.095    42.196189 
   13550    214.89568   -82.937775    131674.53   -40782.265    2619.2629   -43401.528    42.291279 
   13600    216.13198   -65.079655    131666.99   -40797.233    2634.3317   -43431.565      42.3804 
   13650    212.83182   -90.069772    131732.81   -40771.916    2594.1075   -43366.023    42.434892 
   13700    214.08839     -28.6355    131683.52   -40711.191    2609.4232   -43320.614    42.529654 
   13750    217.79911    68.837832    131715.35   -40694.034    2654.6515   -43348.685    42.609916 
   13800     219.0082     118.5121    131750.78   -40682.403    2669.3885   -43351.791    42.717832 
   13850    213.63305    46.280333    131784.24   -40740.892    2603.8733   -43344.766    42.948889 
   13900    211.49437    48.222988    131742.05   -40782.932    2577.8059   -43360.738    42.969858 
   13950    217.55863   -141.43614    131738.91   -40766.056    2651.7204   -43417.776     43.04497 
   14000    214.64693     75.18798    131669.45   -40729.518    2616.2311   -43345.749    43.082167 
   14050    213.82514   -78.527156    131700.04    -40739.85    2606.2147   -43346.064    43.121844 
   14100    214.89968    107.70894    131647.81   -40751.092    2619.3117   -43370.404    43.090111 
   14150    216.95588   -37.380737    131624.37   -40723.868    2644.3738   -43368.242    43.209986 
   14200      216.646   -93.373193    131530.54   -40704.193    2640.5967    -43344.79    43.267046 
   14250    217.57436    133.39228    131544.52   -40699.318    2651.9121    -43351.23    43.329699 
   14300    216.19418    38.235577    131640.28    -40657.74    2635.0898    -43292.83    43.374671 
   14350    221.47636   -95.623615    131655.56   -40638.221    2699.4718   -43337.693    43.464884 
   14400    216.53686    212.08884    131690.22   -40664.462    2639.2665   -43303.728    43.511499 
   14450    215.17264    28.000699    131782.36   -40671.095    2622.6387   -43293.734    43.765397 
   14500    217.00508    41.752153    131812.97   -40676.436    2644.9735    -43321.41    43.913986 
   14550    217.45356     15.27676    132006.34   -40678.572    2650.4398   -43329.012    44.159198 
   14600    213.60275    86.612438    132133.62   -40661.779     2603.504   -43265.283    44.514222 
   14650    219.66777    18.954768    132206.91   -40642.783    2677.4277   -43320.211    44.667696 
   14700    218.66077    62.758995    132240.79   -40650.536    2665.1539    -43315.69    44.663746 
   14750    218.45779    12.347234    132138.62   -40696.734    2662.6799   -43359.414     44.91293 
   14800    216.25188   -167.97596    132061.01   -40752.138     2635.793   -43387.931    45.018073 
   14850    213.48387   -109.14141    131964.87   -40765.606    2602.0551   -43367.661    45.288122 
   14900    215.36329    171.28183    131934.99   -40775.111    2624.9624   -43400.074    45.376636 
   14950    212.94866     190.3876    132051.43   -40744.728    2595.5316   -43340.259    45.499271 
   15000     210.2433    63.565187    132018.52   -40803.904    2562.5572   -43366.461    45.714848 
   15050    212.40823   -43.147686    131938.38   -40796.271    2588.9446   -43385.216     45.72695 
   15100    216.50617    30.283597    132020.94   -40803.667    2638.8924   -43442.559    45.670403 
   15150    211.76642   -36.857511     132065.4   -40791.185    2581.1219   -43372.307    45.792292 
   15200    216.71061    28.569459    132101.37   -40790.594    2641.3843   -43431.978    45.939777 
   15250     212.6219     19.93945    132077.48   -40812.341    2591.5488    -43403.89    46.005147 
   15300    209.13061   -119.67174    132094.79   -40831.005    2548.9952       -43380    46.075283 
   15350    211.36945    12.069115    132116.87   -40877.561    2576.2833   -43453.844    46.195524 
   15400    212.86962   -89.278939    132070.18    -40834.87    2594.5682   -43429.438    46.338451 
   15450    215.77143    178.31206    132155.16   -40792.071    2629.9371   -43422.008    46.264706 
   15500     216.0838   -85.115372    132372.23   -40752.941    2633.7443   -43386.686     46.41953 
   15550    218.78119    11.237862    132311.92   -40749.213    2666.6216   -43415.835    46.555473 
   15600      217.136    218.13208    132489.27   -40768.909    2646.5691   -43415.478    46.666691 
   15650    213.20561   -134.33468    132435.81   -40737.281    2598.6634   -43335.945    46.856632 
   15700    214.02795    72.716218    132370.95   -40729.898    2608.6866   -43338.584    46.938481 
   15750    212.73568    -22.06679    132358.45   -40722.562    2592.9357   -43315.498    47.269783 
   15800    214.43286    107.92507    132423.18   -40706.503    2613.6219   -43320.125    47.630842 
   15850    212.81677   -117.68258    132406.59   -40706.274     2593.924   -43300.198    47.585854 
   15900     218.1936   -103.04118    132412.09   -40754.097    2659.4597   -43413.556    47.629764 
   15950    213.35885    74.104029    132376.68   -40798.645    2600.5312   -43399.176    47.769676 
   16000    218.44447    101.29524    132404.77   -40766.713    2662.5175   -43429.231    47.779744 
   16050    212.25721   -152.36629    132454.99   -40806.448    2587.1039   -43393.552    47.856246 
   16100    213.45743    37.893436    132395.18    -40811.99    2601.7328   -43413.723    47.981353 
   16150    212.52232   -124.22213     132374.3   -40808.832    2590.3351   -43399.167    48.138481 
   16200    217.09748   -24.516233     132410.2   -40718.299    2646.0996   -43364.399    48.267433 
   16250    218.60791    6.4071278    132303.15   -40683.721    2664.5096   -43348.231     48.24175 
   16300    218.18697    3.7059801    132491.45   -40687.308    2659.3789   -43346.687    48.260921 
   16350    220.07545   -82.228382    132376.78   -40694.155    2682.3967   -43376.552    48.590693 
   16400    218.74558   -103.39294    132289.55   -40652.923    2666.1876   -43319.111    48.646646 
   16450    217.80127   -20.702795    132084.84   -40701.454    2654.6778   -43356.132    48.688746 
   16500    216.78465    120.81859    132055.55   -40725.729    2642.2867   -43368.015    48.888339 
   16550    216.89985   -25.138251    132200.94   -40712.712    2643.6908   -43356.403    49.054153 
   16600    209.41117    105.37488    132024.11   -40783.089    2552.4148   -43335.504    49.318092 
   16650    214.73066   -144.59753    132031.34   -40712.286    2617.2516   -43329.538    49.508823 
   16700    215.80736    85.673294    132013.18   -40686.976     2630.375   -43317.351    49.595403 
   16750    212.96045   -51.334582    131991.78   -40708.269    2595.6753   -43303.945    49.634433 
   16800    214.87406   -74.664779    132003.11   -40694.828    2618.9995   -43313.828    49.737012 
   16850       213.86   -333.40202    131848.94   -40716.611    2606.6396   -43323.251    49.957052 
   16900    216.26846      155.181     131730.2   -40715.228    2635.9951   -43351.223    49.938259 
   16950    215.30706   -57.350372    131856.85   -40698.981    2624.2771   -43323.258    50.163651 
   17000     216.1863    17.765409    131738.17   -40697.915    2634.9937   -43332.909    50.274304 
   17050    210.97625    -20.30421    131675.15   -40749.395    2571.4908   -43320.886     50.45593 
   17100    209.05401   -7.2703051    131628.52   -40788.386    2548.0616   -43336.447    50.515803 
   17150    211.16324    86.607832     131769.8   -40794.824      2573.77   -43368.594    50.779071 
   17200    210.78488    -153.3321    131803.45    -40795.58    2569.1583   -43364.738    51.015213 
   17250    214.71969    43.640415    131645.24   -40743.097    2617.1179   -43360.215    51.188364 
   17300    210.15427   -125.18257    131738.61   -40755.066    2561.4722   -43316.538    51.480233 
   17350    210.98464    6.9501938    131756.38   -40698.265    2571.5931   -43269.858    51.597065 
   17400    214.96752    93.192224    131603.03   -40744.681    2620.1385    -43364.82    51.591315 
   17450    214.65363   -142.99151    131577.16    -40775.15    2616.3127   -43391.463    51.895763 
   17500    209.07743   -250.96217    131522.04   -40793.007     2548.347   -43341.354    52.079277 
   17550    211.66743   -30.311518    131454.65    -40763.66    2579.9154   -43343.575    52.246226 
   17600    215.66838     61.19262    131516.37   -40727.596     2628.681   -43356.277    52.618192 
   17650    212.63515    72.056974    131530.48   -40747.041    2591.7105   -43338.751    52.654278 
   17700    210.52309   -75.524689    131451.86   -40760.992    2565.9675   -43326.959    52.864943 
   17750    210.87192    149.07941    131348.14   -40785.236    2570.2192   -43355.456    52.973131 
   17800    212.07844   -8.9555241    131496.13   -40779.904     2584.925   -43364.829    53.008518 
   17850    213.39581    77.411577    131457.88   -40771.352    2600.9817   -43372.333    53.192838 
   17900    218.53397    84.716463    131386.79   -40696.758    2663.6083   -43360.366    53.298479 
   17950    215.37258    29.273653    131494.19    -40691.68    2625.0757   -43316.756    53.515359 
   18000    218.22704     115.6805    131694.75   -40671.137    2659.8673   -43331.004     53.81828 
   18050    216.96563    80.478522    131624.19   -40694.842    2644.4926   -43339.334    53.838426 
   18100     218.4385   -19.106169    131714.91   -40701.356    2662.4447   -43363.801    53.933748 
   18150    211.48184    22.211251    131712.33   -40768.047    2577.6533     -43345.7    54.109134 
   18200    217.60926   -17.938947    131772.87   -40767.981    2652.3375   -43420.319    54.201762 
   18250    215.84384   0.46235725    131701.58   -40789.179    2630.8196   -43419.999    54.344439 
   18300    217.37892    52.455017     131698.6   -40733.256      2649.53   -43382.786    54.539529 
   18350    216.62123    157.67759    131856.95   -40690.004    2640.2949   -43330.299    54.409885 
   18400      216.981   -70.596411    131987.17    -40688.72    2644.6799     -43333.4    54.539083 
   18450    218.87747   -136.20726    131915.04   -40688.437    2667.7951   -43356.232    54.629214 
   18500    216.99613   -137.05532    131804.07   -40713.009    2644.8644   -43357.873    54.649479 
   18550    214.89077     109.5866     131799.5    -40692.51     2619.203   -43311.714    54.702555 
   18600    216.18489    192.74095    132029.74   -40700.239    2634.9765   -43335.215    54.705048 
   18650    213.31533    149.26558    132114.02    -40716.66    2600.0008    -43316.66     54.83416 
   18700    215.80275    31.617699    132019.08   -40734.646    2630.3187   -43364.964    54.766864 
   18750    214.84936     61.16609    131835.49     -40768.2    2618.6983   -43386.899    54.984033 
   18800    211.33862    154.59192    131915.14    -40792.59    2575.9076   -43368.498     55.29716 
   18850    215.06464   -53.413763    131958.57   -40803.081    2621.3223   -43424.404    55.309158 
   18900    213.01249   -66.548037    131821.25   -40753.451    2596.3096   -43349.761    55.233114 
   18950    213.20144    62.575792    131791.96   -40760.545    2598.6126   -43359.157    55.270993 
   19000    214.79579   -168.65268    131885.85   -40734.502    2618.0454   -43352.547    55.665411 
   19050    212.77091    79.715434    131762.61   -40721.503    2593.3651   -43314.868    55.844828 
   19100    214.69623   -12.696543    131767.06   -40692.511    2616.8319   -43309.343    55.842185 
   19150    217.97131    179.11245    131765.88   -40662.563    2656.7503   -43319.314    55.964811 
   19200    212.43733   -45.252159    131855.86   -40682.001    2589.2992     -43271.3    56.120195 
   19250    216.62891   -205.45155    131838.59   -40643.715    2640.3885   -43284.103    56.403428 
   19300    215.59064   0.76057426    131739.06   -40682.698    2627.7334   -43310.432    56.755702 
   19350    213.10528   -42.654816    131754.87   -40679.732    2597.4405   -43277.172    57.125995 
   19400    215.70267    -6.068565    131845.63    -40702.77    2629.0989   -43331.869    57.211477 
   19450    216.14449    54.844528    131921.41   -40736.362    2634.4841   -43370.846    57.358303 
   19500    215.34945   -48.688277    131957.36   -40720.009    2624.7937   -43344.803    57.390686 
   19550    208.61226   -27.625581    131893.24   -40728.824    2542.6773   -43271.501    57.714343 
   19600    212.42555   -61.439201    131866.45   -40736.376    2589.1557   -43325.532    58.031298 
   19650    214.90474   -21.489408    131999.57   -40680.351    2619.3733   -43299.724    58.061447 
   19700    214.94656   -3.3652506    132036.34    -40662.44     2619.883   -43282.324    57.994702 
   19750    219.21293    190.18881     132080.3    -40638.38    2671.8838   -43310.264    58.210825 
   19800    214.71534    79.960318    132128.42   -40669.718    2617.0648   -43286.782    58.357972 
   19850    215.63878   -230.52307    132198.13   -40612.261    2628.3203   -43240.581    58.388324 
   19900    215.60265   -12.653791    132077.74   -40668.974    2627.8798   -43296.854    58.543713 
   19950    213.69357   -8.2667014    132148.86   -40689.785     2604.611   -43294.396    58.575359 
   20000    213.02371  -0.91110054    132202.38   -40661.483    2596.4463   -43257.929    58.464259 
   20050    213.34394   -133.07457    132053.01    -40643.79    2600.3494    -43244.14    58.707081 
   20100    218.03868    167.41442    132101.59   -40602.372    2657.5715   -43259.943    58.930895 
   20150    212.51386    119.21598    132135.23   -40618.658     2590.232    -43208.89    59.127909 
   20200    217.98982    -151.6108    132003.45   -40625.114     2656.976    -43282.09     59.14248 
   20250    213.47672   -18.054105    132001.87   -40619.128    2601.9678   -43221.096    59.384357 
   20300    220.23927     30.18748    132016.62   -40572.555    2684.3935   -43256.948    59.426513 
   20350    216.02051   -89.221353    131978.47   -40597.719    2632.9729   -43230.692    59.590398 
   20400    218.04809   -103.58983     131921.1   -40607.068    2657.6861   -43264.754    59.488234 
   20450    218.82425    147.04757    131930.95   -40572.826    2667.1464   -43239.972    59.695929 
   20500    216.54279   -61.543097    131909.52   -40583.521    2639.3388    -43222.86    59.862578 
   20550    217.67024   -67.455906    131733.03   -40560.721    2653.0807   -43213.802    59.816491 
   20600    219.87979    73.127779    131857.81   -40563.188    2680.0119     -43243.2    59.849472 
   20650    220.87763   -37.746221    131865.41   -40578.398    2692.1741   -43270.572    59.937265 
   20700    216.39599   -16.598145    131807.84    -40587.06    2637.5496    -43224.61     60.00977 
   20750    213.35248   -66.240129    131699.53   -40621.903    2600.4536   -43222.357    60.001475 
   20800    213.36476   -118.65682    131609.11   -40645.519    2600.6033   -43246.122    60.087181 
   20850     214.3595    104.99617    131555.03   -40624.461    2612.7276   -43237.188    60.534856 
   20900    216.71425   0.50483861    131450.72   -40633.844    2641.4286   -43275.272    60.815679 
   20950    217.48865    67.071778     131562.5   -40635.747    2650.8674   -43286.614     61.13326 
   21000    214.22462   -25.651789    131496.28   -40665.969    2611.0837   -43277.053     61.30431 
   21050    216.37908    9.2617358    131626.39   -40640.595    2637.3434   -43277.938    61.503152 
   21100    214.48272     27.47006    131621.66   -40643.149    2614.2295   -43257.379    61.493229 
   21150    216.71937   -11.531699    131696.55   -40647.624     2641.491   -43289.115    61.829964 
   21200    214.65008    26.733426     131662.1   -40618.873    2616.2694   -43235.142     61.99497 
   21250    213.51395    45.976999    131613.79   -40664.175    2602.4216   -43266.597    62.213958 
   21300    214.01628   -68.705565    131638.12   -40616.087    2608.5444   -43224.632    62.230559 
   21350     215.9631    51.427803     131587.2   -40637.318    2632.2732   -43269.591    62.242242 
   21400    217.03455   -105.70687    131542.04   -40594.344    2645.3326   -43239.676    62.346361 
   21450    218.23379   -41.775696    131571.14    -40574.58    2659.9496   -43234.529    62.487932 
   21500    215.81485    16.632847    131622.86   -40599.024    2630.4663    -43229.49    62.666007 
   21550    216.21971    111.53454    131739.04   -40624.478    2635.4009   -43259.879    62.833302 
   21600    212.92365    181.96251       131868   -40652.467    2595.2267   -43247.693    63.140428 
   21650    216.68691    -53.28824    131794.61   -40639.988    2641.0954   -43281.083    63.192973 
   21700    218.65027   -89.672544    131676.58   -40642.472    2665.0258   -43307.497    63.197468 
   21750    217.24346   -4.0073458    131573.05   -40604.959    2647.8789   -43252.838    63.147896 
   21800      218.561    9.8562888    131567.02   -40618.657    2663.9378   -43282.595    63.401508 
   21850    217.13271     78.94543    131619.96   -40611.489     2646.529   -43258.018    63.391988 
   21900    221.18459  -0.77919867    131605.83   -40586.653    2695.9155   -43282.569    63.760104 
   21950    213.95253    54.832857     131645.6   -40591.098    2607.7674   -43198.865    64.095235 
   22000    217.91315    -14.48054    131674.74   -40593.032    2656.0415   -43249.074    64.283854 
   22050    214.81743   -109.14397    131605.07   -40619.216    2618.3092   -43237.525    64.252908 
   22100    213.68016    10.168345    131518.49   -40664.115    2604.4476   -43268.562    64.316088 
   22150    211.29459    40.469591    131502.13   -40691.811     2575.371   -43267.182    64.452994 
   22200    213.47027    21.587587    131466.55   -40687.857    2601.8892   -43289.746    64.500722 
   22250    211.15034    185.63717    131495.66   -40694.235    2573.6128   -43267.848    64.716896 
   22300    211.64288   -82.814434    131522.24   -40695.329     2579.616   -43274.945    64.772432 
   22350    216.44619    8.3166438    131505.53   -40709.001    2638.1613   -43347.162    65.100031 
   22400    222.35622    163.44526    131467.31   -40673.538     2710.196   -43383.734    65.269047 
   22450    212.16502    57.662627    131660.09   -40724.394    2585.9803   -43310.374    65.456117 
   22500      217.842   -9.6298195    131755.72   -40700.413    2655.1743   -43355.587    65.543151 
   22550    213.81321   -138.63448    131833.93   -40695.246    2606.0692   -43301.315    65.704522 
   22600    215.49066   -98.655491    131844.24   -40677.439    2626.5148   -43303.954    65.806432 
   22650    215.57419    -236.2958    131580.79   -40667.703    2627.5329   -43295.236    65.867599 
   22700     211.0755    79.797437    131734.92   -40697.264    2572.7005   -43269.965    66.152778 
   22750    216.18804   -20.346575    131605.68   -40697.413    2635.0149   -43332.428    66.296713 
   22800     215.0255   -60.067085    131618.91   -40709.376    2620.8453   -43330.221    66.366847 
   22850    211.68896    79.252402    131694.19   -40699.107    2580.1777   -43279.285    66.258007 
   22900     216.1601   -13.284923    131703.84   -40666.359    2634.6743   -43301.033    66.597472 
   22950    213.37609   -10.193096    131650.38   -40767.403    2600.7414   -43368.145     66.43826 
   23000    209.29716    8.2340141    131723.96   -40793.514    2551.0251    -43344.54    66.344741 
   23050    209.90415   -96.684494    131644.88   -40787.239    2558.4235   -43345.663    66.680587 
   23100    212.22673    60.852321    131618.71   -40750.904    2586.7324   -43337.637    66.895019 
   23150    209.50758    67.767275    131608.81   -40714.758    2553.5899   -43268.348    67.140111 
   23200    214.32849     161.5092    131750.69   -40731.959    2612.3497   -43344.308    67.492228 
   23250    215.55367    58.525696    131801.42   -40673.196    2627.2828   -43300.479    67.843906 
   23300    214.00884     55.21221    131821.63    -40736.85    2608.4536   -43345.304    67.874236 
   23350    211.28176    56.042754    131937.11   -40744.223    2575.2145   -43319.437    67.995378 
   23400     211.2477    46.411365     131960.7   -40739.365    2574.7994   -43314.164    68.188786 
   23450    220.18928   -119.82068    131997.82   -40685.789    2683.7841   -43369.573    68.368036 
   23500    213.49656   -63.315355    131989.32    -40668.63    2602.2097    -43270.84    68.540793 
   23550    216.97108   -68.297293    131852.23   -40616.271    2644.5591   -43260.831    68.556007 
   23600    212.70835   -143.23977    131815.94   -40650.542    2592.6027   -43243.144    68.625741 
   23650    214.85689    39.809242    131835.68   -40664.063    2618.7902   -43282.853    68.665749 
   23700    214.37906   -37.337146    131844.92   -40678.321    2612.9661   -43291.287    68.860451 
   23750    213.27679   -24.896709    131697.81   -40698.051     2599.531   -43297.582    68.882332 
   23800    214.49643    37.960695    131753.88    -40631.73    2614.3967   -43246.127    69.022448 
   23850    211.22858   -119.17405    131679.16   -40677.266    2574.5663   -43251.833    69.136092 
   23900    214.56377    102.39191    131763.49   -40702.732    2615.2174   -43317.949    69.519454 
   23950     210.6796   -44.838157    131804.25   -40727.707    2567.8751   -43295.582    69.847591 
   24000    213.42912    203.81141    131815.34   -40686.949    2601.3877   -43288.337     70.02252 
   24050    219.62992   -6.7926299    131914.13   -40669.373    2676.9663   -43346.339    70.191287 
   24100    218.19096    43.342842    131899.64   -40665.604    2659.4275   -43325.032    70.278111 
   24150    210.24464   -90.202494    131879.81   -40745.184    2562.5736   -43307.757    70.302921 
   24200    214.95173   -148.44969    131767.51   -40765.371    2619.9461   -43385.317    70.235791 
   24250    213.58048   -61.991365    131780.41   -40763.376    2603.2325   -43366.608    70.334733 
   24300    212.11121   -235.59361    131686.21   -40749.187    2585.3244   -43334.511    70.390723 
   24350    216.79224   -100.32956    131569.57   -40723.446    2642.3792   -43365.825    70.619323 
   24400    216.99658    39.131449    131638.76   -40724.304    2644.8699   -43369.174    70.672532 
   24450    211.43767    189.86063    131768.27   -40740.843    2577.1149   -43317.958    70.804207 
   24500     214.3091    103.90375    131880.86   -40781.169    2612.1133   -43393.282    70.701416 
   24550    208.80747    22.017724    131933.18   -40746.627    2545.0566   -43291.683    70.829435 
   24600    212.42455    157.84006    132022.51   -40732.954    2589.1435   -43322.097    71.020475 
   24650    215.19563   -64.370845     132108.4    -40714.27    2622.9189   -43337.189    71.158926 
   24700    215.21772   -220.09339    132016.37   -40730.241    2623.1881   -43353.429     71.20336 
   24750    212.94733    154.16855    131957.36   -40759.717    2595.5154   -43355.233    71.315274 
   24800    215.14958    -26.53576    132049.86   -40768.362    2622.3576    -43390.72    71.497497 
   24850    211.31082    75.066628    132065.05   -40801.016    2575.5687   -43376.584    71.484895 
   24900    212.56957   -146.22759    131983.13   -40748.187    2590.9111   -43339.098     71.59429 
   24950    214.97869   -13.920149    131836.23   -40676.704    2620.2747   -43296.978    71.579315 
   25000    215.87107   -33.840002    131765.84   -40676.756    2631.1515   -43307.907    71.705871 
   25050    212.37043    183.46792    131930.11   -40710.061    2588.4839   -43298.545    72.000605 
   25100    210.12338   -6.6823033    132019.02   -40736.238    2561.0956   -43297.333    72.216203 
   25150    217.29599    77.346698    131995.48   -40694.229    2648.5193   -43342.748    72.492934 
   25200    213.01206   -41.787811    131929.63   -40687.265    2596.3044   -43283.569    72.801749 
   25250    215.24484    44.169266    131855.14   -40700.359    2623.5187   -43323.877    72.983716 
   25300    211.68294   -73.808281    131748.46   -40712.602    2580.1044   -43292.707    73.083982 
   25350    216.01383    143.27879    131766.67   -40670.425    2632.8915   -43303.316    73.132219 
   25400    216.30921   -179.21449    131792.03   -40649.984    2636.4918   -43286.475    73.110182 
   25450    219.65926   -33.872783    131856.98   -40652.521     2677.324   -43329.845    73.215058 
   25500     215.2084    93.903816    131818.67   -40697.524    2623.0745   -43320.599    73.344563 
   25550    213.30818    66.941966    131946.99   -40696.566    2599.9137   -43296.479    73.459972 
   25600    215.63785   -6.6240552     131977.4   -40658.427    2628.3089   -43286.736    73.596181 
   25650    220.70085    -10.39376    132100.23   -40651.323    2690.0194   -43341.343    74.025541 
   25700    212.37147    43.838046    132055.79   -40724.068    2588.4965   -43312.564    74.102424 
   25750    213.23568    134.97516    132077.63   -40695.268      2599.03   -43294.298    74.137459 
   25800    213.35651   -156.80387    132101.35   -40704.528    2600.5027   -43305.031    74.233354 
   25850    212.25736    44.295954    132040.04   -40686.916    2587.1057   -43274.022    74.566657 
   25900      215.062   -25.303856    131876.73   -40678.266    2621.2901   -43299.556    74.502834 
   25950    214.88799    3.5765355    131854.53   -40709.768    2619.1692   -43328.937    74.821756 
   26000     215.6032    130.33294     131708.3   -40654.895    2627.8866   -43282.782    74.963386 
   26050    215.38454    35.972286     131770.7   -40652.822    2625.2214   -43278.043    74.997453 
   26100    211.61543    52.905778    131764.08   -40646.325    2579.2815   -43225.606    75.276653 
   26150    217.72422     50.60386    131719.66   -40624.392    2653.7387    -43278.13    75.427301 
   26200    220.53168   -22.453318    131865.05   -40645.845    2687.9574   -43333.802     75.98075 
   26250    215.40039    9.9891046    131955.21   -40589.521    2625.4146   -43214.936    76.259504 
   26300      221.441    48.226683    131921.24   -40568.219    2699.0407    -43267.26    76.461413 
   26350    215.70873    28.350034    131931.99   -40579.244    2629.1729   -43208.417    76.537165 
   26400    212.78084   -57.483509     131942.6   -40613.541    2593.4862   -43207.028    76.508993 
   26450    214.99358    45.016901    131835.84   -40605.019    2620.4561   -43225.476    76.492069 
   26500    219.18841   -91.104718     131858.2   -40610.901     2671.585   -43282.486    76.321545 
   26550    219.21111    98.794469    131804.49   -40541.426    2671.8617   -43213.288    76.468655 
   26600    222.97631    166.72512     132043.7   -40481.958    2717.7539   -43199.711    76.811595 
   26650    221.70654   -134.71834    132104.64   -40545.655    2702.2774   -43247.933    77.072762 
   26700    220.71455   -88.341015    132013.02    -40547.28    2690.1865   -43237.466    77.297215 
   26750    218.64897   -3.5378414    131856.73   -40635.741    2665.0101   -43300.751    77.488221 
   26800    214.13869    31.612339    131909.83   -40678.509    2610.0364   -43288.545    77.568463 
   26850    213.83641   -94.161775    131899.79   -40670.932     2606.352   -43277.284    77.429968 
   26900    220.57118   -23.117088       131817   -40668.731     2688.439    -43357.17    77.848501 
   26950    218.74771   -129.07982    131752.35   -40631.378    2666.2135   -43297.591    78.008481 
   27000    214.61353   -76.398522    131463.81   -40660.596    2615.8239    -43276.42    77.988449 
   27050    213.80429    36.805806    131503.54   -40711.203    2605.9605   -43317.163    78.232887 
   27100    215.92616    9.3768272    131569.57   -40678.593     2631.823   -43310.416    78.223141 
   27150    215.14609   -85.653038    131572.08   -40678.788    2622.3151   -43301.103    78.463065 
   27200    215.24804   -8.6794434    131591.77   -40682.141    2623.5577   -43305.698    78.474099 
   27250    212.94973   -49.930229    131609.88    -40762.07    2595.5447   -43357.615    78.712918 
   27300    210.02734    79.294272    131627.49   -40741.056     2559.925   -43300.981    78.956433 
   27350    213.24138   -181.58314    131587.45   -40694.122    2599.0994   -43293.221    79.001566 
   27400    215.07024    -86.08002    131670.17   -40785.112    2621.3905   -43406.502    79.092719 
   27450    212.24526   -61.113077    131532.48   -40822.502    2586.9582   -43409.461    79.250211 
   27500    209.07169    187.98684    131605.13   -40847.282    2548.2771    -43395.56    79.419784 
   27550    210.80307     73.97038    131618.69   -40792.233      2569.38   -43361.613    79.483066 
   27600    210.56218   -41.650795     131654.7   -40844.201    2566.4439   -43410.645    79.709775 
   27650     216.0923    76.773149    131755.96   -40760.518    2633.8479   -43394.366    80.129562 
   27700    214.66178   -128.22837     131701.8   -40800.483     2616.412   -43416.895    80.155242 
   27750      211.044    6.5780879    131645.61   -40797.722    2572.3166   -43370.039    80.287504 
   27800    212.01084   -116.84653    131720.56   -40756.121    2584.1009   -43340.222    80.492399 
   27850    213.97575   -71.063856    131609.83   -40717.888    2608.0503   -43325.938    80.768313 
   27900    216.64826    23.600403    131653.21   -40727.911    2640.6243   -43368.535    80.945903 
   27950    216.83253     31.53857    131641.71   -40718.448    2642.8703   -43361.318    80.939879 
   28000    213.09667    19.778876    131660.27   -40701.756    2597.3356   -43299.091     81.19521 
   28050    216.45533    33.528575    131765.63   -40681.107    2638.2728   -43319.379    81.508821 
   28100    211.41112   -155.49886    131646.76   -40663.677    2576.7912   -43240.469    81.789321 
   28150    217.65248    53.914668    131656.63   -40647.265    2652.8643   -43300.129    81.812496 
   28200    218.40347    103.42768    131580.11   -40633.442    2662.0178    -43295.46    81.971559 
   28250    216.31275    24.243713    131613.32   -40613.375     2636.535    -43249.91    82.063308 
   28300    218.58786    83.350613    131787.59   -40608.635    2664.2651     -43272.9    82.226664 
   28350    213.33246    144.63591    131786.75   -40632.178    2600.2096   -43232.388    82.311338 
   28400     215.1948   -146.45037     131792.8   -40630.964    2622.9087   -43253.872    82.375774 
   28450    215.88056    29.614443    131639.17   -40667.831    2631.2671   -43299.099    82.428678 
   28500    214.39453    117.42045    131849.72   -40640.761    2613.1546   -43253.916    82.570638 
   28550    215.67098   -103.82357     131924.4   -40630.818    2628.7128   -43259.531    82.788917 
   28600    215.50964    102.93353    131738.64   -40631.219    2626.7462   -43257.965    82.830763 
   28650     218.7474   -82.038591    131783.88   -40612.885    2666.2097   -43279.095    83.203689 
   28700    217.64183   -138.36294    131727.88   -40591.769    2652.7345   -43244.503    83.636174 
   28750    216.94445    75.566639    131697.04   -40567.411    2644.2344   -43211.646      83.8435 
   28800    222.01641   -73.066643    131746.54   -40600.677    2706.0541   -43306.731    84.048832 
   28850     214.8426    132.45097    131769.27   -40667.666    2618.6159   -43286.282    83.912551 
   28900    216.36818    4.1195264     131797.9   -40683.632    2637.2105   -43320.843    84.156024 
   28950    214.47849   -19.653655     131904.5   -40647.013     2614.178   -43261.191    84.388938 
   29000    220.09183   -84.610745     131752.7   -40608.586    2682.5964   -43291.183     84.47086 
   29050    215.39753    5.5137539    131764.57   -40620.479    2625.3797   -43245.859    84.410651 
   29100    217.94983    51.437999    131843.07   -40623.084    2656.4885   -43279.573    84.632653 
   29150    215.97192   -16.011216    131816.62   -40638.386    2632.3808   -43270.767    84.876889 
   29200    218.86458    106.39771    131900.73   -40634.666     2667.638   -43302.304    84.958734 
   29250    217.72486   -76.428229    131917.96   -40622.343    2653.7465    -43276.09    85.044319 
   29300    216.00887   -43.004384    131895.32   -40635.377    2632.8311   -43268.209    85.088972 
   29350    215.14868   -133.76922    131809.34   -40629.107    2622.3466   -43251.454    85.286801 
   29400    211.51544   -3.1659537    131778.33   -40645.731    2578.0627   -43223.794    85.643485 
   29450    218.19715   -141.60713    131676.11   -40623.696     2659.503   -43283.199    85.732165 
   29500    213.65787   -11.127198    131504.68   -40628.965    2604.1758   -43233.141    86.037775 
   29550    221.11914     -105.062    131448.26   -40624.837    2695.1178   -43319.955    86.400381 
   29600    218.39972    178.36775    131531.44   -40624.038     2661.972    -43286.01    86.473835 
   29650    215.23188   -167.61127    131536.27   -40605.845    2623.3607   -43229.206     86.49723 
   29700    215.22326    135.84418    131537.05    -40591.05    2623.2557   -43214.306    86.709197 
   29750    216.17644   -11.335978    131588.81   -40631.286    2634.8735    -43266.16    86.724175 
   29800    218.28415    73.538196    131661.03   -40648.424    2660.5635   -43308.988    86.877208 
   29850    212.75027   -49.535099    131754.18   -40628.591    2593.1136   -43221.705    87.203426 
   29900    212.94345    13.975825    131833.02   -40641.771    2595.4681   -43237.239    87.407053 
   29950    216.26748   -174.41157    131887.87   -40590.011    2635.9831   -43225.994    87.370989 
   30000    221.79471   -28.143275    131839.35   -40565.296     2703.352   -43268.648    87.535132 
   30050    220.69517    -86.51695     131779.3   -40569.867    2689.9502   -43259.817    87.631179 
   30100    222.95234    1.1380406       131631   -40546.767    2717.4618   -43264.229    87.456351 
   30150     215.4288   -47.441068    131634.02   -40537.619    2625.7609    -43163.38    87.265051 
   30200    220.35777    22.931448    131687.57   -40514.474    2685.8378   -43200.312     87.40164 
   30250    217.57615    206.92168    131818.13   -40578.666     2651.934     -43230.6    87.632948 
   30300    217.75438    102.49167    131943.25    -40580.91    2654.1063   -43235.017    87.986696 
   30350    215.61692   -127.45027     131919.8   -40597.098    2628.0537   -43225.152    88.012103 
   30400    217.13938   -28.393613    131804.78   -40640.637    2646.6103   -43287.247    88.136263 
   30450    215.16467    92.007078    131855.95   -40640.313    2622.5415   -43262.855    88.445546 
   30500    213.11192     36.58346    131960.72   -40709.423    2597.5215   -43306.944    88.507297 
   30550    213.61691   -84.636981    131865.49   -40727.712    2603.6766   -43331.389    88.578648 
   30600    213.90011   -103.05569    131784.03   -40753.362    2607.1284    -43360.49    88.945197 
   30650    210.32782     33.67719    131766.13   -40791.742    2563.5874    -43355.33    89.124646 
   30700    209.68672    82.982774    131821.26   -40751.482    2555.7734   -43307.256    89.150445 
   30750    215.54851    72.299561    131917.12   -40686.414      2627.22   -43313.634    89.367579 
   30800    216.37914   -85.887096    131838.58   -40695.683    2637.3441   -43333.027    89.532949 
   30850    213.39531    167.64344    131928.93   -40708.947    2600.9756   -43309.923    89.653147 
   30900    217.21073     143.9473    132148.09   -40662.004      2647.48   -43309.484    89.868565 
   30950    218.95724   -231.26472    132076.95    -40638.98    2668.7674   -43307.747    89.777171 
   31000    215.28738     23.51847    132008.56   -40640.933    2624.0372    -43264.97    90.036338 
   31050    215.23653   -172.12348    131953.72   -40698.134    2623.4174   -43321.551    90.230543 
   31100    214.65344    130.91833    131790.93   -40689.259    2616.3103    -43305.57    90.191131 
   31150    212.29173    104.92699    131844.31   -40688.704    2587.5246   -43276.228     90.26609 
   31200    217.11332   -17.605602    131727.85   -40684.703    2646.2928   -43330.995    90.186561 
   31250     213.6723   -128.86646    131581.84   -40647.774    2604.3517   -43252.126    90.356758 
   31300    214.99928    77.580942    131619.67   -40606.124    2620.5257    -43226.65    90.378585 
   31350    219.42594    63.199033    131600.83   -40639.635    2674.4801   -43314.115    90.806423 
   31400    214.98501    7.5013944    131570.93   -40676.475    2620.3517   -43296.826    91.064093 
   31450    210.82773    136.59355    131560.19   -40712.848    2569.6807   -43282.529    91.063229 
   31500    213.63165      5.98981    131575.45   -40676.892    2603.8563   -43280.749    91.144654 
   31550    215.17242    5.4911227    131531.98    -40697.25     2622.636   -43319.886    91.221375 
   31600    215.82483    62.007513    131577.68   -40688.273    2630.5879   -43318.861    91.583824 
   31650     215.7455   -145.65637    131560.33   -40696.405    2629.6211   -43326.026     91.81307 
   31700     218.0119   -140.28049    131522.57   -40706.729    2657.2451   -43363.974    92.040153 
   31750    214.48565   -109.25123    131427.54   -40695.869    2614.2653   -43310.134     92.31773 
   31800    211.75955   -36.561671    131550.33   -40683.197    2581.0381   -43264.235    92.348575 
   31850    212.71883   -45.993737    131416.29   -40730.649    2592.7303   -43323.379     92.49415 
   31900    213.85674    -29.38137    131395.82   -40730.179    2606.5998   -43336.779    92.511359 
   31950    211.23447    20.307956    131528.34   -40694.252    2574.6381    -43268.89    92.369222 
   32000    213.70267   -53.581498    131362.37   -40723.463    2604.7219   -43328.185    92.701482 
   32050     209.4434     82.17521    131269.98   -40755.141    2552.8076   -43307.949    92.813423 
   32100    215.68263   0.83635115    131305.62   -40734.162    2628.8547   -43363.017    92.740243 
   32150    215.14185    148.99014    131358.94   -40697.986    2622.2634   -43320.249    92.887207 
   32200    214.74146   -42.870101    131472.91   -40670.925    2617.3832   -43288.308    93.046644 
   32250    217.19054   -83.126842    131444.67   -40713.539    2647.2339   -43360.772    93.290072 
   32300    212.26095    29.945858    131484.48   -40770.452    2587.1494   -43357.601    93.308051 
   32350     211.7759    -60.66948       131479   -40768.038    2581.2374   -43349.276     93.47866 
   32400    210.05693    30.221083    131524.39   -40790.089    2560.2856   -43350.375    93.598164 
   32450    212.32256    96.087727    131512.51   -40779.247    2587.9004   -43367.148    93.894507 
   32500    214.87607   -38.014701    131537.93   -40792.184    2619.0239   -43411.208    94.156201 
   32550    215.34986    4.0226665    131622.78    -40720.08    2624.7987   -43344.879    94.377872 
   32600    218.21264   -109.71217    131650.71   -40665.229    2659.6918    -43324.92    94.313426 
   32650    214.48213    63.402794    131546.93   -40679.004    2614.2223   -43293.226    94.505116 
   32700    218.77791    195.53718    131555.39   -40630.016    2666.5817   -43296.598    94.813679 
   32750    217.35192     -6.57421    131557.89    -40666.58     2649.201   -43315.781    94.834254 
   32800    218.19289   -59.746522    131391.34     -40678.4    2659.4511   -43337.851    94.695547 
   32850    216.26134    53.518564    131495.21   -40674.315    2635.9083   -43310.223    94.889376 
   32900    214.80004  -0.11916681    131466.29   -40683.952    2618.0972    -43302.05    95.039286 
   32950    217.86526    139.76684    131461.94   -40657.573    2655.4577   -43313.031    95.034249 
   33000    214.86512    55.218764    131673.11   -40645.791    2618.8904   -43264.682    95.250863 
   33050    217.40732   0.23050696    131713.44   -40631.106    2649.8762   -43280.982    95.409357 
   33100    213.67525   -7.1080099    131679.62   -40688.758    2604.3876   -43293.146    95.649249 
   33150    218.45346   -59.247744    131637.39   -40641.344    2662.6271   -43303.971    96.048241 
   33200    216.03237   -45.809669    131556.55   -40670.094    2633.1176   -43303.212    96.137073 
   33250     220.8632   -43.154151    131611.58   -40668.019    2691.9983   -43360.017    96.285729 
   33300    209.47724    142.19425    131598.59   -40722.999    2553.2201   -43276.219    96.282787 
   33350    211.97396   -137.18916    131558.05   -40729.262    2583.6514   -43312.914     96.39922 
   33400    210.61315   -81.028672    131515.07   -40738.533    2567.0652   -43305.598    96.377427 
   33450    214.34471   -28.406125    131487.01   -40676.115    2612.5474   -43288.662    96.793629 
   33500    215.00372    76.118994    131606.43   -40658.926    2620.5798   -43279.506     96.77292 
   33550    213.77029   -8.4096592    131550.66   -40685.071    2605.5461   -43290.617    96.762096 
   33600    220.86545   -61.440955     131644.6   -40638.475    2692.0257   -43330.501    96.964809 
   33650    214.59649    49.141021    131674.95   -40662.634    2615.6162    -43278.25    97.254251 
   33700    215.07521    89.750843    131732.27   -40610.945    2621.4512   -43232.397    97.266209 
   33750    215.90519    103.37503    131717.74   -40617.275    2631.5674   -43248.842    97.503812 
   33800    218.01356   -57.476872    131643.57   -40614.447    2657.2654   -43271.712    97.680537 
   33850    218.69845    53.080669    131749.25   -40626.218    2665.6132   -43291.831    97.875974 
   33900    213.35877    84.700156    131780.17   -40684.136    2600.5302   -43284.666    97.945321 
   33950    215.46266     -109.259    131792.84   -40667.931    2626.1736   -43294.104    98.146511 
   34000    215.38809    231.19689    131772.21   -40652.343    2625.2647   -43277.608    97.989174 
   34050    213.93531   -45.754747     131887.1   -40646.719    2607.5574   -43254.276    98.373267 
   34100    212.67551    -129.2419    131824.02   -40666.721    2592.2024   -43258.924    98.453703 
   34150     215.1831    27.134167    131700.98    -40678.47    2622.7661   -43301.236    98.571947 
   34200    209.75913   -69.210085    131606.37   -40656.819     2556.656   -43213.475    98.575107 
   34250    212.34398    21.041808    131729.21   -40670.756    2588.1615   -43258.917    98.605046 
   34300    212.79707    41.865129    131827.66   -40692.257     2593.684   -43285.941    98.558847 
   34350    215.78787   -34.612008    131780.68   -40661.753    2630.1374   -43291.891    98.737525 
   34400    216.58196    124.99008    131907.15   -40589.669    2639.8162   -43229.486    98.939787 
   34450     211.5701    44.715784    131900.93   -40609.527     2578.729   -43188.256    99.249473 
   34500    209.76577   -30.601884     131825.2   -40625.262    2556.7369   -43181.999    99.296857 
   34550    216.35208   -79.264306    131831.43   -40600.491    2637.0143   -43237.505    99.430072 
   34600    220.87812    7.7664813    131691.57   -40566.563    2692.1802   -43258.743    99.265084 
   34650    219.25762   -13.491421    131678.18   -40582.766    2672.4286   -43255.195    99.447729 
   34700    220.29995   -48.995686    131721.15   -40578.311     2685.133   -43263.444    99.586401 
   34750    219.28517   -118.80982    131577.61   -40605.791    2672.7643   -43278.555    100.09918 
   34800    219.73902    63.288615    131578.36   -40613.363    2678.2961   -43291.659    100.17936 
   34850    214.89582   -144.46485    131477.88   -40599.849    2619.2647   -43219.113    100.24063 
   34900    216.95474   -14.537838    131465.57   -40637.135    2644.3599   -43281.495    100.23344 
   34950    212.13639    81.207191    131474.04   -40667.088    2585.6312    -43252.72    100.51482 
   35000    218.09449    29.430793    131489.53   -40646.187    2658.2517   -43304.439    100.67632 
   35050    217.50388    11.395695    131505.22   -40704.148    2651.0531   -43355.201    100.65652 
   35100    214.86234   -93.821197    131444.76   -40683.757    2618.8566   -43302.614    100.94345 
   35150     216.3989   -101.21889    131336.95   -40680.068    2637.5849   -43317.653     101.0177 
   35200    219.11423    101.55738    131295.92   -40662.008    2670.6809   -43332.689    101.11481 
   35250    216.77503    80.088947    131483.69   -40674.041    2642.1695   -43316.211    101.44962 
   35300    215.38998    160.64905    131635.24   -40668.042    2625.2877    -43293.33     101.7035 
   35350    211.25583    59.742357    131754.46   -40684.013    2574.8985   -43258.912    101.87655 
   35400    218.04953   -24.921055    131828.31   -40651.368    2657.7038   -43309.072    102.21469 
   35450    213.94543   -162.53168    131881.61   -40726.992    2607.6808   -43334.673    102.13444 
   35500    215.30018   -153.62291     131686.5   -40711.559    2624.1932   -43335.752    101.94093 
   35550      213.328   -64.681012    131549.96   -40758.032    2600.1552   -43358.187    102.17161 
   35600    212.86936   -104.38577    131568.26   -40764.598     2594.565   -43359.163    102.23403 
   35650     213.5158    77.007484    131556.42    -40840.15    2602.4442   -43442.594    102.48196 
   35700    214.63525    47.065894    131662.82   -40796.795    2616.0887   -43412.884    102.63901 
   35750    213.66584    206.40873    131793.53   -40780.851     2604.273   -43385.124    102.81366 
   35800    214.06706    98.039487    132032.71   -40774.892    2609.1633   -43384.055    103.11951 
   35850    207.11873   -202.39261    131946.18   -40855.208    2524.4734   -43379.681    103.42769 
   35900    214.06628   -5.5518335    131729.08   -40822.899    2609.1537   -43432.052    103.21501 
   35950    214.87717   -26.965324    131715.04   -40787.114    2619.0373   -43406.151     103.3441 
   36000    217.46805   -60.159237    131641.66    -40776.66    2650.6163   -43427.276    103.45174 
   36050    210.92117    160.22906    131593.98   -40798.995    2570.8195   -43369.814    103.43027 
   36100    214.83738   -83.843553    131671.64   -40802.866    2618.5523   -43421.418    103.24144 
   36150    210.98324    90.303045    131669.58   -40811.965     2571.576   -43383.541    103.39708 
   36200     212.7681   -47.559438    131702.53   -40808.754    2593.3308   -43402.084    103.62982 
   36250    214.23709    49.486527    131769.29   -40755.571    2611.2357   -43366.806    103.66963 
   36300    216.93773   -65.912128    131938.56   -40751.842    2644.1525   -43395.995    103.99935 
   36350     215.4046   -21.390947    131904.26   -40778.114    2625.4659    -43403.58    104.11959 
   36400    207.63003   -119.55544    131904.94   -40793.683    2530.7054   -43324.389    104.34483 
   36450    211.14285    80.935011    131792.92   -40783.628    2573.5214   -43357.149    104.38606 
   36500    211.05967   -53.737055    131799.22   -40815.319    2572.5077   -43387.827    104.46675 
   36550    211.50929   -51.413878    131872.71   -40763.667    2577.9878   -43341.655    104.69204 
   36600    209.45191    29.193152    131807.34   -40739.172    2552.9114   -43292.084    105.07228 
   36650    213.37763    63.500557    131883.71   -40749.222    2600.7602   -43349.982    105.24655 
   36700    213.65302    97.108948    131829.26   -40728.383    2604.1168     -43332.5    105.26043 
   36750    217.22753   -108.68316     131809.6   -40728.303    2647.6848   -43375.988    105.41367 
   36800    215.17266    7.5013299    131711.26   -40745.971    2622.6389    -43368.61    105.41542 
   36850    218.34795    -31.39809    131803.22   -40667.366     2661.341   -43328.707    105.45454 
   36900    215.54678    36.719926    131823.97   -40724.333    2627.1989   -43351.532    105.74962 
   36950    216.85016   -53.933568    131825.92   -40629.353    2643.0852   -43272.438     105.9249 
   37000    218.09877   -77.360812    131792.18   -40619.227    2658.3039   -43277.531    106.13513 
   37050    215.03709     27.83272    131785.74   -40689.401    2620.9865   -43310.387    106.35522 
   37100     210.3796   -96.417933    131586.32   -40715.731    2564.2185   -43279.949    106.49457 
   37150    212.21543    19.917447    131446.35   -40721.802    2586.5946   -43308.397    106.63565 
   37200    217.64322   -120.69592    131558.79   -40669.526    2652.7514   -43322.277    106.97394 
   37250    215.50233    12.367448    131579.86   -40705.701    2626.6571   -43332.358    107.10934 
   37300    214.38019    79.043398    131581.62   -40695.699    2612.9798   -43308.679     107.1992 
[...]
  191000    214.54273    86.800255    132340.83   -40833.545     2614.961   -43448.506    547.96915 
  191050    214.77613   -41.014375     132302.4   -40787.551    2617.8058   -43405.357    547.99454 
  191100     209.6564   -6.2586174    132322.53   -40848.615    2555.4038   -43404.019    548.40805 
  191150    213.67604   -134.24496    132192.24   -40844.664    2604.3973   -43449.061    548.06326 
  191200    210.76973    44.543375    132286.43   -40814.844    2568.9737   -43383.818    548.30263 
  191250    215.84382    57.453153    132225.03   -40812.898    2630.8193   -43443.717    548.24369 
  191300    211.67834   -187.01188    132214.34   -40782.077    2580.0483   -43362.125    548.22419 
  191350    213.87895   -14.299481    132180.05   -40803.846    2606.8705   -43410.716    548.06249 
  191400    213.14504    17.717102    132179.48   -40822.697    2597.9252   -43420.622     548.2199 
  191450    216.63475    20.946956    132130.39    -40800.38    2640.4597    -43440.84    548.27015 
  191500     214.7487   -51.280321    132118.51   -40784.687    2617.4714   -43402.158    548.34576 
  191550    217.34658    26.759673    132175.92   -40764.957    2649.1358   -43414.093    548.83101 
  191600    211.69821    123.48952    132058.19   -40791.185    2580.2905   -43371.476     548.3034 
  191650    217.93191    87.478896    132158.38   -40766.314    2656.2702   -43422.584    548.89823 
  191700    219.33736    77.853672    132343.16   -40740.653    2673.4005   -43414.054    549.48602 
  191750    213.54932    23.286187    132450.55   -40762.859    2602.8527   -43365.712    549.31859 
  191800    213.43617   -159.26238    132161.29   -40750.758    2601.4736   -43352.231    548.57443 
  191850    215.28153   -58.950503    132126.24   -40727.434    2623.9659     -43351.4    548.65997 
  191900    217.24667   -178.30183     132038.8   -40722.668     2647.918   -43370.586    548.89037 
  191950    215.21869    -169.9067     131849.4   -40766.357    2623.1999   -43389.557    548.35548 
  192000    213.50555    223.97588    131892.62   -40782.698    2602.3193   -43385.018    548.65049 
  192050    218.16062     2.564895     132132.9   -40752.702    2659.0578   -43411.759    549.83049 
  192100    214.66745   -54.783017     132158.8   -40743.607    2616.4811   -43360.088    549.81477 
  192150    214.84544    -31.86607    132066.08   -40751.801    2618.6506   -43370.452    550.16025 
  192200    216.28436   -32.992872    131970.02   -40727.211    2636.1889     -43363.4    550.16068 
  192250    215.79834    59.726444    131865.58    -40724.66     2630.265   -43354.925    549.58869 
  192300    213.67966    1.4266414     131831.8   -40754.081    2604.4414   -43358.522    549.64421 
  192350    211.77546   -33.457062    131804.61   -40777.046    2581.2321   -43358.278    550.16055 
  192400    215.74383    151.77304    131936.04   -40763.908    2629.6006   -43393.508    550.49249 
  192450    213.46738    30.524391    131863.35   -40765.592    2601.8541   -43367.446    550.17533 
  192500    209.47624     85.57232    131802.19   -40826.045    2553.2079   -43379.252    549.89474 
  192550    210.73374   -104.96932    131807.69    -40810.53     2568.535   -43379.065    550.23217 
  192600    210.82434   -125.38806    131767.01   -40769.048    2569.6393   -43338.688    550.44664 
  192650    214.28679    165.46386    131747.88   -40760.797    2611.8414   -43372.639    550.08048 
  192700    219.26521   -71.188217    131720.38   -40715.381    2672.5211   -43387.902    550.17296 
  192750    213.96515   -63.495379    131637.93   -40761.912    2607.9212   -43369.833    549.67326 
  192800    210.69929    124.74709    131694.27   -40768.881    2568.1151   -43336.996    549.82725 
  192850    213.84037   -75.235331    131665.64   -40739.442    2606.4003   -43345.842    549.78791 
  192900    215.84022    134.81307    131646.83   -40702.247    2630.7755   -43333.023    550.23813 
  192950    215.39951   -120.80418     131693.8   -40694.286    2625.4039    -43319.69    550.61499 
  193000    213.61809    32.014336     131582.2   -40752.489     2603.691    -43356.18    550.92135 
  193050    216.72554    19.714669    131473.52   -40749.732    2641.5663   -43391.299    550.15352 
  193100    218.25932       158.75    131593.25   -40731.545    2660.2608   -43391.806    550.70574 
  193150     212.6012    201.35706    131830.08   -40777.908    2591.2966   -43369.205     551.1458 
  193200    216.48158    139.48035    131953.36   -40773.125    2638.5928   -43411.718    552.07795 
  193250    210.70305    70.688698    132001.58   -40784.569     2568.161    -43352.73    552.48286 
  193300    211.93898     162.0615    132082.84   -40787.056     2583.225   -43370.281    552.38391 
  193350    215.34507   -21.401726    132131.97   -40781.894    2624.7403   -43406.635    553.30815 
  193400    213.73641   -158.95945    132101.36   -40743.672    2605.1331   -43348.805    552.95893 
  193450    217.88575    149.39378    132172.18   -40767.164    2655.7075   -43422.872    553.32702 
  193500    215.37011   -33.613151    132144.89   -40764.301    2625.0455   -43389.346     553.1935 
  193550    210.33139   -115.00275    132200.12   -40819.792     2563.631   -43383.423    553.56527 
  193600    208.91073   -15.968466    132186.46   -40833.979    2546.3151   -43380.294    553.81267 
  193650    213.07525    116.38468    132167.47   -40825.935    2597.0746    -43423.01    553.73311 
  193700     215.3779   -191.46693    132210.56   -40793.759    2625.1405     -43418.9    553.73313 
  193750    215.73106    53.130799    132147.05   -40783.598     2629.445   -43413.043    553.76106 
  193800    218.36714   -55.560046    132186.25   -40786.855    2661.5749    -43448.43    553.95516 
  193850    212.67532    25.307161    132144.86   -40791.763    2592.2001   -43383.963    553.82315 
  193900    212.47797   -27.310701    132005.89   -40858.965    2589.7946    -43448.76    554.05905 
  193950    210.89459   -26.654223    131945.91    -40872.28    2570.4955   -43442.775    554.20248 
  194000    213.67615    -27.69433    131932.11   -40828.053    2604.3986   -43432.452    554.38448 
  194050    213.62711    44.319433    131920.96   -40803.981    2603.8009   -43407.782    554.55468 
  194100    212.83238    12.608342    131983.92   -40830.726    2594.1143    -43424.84    554.90011 
  194150    214.60978   -55.654564    131938.79   -40835.082    2615.7783   -43450.861    555.41539 
  194200    211.55296    24.900681    131922.99   -40874.837    2578.5201   -43453.357    555.78237 
  194250    210.91524   -33.752495    131981.37   -40890.836    2570.7473   -43461.583    555.76455 
  194300    212.27858    9.7551074    132032.51   -40833.384    2587.3644   -43420.749    555.81497 
  194350     213.3927   -37.729415    131940.58   -40843.674    2600.9438   -43444.618    555.39104 
  194400     211.3172   -39.362544     131909.9   -40857.341    2575.6465   -43432.988    555.52817 
  194450    215.13056    94.349579    131865.81   -40769.661    2622.1258   -43391.787    555.98014 
  194500    213.13428    68.201097       131928   -40799.166     2597.794    -43396.96    556.14938 
  194550    215.54497    24.792932    132002.38     -40761.6    2627.1768   -43388.777    556.08099 
  194600    216.50564    33.405779    132039.17   -40719.391     2638.886   -43358.277    556.42345 
  194650    213.83565   -125.04837    131951.46   -40759.431    2606.3427   -43365.774    556.39293 
  194700    216.07037    111.24034     131952.6   -40749.691    2633.5807   -43383.271     556.9021 
  194750    210.41841   -175.91151    131841.66   -40780.281    2564.6916   -43344.973    556.69533 
  194800    212.37636   -45.776336    131770.37   -40790.394    2588.5561    -43378.95    557.10064 
  194850    211.89023    196.96028     131899.4   -40769.661    2582.6309   -43352.292    557.24648 
  194900    215.73586    18.028836     131902.6   -40712.507    2629.5035    -43342.01    556.79104 
  194950    213.82282   -57.109193    131946.42   -40761.808    2606.1864   -43367.994    557.23859 
  195000    216.24234    77.219251    132014.74   -40754.618    2635.6768   -43390.295    557.59019 
  195050    211.59695   -4.3618719    132062.42    -40796.45    2579.0563   -43375.507    558.09779 
  195100    216.09504    27.230936    132040.05   -40814.321    2633.8814   -43448.202    558.00407 
  195150     211.5925    10.629878    132007.99   -40793.658     2579.002    -43372.66    557.26873 
  195200    211.66452     66.49652    131943.82   -40764.891    2579.8798   -43344.771     557.5437 
  195250    213.22293   -20.496047    131912.98   -40772.106    2598.8746   -43370.981     557.9299 
  195300     214.7911   -6.7234725    131891.86   -40743.864    2617.9882   -43361.853    558.23641 
  195350    215.04064   -145.65345     131895.9   -40714.671    2621.0298   -43335.701    558.05721 
  195400    218.53149    9.7393253    131803.15    -40681.79    2663.5782   -43345.369    558.14638 
  195450    216.60326   -31.675316    131777.12   -40661.619    2640.0759   -43301.695    558.20632 
  195500    220.54614    13.474389    131822.06   -40626.852    2688.1338   -43314.985    558.35789 
  195550    217.26842    8.7205049    131846.08   -40651.163    2648.1832   -43299.346    558.86672 
  195600    217.72947    35.370304    131741.05   -40641.798    2653.8027     -43295.6     558.7574 
  195650    219.45548   -2.9386108    131741.18   -40683.383    2674.8402   -43358.223    558.29738 
  195700    211.66371    76.419522    131629.05    -40693.36      2579.87    -43273.23    558.02502 
  195750    212.74042   -12.574835    131694.51   -40707.576    2592.9935    -43300.57    558.47885 
  195800    216.55168    139.88085    131715.09   -40692.409    2639.4471   -43331.856    558.39028 
  195850    215.28484   -99.194842       131683   -40728.727    2624.0063   -43352.733    558.48827 
  195900    217.42957    110.92263     131718.9   -40728.081    2650.1473   -43378.228    558.95565 
  195950     209.6503    -122.2342    131585.39   -40766.279    2555.3295   -43321.609     558.5996 
  196000    212.73946    82.318397    131553.74   -40800.434    2592.9818   -43393.416    558.61575 
  196050    213.92117    53.088382    131585.82   -40754.607    2607.3851   -43361.992    558.68467 
  196100    213.98607   -55.574252    131690.27    -40763.08    2608.1762   -43371.257     559.1516 
  196150    209.94006   -14.015776    131433.25   -40806.419    2558.8612   -43365.281    558.12298 
  196200    211.24083    168.18106    131523.32   -40744.587    2574.7157   -43319.303    558.94033 
  196250    211.23126    17.600628    131614.45   -40785.039    2574.5991   -43359.638    559.52196 
  196300    213.01136    -89.88722    131557.03   -40778.646    2596.2959   -43374.942    559.74975 
  196350     214.0816   -92.620191    131388.25   -40763.318    2609.3405   -43372.658    559.59764 
  196400     211.5521    3.6998145    131214.19   -40770.449    2578.5097   -43348.959    559.02044 
  196450    211.92667   -165.15721    131148.15   -40741.665     2583.075    -43324.74    558.85365 
  196500    212.79006    2.6055267    131160.33   -40733.822    2593.5986    -43327.42    559.79059 
  196550    211.59444    160.90536     131220.8   -40662.924    2579.0256    -43241.95    560.04799 
  196600    213.39031     41.64192    131359.98   -40693.279    2600.9146   -43294.193    560.65558 
  196650    220.34374   -64.905261     131365.4   -40688.398    2685.6668   -43374.065    561.14642 
  196700    211.37099    182.88338    131435.35   -40727.615    2576.3021   -43303.917     561.5128 
  196750    215.77705    9.1241492    131530.58   -40717.522    2630.0055   -43347.528    561.77144 
  196800    217.41186   -219.45389    131453.28   -40730.226    2649.9315   -43380.158     561.7994 
  196850    213.46333   -106.92169    131346.08   -40689.856    2601.8047    -43291.66    561.45628 
  196900    216.16869   -58.590117    131400.04   -40689.491    2634.7791    -43324.27    561.63791 
  196950    215.05344   -23.919044    131355.71   -40649.874    2621.1858    -43271.06    561.62953 
  197000    211.42859   -46.720841    131458.44   -40635.101    2577.0042   -43212.105    561.91578 
  197050    214.45696    4.3674201    131370.11    -40644.78    2613.9155   -43258.696    562.07058 
  197100    221.82682    57.509375    131439.78   -40597.028    2703.7433   -43300.771    562.06803 
  197150    219.74692   -32.177997    131432.71    -40596.83    2678.3925   -43275.222    562.09271 
  197200     218.6807     61.67918    131492.17   -40621.818    2665.3967   -43287.215    562.17876 
  197250    218.13172   -69.087713    131463.51   -40625.556    2658.7055   -43284.261    562.12855 
  197300    212.77052   -44.359326    131473.56   -40669.368    2593.3603   -43262.728    561.94876 
  197350    213.31664    14.495995    131464.24   -40643.433    2600.0168    -43243.45    561.80236 
  197400    218.39231   -135.75615     131398.8   -40623.509    2661.8817   -43285.391    562.16072 
  197450    214.63883    30.393204    131329.53   -40677.074    2616.1323   -43293.207    561.78651 
  197500    219.29974    62.534124     131499.3   -40637.775    2672.9419   -43310.717    562.40778 
  197550    212.45123    63.138608    131556.34   -40691.834    2589.4687   -43281.303    562.25953 
  197600    212.49882    126.42717    131635.23   -40688.901    2590.0487    -43278.95    563.27931 
  197650     213.0815   -51.750192    131650.58   -40706.566    2597.1507   -43303.716    563.63331 
  197700    208.49566   -227.70898    131457.98   -40730.375    2541.2561   -43271.631    563.22059 
  197750    212.26094    82.119083    131487.07   -40771.759    2587.1493   -43358.908    563.27046 
  197800    212.26281    181.66437    131596.91   -40766.026    2587.1721   -43353.198    563.21747 
  197850    214.26898    68.163207       131690   -40795.205    2611.6244   -43406.829    563.58933 
  197900    213.61863    25.701264    131640.24   -40802.183    2603.6976   -43405.881    563.59808 
  197950    213.59484    76.061011    131418.86   -40798.979    2603.4076   -43402.387     563.2916 
  198000    210.67097   -3.8019147    131470.94   -40777.597    2567.7699   -43345.367    563.36251 
  198050    215.78901    76.375907    131436.46   -40816.639    2630.1513    -43446.79     563.3973 
  198100    213.53905     221.9915    131592.21   -40722.841    2602.7277   -43325.569    563.79716 
  198150    209.45992    83.742218    131657.37   -40755.198     2553.009   -43308.207    564.44233 
  198200    209.10761    6.1258174     131774.2   -40798.777    2548.7149   -43347.492    564.90149 
  198250    209.87842   -148.11139    131843.42   -40803.145    2558.1099   -43361.255    564.83284 
  198300    208.56661    73.230399    131668.04   -40807.333    2542.1209   -43349.454    564.94119 
  198350    209.61963   -28.670379    131662.38   -40780.255    2554.9556   -43335.211    564.98247 
  198400    209.90684   -26.900525    131582.95   -40752.707    2558.4563   -43311.163    564.61441 
  198450    212.15132   -62.898797    131603.21   -40746.068    2585.8133   -43331.882    565.02852 
  198500    210.39169    27.409433    131579.73   -40804.271     2564.366   -43368.637    564.95498 
  198550    210.44967   -25.514956     131693.2    -40784.51    2565.0726   -43349.583    565.68099 
  198600    214.70235     91.90479    131740.94   -40740.692    2616.9065   -43357.598    565.91774 
  198650    214.91381    48.124758    131741.18   -40768.539    2619.4839   -43388.023    565.93115 
  198700    209.61826    60.961575    131770.24   -40775.157    2554.9389   -43330.096    565.88933 
  198750    213.30462    66.588392    131785.44   -40732.496    2599.8702   -43332.366    566.12461 
  198800    212.04347    9.4457963    131766.71   -40768.955    2584.4986   -43353.453    565.83959 
  198850    214.69698    142.30648    131828.12   -40698.792    2616.8411   -43315.633    566.60864 
  198900    213.80939   -10.813969    131913.27   -40695.869    2606.0226   -43301.891    566.90168 
  198950     215.7442   -65.119289    131866.73   -40703.618    2629.6052   -43333.223    566.73915 
  199000    212.07735    182.33346    131932.63   -40686.217    2584.9116   -43271.128     566.9888 
  199050    214.29918   -83.277153    131939.41   -40719.608    2611.9924   -43331.601    567.25785 
  199100    211.41611    66.991095    131862.42   -40749.424    2576.8521   -43326.276    567.13869 
  199150    206.24964    88.590463    131850.59   -40810.955    2513.8804   -43324.836    566.99491 
  199200    213.05668   -106.82635    131873.93   -40779.788    2596.8482   -43376.636    567.12001 
  199250    214.68168   -48.720839    131848.22   -40736.609    2616.6545   -43353.263    567.40414 
  199300    211.25133    83.594169    131933.14   -40698.842    2574.8436   -43273.685    567.66983 
  199350    215.64008   -81.018961     131949.9   -40738.502    2628.3361   -43366.838     567.5612 
  199400    213.60624     68.29643    132005.39   -40732.265    2603.5465   -43335.812    568.21944 
  199450    213.93079    54.618735    132065.34   -40726.192    2607.5023   -43333.694    568.77371 
  199500    213.15234   -29.656018    132037.81   -40723.062    2598.0142   -43321.076    569.35525 
  199550    209.84368   -108.93911     131899.6   -40761.743    2557.6865    -43319.43    568.93228 
  199600    219.27344   -116.38382    131868.12   -40719.953    2672.6214   -43392.574    568.50189 
  199650    213.97541     156.7234    131952.48   -40667.082    2608.0462   -43275.128    569.42335 
  199700    215.50204    60.591266    131893.46   -40678.669    2626.6536   -43305.323    569.51609 
  199750    213.66197   -215.52057     131831.1   -40666.471    2604.2258   -43270.697    569.26827 
  199800    218.45881   -44.598777    131674.42   -40652.275    2662.6923   -43314.967    568.49726 
  199850     215.6336    108.39568    131775.66   -40645.156    2628.2571   -43273.413    568.56396 
  199900    214.19042   -186.71013    131679.64   -40633.448    2610.6669   -43244.115    568.78024 
  199950    210.66402   -103.40684    131502.84   -40642.991    2567.6852   -43210.676    568.27137 
  200000    213.22622  -0.70153459    131580.69   -40609.617    2598.9146   -43208.532    568.48855 
Loop time of 350.084 on 12 procs for 200000 steps with 4090 atoms

Performance: 246.798 ns/day, 0.097 hours/ns, 571.292 timesteps/s
99.0% CPU use with 12 MPI tasks x no OpenMP threads

MPI task timing breakdown:
Section |  min time  |  avg time  |  max time  |%varavg| %total
---------------------------------------------------------------
Pair    | 235.41     | 277.05     | 317.82     | 172.0 | 79.14
Neigh   | 6.1248     | 7.0657     | 7.9128     |  23.9 |  2.02
Comm    | 17.265     | 58.535     | 100.65     | 378.2 | 16.72
Output  | 0.15655    | 0.18477    | 0.48268    |  20.9 |  0.05
Modify  | 5.4702     | 5.7587     | 6.2036     |  11.5 |  1.64
Other   |            | 1.493      |            |       |  0.43

Nlocal:    340.833 ave 368 max 291 min
Histogram: 1 2 1 0 0 0 0 0 4 4
Nghost:    961.583 ave 993 max 919 min
Histogram: 3 1 0 0 0 0 1 3 1 3
Neighs:    0 ave 0 max 0 min
Histogram: 12 0 0 0 0 0 0 0 0 0
FullNghs:  11129.5 ave 12206 max 9237 min
Histogram: 1 2 1 0 0 0 0 1 3 4

Total # of neighbors = 133554
Ave neighs/atom = 32.6538
Neighbor list builds = 11814
Dangerous builds = 0

write_data		${DIR}/data.eq-${NAME}-${TEMP}
write_data		run_2/data.eq-${NAME}-${TEMP}
write_data		run_2/data.eq-hardcavity_freeze_nvt_2-${TEMP}
write_data		run_2/data.eq-hardcavity_freeze_nvt_2-215
undump          1

reset_timestep  0

unfix           2
unfix           3
unfix           4


################################################
#######         Run Simulation         #########
################################################

log				${DIR}/log.run_${NAME}
log				run_2/log.run_${NAME}
log				run_2/log.run_hardcavity_freeze_nvt_2
