
### Dimensions ###


### IMPORT ATOMS ###
read_data ../Box_Setup/data.Ibeam_240K
Reading data file ...
  orthogonal box = (0.0000000 0.0000000 0.0000000) to (157.50400 36.487659 45.872046)
  10 by 2 by 5 MPI processor grid
  reading atoms ...
  9436 atoms
  reading velocities ...
  9436 velocities
  read_data CPU = 0.030 seconds
group water type 2
2716 atoms in group water
group graphite type 1
6720 atoms in group graphite


# Define potential
#
pair_style          sw
pair_coeff * * MLC_e.sw C mW

# Add velocity/set timestep
#

fix		1 graphite setforce 0.0 0.0 0.0
velocity 	graphite set 0.0 0.0 0.0
velocity            water create ${START_TEMP} ${SEED} rot yes dist gaussian
velocity            water create 240 ${SEED} rot yes dist gaussian
velocity            water create 240 30375 rot yes dist gaussian
timestep            5.0

# Define output
#
compute 1 water msd
compute 2 water temp


thermo	            100
thermo_style custom step c_2 press vol etotal ke pe c_1[4] density

# Neighbor lists
#
neigh_modify        delay 0 every 1 check yes


# Set fixes
#
fix                 2 water momentum 10 linear 1 1 1 rescale
fix                 3 all nve
fix                 4 water temp/csvr ${START_TEMP} ${START_TEMP} 500.0 928347
fix                 4 water temp/csvr 240 ${START_TEMP} 500.0 928347
fix                 4 water temp/csvr 240 240 500.0 928347

# Run 0.05 ns equilibration
#
dump                1 all custom 100 ${DIR}/eq.${NAME}.dump id type x y z vx vy vz
dump                1 all custom 100 run_2/eq.${NAME}.dump id type x y z vx vy vz
dump                1 all custom 100 run_2/eq.ibeam_cooling_2.dump id type x y z vx vy vz
run                 10000
Neighbor list info ...
  update every 1 steps, delay 0 steps, check yes
  max neighbors/atom: 2000, page size: 100000
  master list distance cutoff = 6.6747184
  ghost atom cutoff = 6.6747184
  binsize = 3.3373592, bins = 48 11 14
  1 neighbor lists, perpetual/occasional/extra = 1 0 0
  (1) pair sw, perpetual
      attributes: full, newton on
      pair build: full/bin/atomonly
      stencil: full/bin/3d
      bin: standard
Per MPI rank memory allocation (min/avg/max) = 3.593 | 4.303 | 4.780 Mbytes
Step c_2 Press Volume TotEng KinEng PotEng c_1[4] Density 
       0          240   -384.81349    263624.46   -25860.227    1942.2958   -27802.523            0   0.81656126 
     100    232.01091   -364.17024    263624.46     -25856.5    1877.6409   -27734.141   0.82570879   0.81656126 
     200    240.32779   -263.31179    263624.46   -25861.609    1944.9486   -27806.558    1.2113746   0.81656126 
     300    235.85797   -204.48669    263624.46    -25840.69    1908.7748   -27749.465    1.6639169   0.81656126 
     400    242.69742   -326.50613    263624.46   -25824.825    1964.1257   -27788.951    2.0532599   0.81656126 
     500    234.07068   -391.02811    263624.46   -25800.104    1894.3104   -27694.414    2.4711638   0.81656126 
     600     243.6512   -264.79001    263624.46   -25720.063    1971.8446   -27691.907    2.8967467   0.81656126 
     700    243.49927   -250.12666    263624.46   -25728.831    1970.6151   -27699.446    3.3150473   0.81656126 
     800    243.19627   -172.67937    263624.46   -25724.759    1968.1629   -27692.922    3.7967751   0.81656126 
     900    232.07583   -174.33201    263624.46   -25744.552    1878.1663   -27622.719    4.3471386   0.81656126 
    1000    242.12781   -211.21108    263624.46   -25766.325     1959.516   -27725.841    4.8706053   0.81656126 
    1100    238.90418   -349.74884    263624.46   -25738.196    1933.4274   -27671.624    5.2999364   0.81656126 
    1200    243.01821   -376.47599    263624.46   -25738.366    1966.7219   -27705.088    5.7083366   0.81656126 
    1300    242.14007    -367.3736    263624.46   -25676.972    1959.6152   -27636.588    6.3027036   0.81656126 
    1400    242.92351   -202.13372    263624.46   -25714.315    1965.9555    -27680.27    6.7068541   0.81656126 
    1500    241.74621   -306.60628    263624.46   -25753.287    1956.4277   -27709.715    6.9348989   0.81656126 
    1600    243.48913   -191.39098    263624.46   -25737.367     1970.533     -27707.9    7.1989702   0.81656126 
    1700    239.60384   -242.94836    263624.46   -25753.342    1939.0898   -27692.432    7.4233452   0.81656126 
    1800    241.63905   -39.010379    263624.46   -25720.592    1955.5605   -27676.152    7.7135768   0.81656126 
    1900    241.05438   -29.656282    263624.46   -25676.174    1950.8288   -27627.003    8.2088915   0.81656126 
    2000    244.52928   -271.61593    263624.46   -25645.406    1978.9509   -27624.356    8.6786036   0.81656126 
    2100    239.35586   -226.61614    263624.46   -25760.631    1937.0829   -27697.714    9.0059793   0.81656126 
    2200    245.92345   -305.77214    263624.46   -25716.744    1990.2337   -27706.978    9.3378102   0.81656126 
    2300    245.53426   -265.80857    263624.46   -25692.221    1987.0841   -27679.305    9.7768076   0.81656126 
    2400    237.54666    -154.9875    263624.46   -25690.391    1922.4412   -27612.832    10.207832   0.81656126 
    2500    240.70765   -322.04215    263624.46   -25721.413    1948.0227   -27669.436    10.691065   0.81656126 
    2600    236.66912   -259.30599    263624.46   -25742.799    1915.3394   -27658.138     11.30513   0.81656126 
    2700    240.53785    -418.7743    263624.46   -25736.442    1946.6486    -27683.09    11.740192   0.81656126 
    2800    242.61857   -366.15782    263624.46   -25679.676    1963.4877   -27643.164     12.42338   0.81656126 
    2900    237.81911   -101.53818    263624.46   -25679.168    1924.6461   -27603.815    12.823848   0.81656126 
    3000    244.95058   -52.480551    263624.46   -25677.895    1982.3603   -27660.256    13.286239   0.81656126 
    3100    243.65228   -130.83389    263624.46   -25663.158    1971.8533   -27635.012    13.297345   0.81656126 
    3200    238.66633    -455.9621    263624.46   -25723.902    1931.5025   -27655.405    13.610722   0.81656126 
    3300    238.85588   -312.51302    263624.46   -25801.679    1933.0366   -27734.715    13.930077   0.81656126 
    3400    240.69747   -325.99067    263624.46   -25749.549    1947.9404   -27697.489    14.234932   0.81656126 
    3500    237.28675   -268.25274    263624.46   -25743.996    1920.3378   -27664.334     14.65538   0.81656126 
    3600    236.61623   -241.07569    263624.46   -25735.433    1914.9113   -27650.344    15.131783   0.81656126 
    3700    247.91655     -238.242    263624.46   -25708.568    2006.3637   -27714.932    15.575343   0.81656126 
    3800    236.26336   -210.51536    263624.46   -25709.401    1912.0556   -27621.457    15.912108   0.81656126 
    3900    238.00626    -404.0137    263624.46   -25718.107    1926.1607   -27644.268    16.178061   0.81656126 
    4000    241.78831   -329.17847    263624.46   -25777.443    1956.7684   -27734.212    16.433353   0.81656126 
    4100    237.07283    -181.2321    263624.46    -25769.73    1918.6065   -27688.337     16.91692   0.81656126 
    4200     236.5106   -192.91152    263624.46   -25751.803    1914.0564    -27665.86    17.310076   0.81656126 
    4300    237.64012   -145.96429    263624.46   -25817.854    1923.1975   -27741.052    17.572632   0.81656126 
    4400    243.06028   -262.38013    263624.46   -25785.064    1967.0624   -27752.126    18.011705   0.81656126 
    4500    234.90491   -375.84036    263624.46   -25805.801    1901.0618   -27706.863    18.273418   0.81656126 
    4600     240.9183   -296.90409    263624.46    -25854.04    1949.7275   -27803.768    18.705967   0.81656126 
    4700    248.50956   -291.11998    263624.46   -25779.131    2011.1628   -27790.294    18.907143   0.81656126 
    4800    241.42178   -277.23404    263624.46   -25742.049    1953.8021   -27695.851    19.144706   0.81656126 
    4900    245.49416   -245.16135    263624.46   -25679.517    1986.7595   -27666.277    19.747271   0.81656126 
    5000    239.60185   -297.46061    263624.46   -25747.543    1939.0736   -27686.617    20.231789   0.81656126 
    5100    240.28392   -198.30388    263624.46   -25711.506    1944.5935     -27656.1    20.815821   0.81656126 
    5200    241.11982   -414.20535    263624.46   -25740.027    1951.3584   -27691.386    21.305043   0.81656126 
    5300    235.51497   -300.25255    263624.46   -25810.945    1905.9989   -27716.944    21.687774   0.81656126 
    5400    237.63345   -307.99237    263624.46   -25781.574    1923.1436   -27704.718    22.109962   0.81656126 
    5500     237.8989   -98.916759    263624.46   -25773.714    1925.2918   -27699.006    22.388815   0.81656126 
    5600    238.77681   -252.01708    263624.46   -25812.021    1932.3967   -27744.418    22.475156   0.81656126 
    5700    241.41389   -229.04246    263624.46   -25796.494    1953.7383   -27750.233    23.031486   0.81656126 
    5800    240.16058   -331.13075    263624.46   -25762.416    1943.5954   -27706.011    23.341965   0.81656126 
    5900    238.88543   -478.67976    263624.46   -25797.833    1933.2757   -27731.109    23.687883   0.81656126 
    6000    242.27591   -282.86638    263624.46   -25800.875    1960.7145   -27761.589     24.22799   0.81656126 
    6100    239.52927   -166.67486    263624.46   -25824.856    1938.4863   -27763.342    24.491684   0.81656126 
    6200    241.48956   -147.76114    263624.46    -25828.03    1954.3507    -27782.38     24.80102   0.81656126 
    6300    236.19338   -348.60105    263624.46   -25775.557    1911.4892   -27687.047    25.302803   0.81656126 
    6400    241.87546   -286.07384    263624.46   -25811.171    1957.4737   -27768.645     25.81006   0.81656126 
    6500    242.80096   -195.42279    263624.46    -25826.56    1964.9637   -27791.523    26.108941   0.81656126 
    6600     237.4467   -94.188575    263624.46   -25835.546    1921.6322   -27757.178    26.702719   0.81656126 
    6700    233.99506     -370.935    263624.46   -25872.288    1893.6984   -27765.987    26.980421   0.81656126 
    6800    235.48372   -226.00006    263624.46   -25856.738    1905.7461   -27762.484    27.204188   0.81656126 
    6900    239.85107   -320.95726    263624.46   -25807.738    1941.0905   -27748.829    27.664526   0.81656126 
    7000    240.37576   -224.48344    263624.46   -25802.145    1945.3368   -27747.482    28.106475   0.81656126 
    7100    236.17034   -185.64007    263624.46   -25802.841    1911.3028   -27714.144    28.344448   0.81656126 
    7200    236.07118   -404.81253    263624.46   -25879.388    1910.5003   -27789.888    28.745049   0.81656126 
    7300    235.17765   -245.81582    263624.46   -25924.397    1903.2691   -27827.666    29.078884   0.81656126 
    7400    237.39384   -275.91361    263624.46   -25855.148    1921.2044   -27776.353    29.351204   0.81656126 
    7500    238.16673   -241.44896    263624.46   -25818.622    1927.4593   -27746.081    29.598142   0.81656126 
    7600    244.73599   -440.65403    263624.46   -25768.793    1980.6238   -27749.417    30.035105   0.81656126 
    7700    243.21398   -246.03274    263624.46   -25798.833    1968.3063   -27767.139    30.616077   0.81656126 
    7800    236.46551   -327.04416    263624.46   -25868.441    1913.6915   -27782.133    30.931075   0.81656126 
    7900    241.89274   -162.76797    263624.46   -25845.806    1957.6135    -27803.42    31.098248   0.81656126 
    8000    240.86683   -117.71846    263624.46   -25794.382     1949.311   -27743.693    31.381089   0.81656126 
    8100    246.62906    -295.8853    263624.46   -25783.273    1995.9442   -27779.217    31.628237   0.81656126 
    8200    247.58141   -167.75245    263624.46   -25802.124    2003.6515   -27805.776    31.942674   0.81656126 
    8300    247.30709   -262.60847    263624.46    -25787.34    2001.4314   -27788.771    32.192573   0.81656126 
    8400    242.61063   -356.61373    263624.46   -25769.783    1963.4234   -27733.206    32.705956   0.81656126 
    8500    245.30008   -321.72107    263624.46   -25822.667    1985.1888   -27807.856    32.800603   0.81656126 
    8600    240.89037   -172.42531    263624.46   -25829.317    1949.5015   -27778.818    33.072778   0.81656126 
    8700     238.7841   -282.03838    263624.46   -25857.236    1932.4557   -27789.692    33.455147   0.81656126 
    8800    237.06171   -300.73197    263624.46   -25857.828    1918.5166   -27776.344    34.005064   0.81656126 
    8900    242.88822    1.1121153    263624.46   -25899.667    1965.6699   -27865.337    34.496884   0.81656126 
    9000    238.15249   -123.06957    263624.46   -25864.545    1927.3441   -27791.889    34.929872   0.81656126 
    9100    233.32007    -338.2947    263624.46   -25875.014    1888.2358   -27763.249    35.199814   0.81656126 
    9200    242.00831   -491.19247    263624.46   -25811.421    1958.5489    -27769.97    35.522822   0.81656126 
    9300    237.29973   -292.78406    263624.46   -25879.894    1920.4429   -27800.337    36.272021   0.81656126 
    9400    236.93297   -270.09216    263624.46   -25859.558    1917.4747   -27777.033    36.659562   0.81656126 
    9500    234.29946   -275.41008    263624.46   -25873.747    1896.1619   -27769.909    37.061738   0.81656126 
    9600    236.10673   -307.52648    263624.46   -25874.928     1910.788   -27785.716    37.183757   0.81656126 
    9700     242.0941    -265.3806    263624.46   -25850.236    1959.2431   -27809.479    37.277784   0.81656126 
    9800    242.14844   -244.81557    263624.46     -25798.8    1959.6829   -27758.483    37.544816   0.81656126 
    9900    240.92613    -285.2316    263624.46   -25816.742    1949.7909   -27766.533    38.022089   0.81656126 
   10000    248.02971   -188.91129    263624.46   -25813.258    2007.2795   -27820.537    38.319366   0.81656126 
Loop time of 31.0599 on 100 procs for 10000 steps with 9436 atoms

Performance: 139.086 ns/day, 0.173 hours/ns, 321.959 timesteps/s
97.6% CPU use with 100 MPI tasks x no OpenMP threads

MPI task timing breakdown:
Section |  min time  |  avg time  |  max time  |%varavg| %total
---------------------------------------------------------------
Pair    | 0.00049186 | 6.1697     | 27.358     | 358.3 | 19.86
Neigh   | 0.00043845 | 0.19765    | 0.84586    |  62.6 |  0.64
Comm    | 0.016548   | 9.62       | 26.107     | 337.2 | 30.97
Output  | 0.17782    | 0.17801    | 0.18503    |   0.2 |  0.57
Modify  | 0.3961     | 14.706     | 30.706     | 357.0 | 47.35
Other   |            | 0.188      |            |       |  0.61

Nlocal:        94.3600 ave         345 max           0 min
Histogram: 48 4 28 0 0 0 0 0 0 20
Nghost:        627.790 ave        1206 max           0 min
Histogram: 24 0 0 8 7 1 34 2 8 16
Neighs:         0.00000 ave           0 max           0 min
Histogram: 100 0 0 0 0 0 0 0 0 0
FullNghs:      9242.68 ave       42891 max           0 min
Histogram: 64 16 0 0 0 0 0 0 7 13

Total # of neighbors = 924268
Ave neighs/atom = 97.951251
Neighbor list builds = 587
Dangerous builds = 0
write_data 	    ${DIR}/data.${NAME}_eq
write_data 	    run_2/data.${NAME}_eq
write_data 	    run_2/data.ibeam_cooling_2_eq
System init for write_data ...

undump              1
unfix               4



################################################
#######         Run Simulation         #########
################################################

reset_timestep      0
timestep	    10.0
log                 ${DIR}/log.run_${NAME}
log                 run_2/log.run_${NAME}
log                 run_2/log.run_ibeam_cooling_2
