
# Set production fixes - Nose/Hoover
#
fix                 4 water temp/csvr ${START_TEMP} ${END_TEMP} 500.0 928347
fix                 4 water temp/csvr 240 ${END_TEMP} 500.0 928347
fix                 4 water temp/csvr 240 227 500.0 928347


## divide "droplet" into core and surface
#region		core_reg cylinder z 135 135 44.6 20 INF units box
#region		surface_reg cylinder z 135 135 44.6 20 INF units box side out
#group		core dynamic all region core_reg
#group		surface dynamic all region surface_reg

## compute pressure core
#compute        peratom_core core stress/atom NULL
#compute        p_core core reduce sum c_peratom_core[1] c_peratom_core[2] c_peratom_core[3]
#variable       press_core equal -(c_p_core[1]+c_p_core[2]+c_p_core[3])/(3*1249982.5)


## compute pressure surface
#compute        peratom_surf surface stress/atom NULL
#compute        p_surf surface reduce sum c_peratom_surf[1] c_peratom_surf[2] #c_peratom_surf[3]
#variable       press_surf equal -(c_p_surf[1]+c_p_surf[2]+c_p_surf[3])/(3*42395)

## compute total pressure of drop
compute        peratom water stress/atom NULL
compute        p water reduce sum c_peratom[1] c_peratom[2] c_peratom[3]
variable       press equal -(c_p[1]+c_p[2]+c_p[3])/(3*58301)


# compute order parameter
compute        3 all orientorder/atom nnn NULL cutoff 3.5

# compute center of mass of bridge
compute 	4 water com

# Run simulation
thermo_style        custom step c_2 press vol etotal ke pe v_press c_1[4] c_4[*]
thermo              200
dump		     1 water custom 400 ${DIR}/prod.${NAME}.dump id type x y z vx vy vz c_3[*] c_peratom[*]
dump		     1 water custom 400 run_12/prod.${NAME}.dump id type x y z vx vy vz c_3[*] c_peratom[*]
dump		     1 water custom 400 run_12/prod.ibeam_cooling_12.dump id type x y z vx vy vz c_3[*] c_peratom[*]
run                 ${STEPS}
run                 5200000
Neighbor list info ...
  update every 1 steps, delay 0 steps, check yes
  max neighbors/atom: 2000, page size: 100000
  master list distance cutoff = 6.67472
  ghost atom cutoff = 6.67472
  binsize = 3.33736, bins = 48 11 12
  2 neighbor lists, perpetual/occasional/extra = 1 1 0
  (1) pair sw, perpetual
      attributes: full, newton on
      pair build: full/bin/atomonly
      stencil: full/bin/3d
      bin: standard
  (2) compute orientorder/atom, occasional, copy from (1)
      attributes: full, newton on
      pair build: copy
      stencil: none
      bin: none
Per MPI rank memory allocation (min/avg/max) = 0.8541 | 6.009 | 7.259 Mbytes
Step c_2 Press Volume TotEng KinEng PotEng v_press c_1[4] c_4[1] c_4[2] c_4[3] 
       0    244.80981   -226.09428    229018.04   -21120.035    1621.4635   -22741.498   -388.73774    33.818676    78.594127    15.913968    29.621646 
     200    236.69126   -395.23044    229018.04   -21184.525    1567.6914   -22752.216   -1075.0041    35.291825    78.594743    15.914928    29.614219 
     400    231.30772   -226.85601    229018.04   -21187.482    1532.0343   -22719.516   -430.61202    36.410235    78.596491    15.914946    29.624227 
     600    228.36055   -326.11206    229018.04   -21293.805    1512.5141   -22806.319   -810.29476    37.180019    78.595902    15.915381     29.63698 
     800    234.11913   -289.64351    229018.04   -21276.044    1550.6553   -22826.699   -664.55628    38.636574    78.595545    15.918229    29.652537 
    1000    243.61947   -238.85592    229018.04   -21148.292    1613.5795   -22761.872   -453.42717    39.950176    78.594808     15.92003    29.684516 
    1200    237.11963    -218.7305    229018.04   -21226.937    1570.5287   -22797.466   -359.51776    40.327861    78.595301    15.920754    29.696761 
    1400    247.88409   -312.91533    229018.04   -21124.886    1641.8256   -22766.712   -745.97395    41.736625    78.594403    15.923333    29.692259 
    1600    237.67821   -174.05814    229018.04   -21128.497    1574.2283   -22702.725   -155.78562    42.736651    78.592122    15.921589    29.691735 
    1800    233.29492   -214.62701    229018.04   -21168.277    1545.1962   -22713.473   -337.78101    44.779102    78.591334    15.921002    29.648314 
    2000    248.43551   -323.01588    229018.04   -21014.092    1645.4778    -22659.57    -730.4729     45.39939    78.590799    15.921763    29.619584 
    2200    240.97605   -391.00055    229018.04   -21028.138    1596.0711   -22624.209   -1021.2102    47.081023    78.589651    15.925544    29.619673 
    2400    241.16634   -273.23871    229018.04   -21046.788    1597.3315    -22644.12   -594.88636    48.506619        78.59    15.929485    29.624255 
    2600    236.49416    -194.6949    229018.04   -21079.541    1566.3859   -22645.927   -293.43022    50.846544    78.589502    15.931484    29.630742 
    2800    244.13733    -301.7177    229018.04    -21056.31    1617.0094   -22673.319   -669.02397    52.395125      78.5906       15.929    29.629373 
    3000    234.89433   -347.75252    229018.04   -21143.202    1555.7897   -22698.991   -834.96753    53.740793    78.590737    15.929235    29.647513 
    3200    233.37979   -230.72854    229018.04   -21144.566    1545.7584   -22690.325   -420.92864    55.618906    78.589449     15.92938    29.634404 
    3400    240.25004   -495.06662    229018.04    -21120.91    1591.2625   -22712.172   -1408.9272    58.202159    78.587799    15.931571    29.655671 
    3600     240.3478   -320.87818    229018.04   -21137.144      1591.91   -22729.054   -751.53312    58.089567    78.587888    15.931921    29.650162 
    3800    236.78646   -298.78261    229018.04   -21167.702     1568.322   -22736.024   -687.60832    60.176654    78.586022    15.932461    29.636758 
    4000    241.35452    -172.3597    229018.04   -21212.124    1598.5778   -22810.702   -174.39253    61.877162    78.585505    15.932809       29.646 
    4200    243.64235   -369.87038    229018.04    -21092.75     1613.731   -22706.481   -957.50113     63.61043    78.582604     15.93453    29.628819 
    4400    245.45267   -408.09692    229018.04    -21040.39    1625.7214   -22666.112    -1094.341    66.361059    78.581719    15.935714    29.602752 
    4600    241.81202   -337.19054    229018.04   -21141.087     1601.608   -22742.695    -806.3174    67.921067    78.580147    15.934863    29.589835 
    4800    240.55402   -264.78333    229018.04   -21102.672    1593.2759   -22695.948   -525.95483    69.201419    78.581309    15.935149    29.591388 
    5000    237.61703   -357.62944    229018.04    -21181.14    1573.8231   -22754.963   -919.65776    70.611491    78.582287    15.936635    29.590654 
    5200    240.00831   -252.27323    229018.04   -21135.426    1589.6614   -22725.087   -515.69469    71.861628    78.584522    15.937651    29.576831 
    5400    237.82613   -283.62474    229018.04   -21121.516     1575.208   -22696.724   -627.84773     74.02054    78.586371    15.937663    29.588958 
    5600    230.01588   -390.21938    229018.04   -21190.894     1523.478   -22714.372   -1027.6462    75.298973    78.585617    15.943631    29.599366 
    5800    250.91406   -162.39918    229018.04   -21026.537    1661.8942   -22688.431   -108.99256    75.744729    78.583025    15.944433    29.606725 
    6000    235.31613   -168.99187    229018.04   -21180.508    1558.5834   -22739.091   -179.67471    77.053207    78.583013    15.945559    29.617519 
    6200    237.29778   -321.37253    229018.04   -21097.791    1571.7086     -22669.5    -770.3196    78.504478    78.584935    15.945986    29.619672 
    6400    246.76114   -307.74176    229018.04   -21053.859    1634.3878   -22688.247   -704.75967    79.035227    78.585913      15.9448    29.634832 
    6600    244.16282   -269.06192    229018.04   -21133.535    1617.1783   -22750.714   -565.40819    81.584413    78.585236    15.945861    29.637524 
    6800     242.8572   -332.44361    229018.04   -21160.897    1608.5306   -22769.427   -832.95507     82.70439    78.586258    15.945657    29.638142 
    7000    236.03046   -255.30928    229018.04    -21234.54    1563.3147   -22797.855   -489.77912     82.77035    78.586721    15.949578    29.665193 
    7200    236.92386   -449.63836    229018.04   -21122.493     1569.232   -22691.725   -1274.5705    83.402733    78.586488    15.951442    29.648235 
    7400    237.65969   -209.91248    229018.04   -21189.468    1574.1057   -22763.574   -314.47733    84.429177    78.585057    15.953608    29.632207 
    7600    240.42701   -257.07038    229018.04   -21215.652    1592.4346   -22808.086   -509.72535    84.990727    78.582069    15.956586    29.621928 
    7800    244.90652   -148.17852    229018.04   -21129.944    1622.1041   -22752.048   -77.239329      87.0181     78.58248    15.956881     29.60849 
    8000    244.78198   -273.09585    229018.04    -21139.36    1621.2792   -22760.639    -531.2304    88.374716    78.582638    15.956141    29.605802 
    8200    238.09365   -236.92575    229018.04   -21248.801    1576.9799   -22825.781   -407.46068    89.707093    78.582897    15.957458    29.611265 
    8400    236.31461   -242.09049    229018.04   -21253.508    1565.1967   -22818.704   -405.51693    90.882236    78.582855    15.958787     29.61196 
    8600    247.94388   -89.653048    229018.04   -21198.893    1642.2215   -22841.114    144.49272    91.938008    78.583074    15.957893    29.610105 
    8800    233.96267   -438.89439    229018.04   -21213.006     1549.619   -22762.625   -1191.0924    92.452958     78.58383    15.955871    29.619482 
    9000    239.53329     -265.966    229018.04   -21204.981    1586.5152   -22791.496   -540.23521    94.606334    78.585062    15.956648    29.624435 
    9200     241.9136   -183.39466    229018.04   -21232.602    1602.2809   -22834.883   -239.06751    94.516156    78.584343    15.957301    29.626959 
    9400    231.59013   -366.89017    229018.04   -21284.957    1533.9048   -22818.862   -941.43068    94.454258     78.58652    15.956702    29.628785 
    9600    237.82237   -229.69745    229018.04   -21314.249    1575.1832   -22889.432   -396.00992    95.657632    78.588282    15.957768    29.637245 
    9800    238.78327   -320.99287    229018.04   -21264.388    1581.5476   -22845.936   -734.78162    97.847839    78.587746    15.958656    29.631629 
   10000    246.64242   -171.46468    229018.04   -21116.432    1633.6015   -22750.033   -132.45901    99.469955    78.588505    15.957999    29.647138 
   10200    241.23365    -408.3624    229018.04   -21153.319    1597.7773   -22751.096   -1105.7184     102.1094    78.588504    15.958644    29.645604 
   10400    239.17878   -356.78776    229018.04   -21151.139    1584.1671   -22735.306   -909.70401    104.42909    78.588496    15.959653     29.64481 
   10600    244.30966   -343.10139    229018.04   -21131.397    1618.1508   -22749.548   -863.29762    103.83461     78.58795    15.961783    29.630413 
   10800    243.07917   -304.14262    229018.04   -21158.995    1610.0008   -22768.996   -689.18561    105.60868    78.589521    15.960374    29.622164 
   11000    244.08535   -257.52285    229018.04   -21165.951    1616.6651   -22782.616   -512.85471    107.03581    78.590389    15.960278    29.615257 
   11200    235.92607   -418.98033    229018.04   -21165.121    1562.6233   -22727.745   -1137.6306     109.0221    78.590382    15.961602    29.630711 
   11400    237.42774   -198.97998    229018.04   -21185.755    1572.5694   -22758.324   -291.68058    110.38447    78.590768    15.959066    29.623601 
   11600    240.95018   -288.00051    229018.04   -21118.895    1595.8998   -22714.795    -647.5844    112.92088    78.589394    15.957818    29.630709 
   11800    240.58777   -362.33356    229018.04   -21160.099    1593.4994   -22753.598   -899.72692    113.48158    78.590299    15.959079    29.617653 
   12000    244.92993   -306.06239    229018.04   -21084.153    1622.2591   -22706.412   -726.20982    115.27754    78.591684    15.959894    29.616655 
   12200    242.07462   -337.56495    229018.04   -21120.983    1603.3473    -22724.33   -796.48792    117.62634    78.591936    15.961281    29.627816 
   12400    249.33416   -213.75398    229018.04   -21039.615    1651.4299   -22691.045   -315.66988    118.69191    78.591518     15.96144     29.62493 
   12600    244.14503   -410.45135    229018.04   -21036.339    1617.0604   -22653.399   -1150.9225    120.38933    78.593577    15.960418    29.625124 
   12800    242.18447   -339.20731    229018.04   -21111.234    1604.0749   -22715.309   -862.12767    123.40561    78.595394    15.962149    29.632481 
   13000    241.70444   -307.70169    229018.04   -21192.581    1600.8955   -22793.476   -729.63728    126.96207    78.596252    15.964215    29.648613 
   13200    236.85733   -385.39706    229018.04   -21122.682    1568.7914   -22691.473   -999.72516    128.61215    78.597844    15.967247    29.640501 
   13400    241.74336   -344.29256    229018.04   -21088.468    1601.1533   -22689.621   -861.29259    129.79088     78.59839    15.968479    29.631011 
   13600     242.0593   -332.28072    229018.04   -21102.503    1603.2459   -22705.749   -780.31065    129.23575    78.599739    15.969415    29.640754 
   13800    237.22506   -302.84398    229018.04   -21183.004     1571.227   -22754.231   -696.74924    128.60472    78.599416    15.971779    29.650103 
   14000    239.06527   -206.93652    229018.04     -21136.6    1583.4153   -22720.016   -321.26021      130.313    78.599141    15.971592    29.656493 
   14200    236.61582   -409.41324    229018.04       -21214    1567.1917   -22781.192   -1111.5224    131.19131    78.599933    15.970911    29.667808 
   14400    234.93051   -215.07175    229018.04   -21272.244    1556.0293   -22828.273   -370.55854    132.36916    78.597819     15.97098    29.654922 
   14600    236.93812   -362.75378    229018.04   -21222.769    1569.3265   -22792.096   -929.53642     134.7087    78.596815    15.971906    29.656492 
   14800    233.68025   -298.85508    229018.04   -21179.771    1547.7484    -22727.52   -684.03968    135.89806    78.597574    15.971941    29.650616 
   15000    236.20014   -312.22137    229018.04   -21130.295    1564.4385   -22694.733   -700.09761    137.46863      78.5963    15.973135     29.63878 
   15200    232.95256   -404.71947    229018.04   -21225.267    1542.9287   -22768.196   -1099.7243    139.41693    78.596682    15.974319    29.640172 
   15400     242.8207   -142.88498    229018.04    -21165.54    1608.2889   -22773.829     -32.1982    139.77689    78.597197    15.972561    29.634074 
   15600    234.86914   -269.55094    229018.04   -21224.082    1555.6229   -22779.705   -544.12821    141.78856    78.601509    15.972101     29.63401 
   15800    243.79858   -252.00001    229018.04   -21078.813    1614.7658   -22693.578   -497.05722    144.32339    78.601672    15.971508    29.628129 
   16000    238.81778   -313.97135    229018.04   -21131.244    1581.7761    -22713.02   -724.92852     145.6289    78.603594    15.967359    29.635482 
   16200    244.26843   -250.68891    229018.04   -21038.241    1617.8777   -22656.118   -491.56633    145.37379    78.605039    15.965929    29.627675 
   16400    241.75054   -179.49566    229018.04   -21026.593    1601.2009   -22627.794   -211.66633    147.80858    78.605745    15.964958    29.624658 
   16600    240.09935   -271.36681    229018.04   -21076.256    1590.2644   -22666.521   -557.94892    150.47624    78.603919     15.96546    29.602846 
   16800    241.16774   -316.57951    229018.04   -21038.356    1597.3407   -22635.697   -758.92777    151.08743    78.601848    15.965916    29.583477 
   17000    237.31969   -237.05025    229018.04   -21052.427    1571.8537   -22624.281   -457.43438    152.91745    78.600415    15.965352    29.559875 
   17200    237.73671   -277.82942    229018.04   -21086.507    1574.6158   -22661.122   -603.06616    154.84156    78.600261    15.964893    29.584164 
   17400     241.1569   -209.97781    229018.04   -21043.458    1597.2689   -22640.727   -345.74544    157.50517     78.60092     15.96611    29.560516 
   17600    242.10719   -335.98587    229018.04   -21012.814     1603.563   -22616.377   -809.75276     157.5469    78.601473    15.964696    29.565403 
   17800    243.74953    -295.9986    229018.04   -21045.597    1614.4409   -22660.038   -634.58979    159.48737    78.601229    15.966362    29.571684 
   18000    241.95215   -229.75797    229018.04   -21085.018    1602.5362   -22687.555   -406.14253    161.22587    78.599477    15.968625     29.56843 
   18200    242.60741   -257.47682    229018.04   -21091.739    1606.8762   -22698.616   -540.48805    162.71736    78.599275    15.970804    29.552346 
   18400    238.80761   -218.15455    229018.04   -21077.027    1581.7088   -22658.736   -400.11994    165.62527    78.597123    15.971793    29.537297 
   18600    246.83808   -337.12144    229018.04   -21047.909    1634.8974   -22682.807   -805.18692    165.75649    78.596765    15.972821    29.523827 
   18800    239.82477   -214.91977    229018.04   -21099.114    1588.4458   -22687.559   -325.56671    167.03816    78.596995    15.972101    29.537651 
   19000    242.24915   -83.842686    229018.04   -21097.382    1604.5033   -22701.885    171.17483    169.34219    78.598504     15.97043    29.537374 
   19200    243.82007   -350.73366    229018.04    -21086.92    1614.9081   -22701.829   -907.17264    172.36776    78.600292    15.971876    29.517904 
   19400    245.92121   -266.96403    229018.04   -21045.606    1628.8247   -22674.431   -585.29677    176.09582    78.596991    15.972583    29.507801 
   19600    235.56623   -263.66218    229018.04   -21117.136    1560.2399   -22677.375   -504.06332    179.70647    78.597021    15.971543    29.513483 
   19800    238.63191   -95.237711    229018.04   -21123.795     1580.545    -22704.34    95.161263    179.28142    78.595911    15.971972    29.513893 
   20000    236.83026   -242.44011    229018.04   -21161.597    1568.6121   -22730.209   -469.12551    181.46197     78.59361    15.974467    29.529659 
   20200    233.88126   -361.64901    229018.04   -21115.643    1549.0797   -22664.723   -943.85194    181.47215    78.592396    15.975803    29.560367 
   20400    230.76056   -190.95071    229018.04   -21194.458    1528.4102   -22722.868    -248.2767    181.78017    78.591552    15.974903    29.536887 
   20600    237.26997   -157.86198    229018.04   -21129.851    1571.5244   -22701.376   -121.45269    182.12968    78.590669    15.972467    29.534641 
   20800    241.58871   -186.55157    229018.04   -21123.148     1600.129   -22723.277   -243.30542    182.49002    78.592132    15.975406    29.530532 
   21000    240.70204   -411.39024    229018.04   -21119.358    1594.2562   -22713.614   -1140.9046    183.99514    78.589725    15.974305    29.541392 
   21200    243.97843   -236.35134    229018.04   -21053.488     1615.957   -22669.445   -448.46431    183.72574    78.589413    15.977483    29.547322 
   21400    233.36467   -137.18748    229018.04   -21140.925    1545.6582   -22686.583   -70.701581    184.50894    78.590759    15.979756    29.557253 
   21600    237.60324   -220.36846    229018.04   -21069.728    1573.7318    -22643.46   -377.11207    186.04505    78.592883     15.98051    29.541525 
   21800    244.99949   -228.28041    229018.04   -21085.074    1622.7198   -22707.794   -411.29076    188.46359    78.595675     15.98198    29.552776 
   22000    243.01377   -153.77842    229018.04   -21122.151    1609.5676   -22731.719   -122.81536    189.87539    78.596996    15.981643    29.564285 
   22200    238.70569   -308.60862    229018.04   -21132.384    1581.0337   -22713.418   -743.78328    192.08366    78.597375     15.98434    29.545086 
   22400    236.67826   -354.13402    229018.04   -21124.213    1567.6053   -22691.818   -866.41404    193.79405     78.59738     15.98888    29.563612 
   22600    237.11386   -285.85413    229018.04   -21100.321    1570.4905   -22670.812   -630.12378    195.20699    78.596509    15.993051     29.56525 
   22800    238.87114   -122.59821    229018.04   -21086.062    1582.1295   -22668.191   -7.1604447    196.71841    78.598247    15.997563    29.573379 
   23000    237.30128   -206.40536    229018.04   -21137.907    1571.7318   -22709.639   -350.10284    197.24874    78.598303    15.996746    29.564081 
   23200    238.85983   -158.25294    229018.04   -21152.238    1582.0546   -22734.293   -123.83604    198.68496    78.597608    15.998822     29.57225 
   23400    242.63285   -369.93259    229018.04   -21077.523    1607.0447   -22684.567   -912.35244    201.20488    78.597804    15.999462    29.589304 
   23600    236.54135   -200.09487    229018.04   -21177.488    1566.6985   -22744.186   -309.70409    200.44938    78.597983    16.003832    29.588369 
   23800    232.96847   -375.23785    229018.04   -21173.752    1543.0341   -22716.786   -1005.8709    198.67408    78.599335    16.003331    29.583003 
   24000    243.49105   -510.36991    229018.04   -21094.693    1612.7288   -22707.421   -1469.1018    199.35343    78.598139    16.002244    29.584839 
   24200    233.81786   -259.48366    229018.04   -21138.605    1548.6598   -22687.265    -488.7268    200.64223    78.599296    16.001979    29.605252 
   24400     239.0536   -315.28613    229018.04   -21071.441     1583.338   -22654.779   -738.79755     202.8305    78.601027    16.002383    29.607637 
   24600    239.14072   -362.13679    229018.04   -21081.753     1583.915   -22665.668   -921.93967    204.35837     78.60223    16.005989    29.611426 
   24800    236.70607   -355.84333    229018.04   -21055.279    1567.7895   -22623.068   -890.42556    206.67415    78.604059    16.007892    29.603176 
   25000    242.35272   -115.60377    229018.04   -21045.074    1605.1893   -22650.263    36.081209    206.76436    78.605159    16.008985    29.591412 
   25200    239.47466   -321.74367    229018.04   -21046.643    1586.1269   -22632.769   -751.98669    207.61558    78.605181    16.008818    29.611854 
   25400    240.25946   -331.03207    229018.04    -21072.26    1591.3249   -22663.585   -782.44934    209.69937    78.601743    16.009201    29.611142 
   25600    244.04945   -280.42264    229018.04   -21039.161    1616.4273   -22655.588   -590.97482    213.07451     78.60375    16.009317    29.606121 
   25800    230.98865   -225.80014    229018.04   -21058.868     1529.921   -22588.789   -391.66804    213.99666    78.604905    16.011779    29.595148 
   26000    233.94464   -369.08957    229018.04   -21107.127    1549.4996   -22656.626   -946.11898    216.47444    78.605726    16.011126    29.593433 
   26200    241.28474   -298.87983    229018.04   -21084.994    1598.1157    -22683.11   -676.12012     214.7549    78.605465    16.010858     29.58504 
   26400    233.60109   -380.47986    229018.04    -21182.62    1547.2241   -22729.844   -984.30987    215.71984    78.605607    16.011477    29.592393 
   26600     238.9646   -383.07222    229018.04   -21109.901    1582.7485   -22692.649   -979.98849    216.84897    78.604977    16.012828    29.592699 
   26800    245.40036   -294.89531    229018.04   -21034.923    1625.3749   -22660.298   -682.21574    219.32566    78.603616    16.012697    29.621355 
   27000    241.27983   -319.85903    229018.04   -21079.821    1598.0831   -22677.904   -770.99579     220.5492    78.602933    16.014729    29.605376 
   27200    245.87506   -346.29037    229018.04   -20994.124     1628.519   -22622.643   -824.12802      221.667    78.603166    16.015938    29.621308 
   27400    244.30563   -223.22955    229018.04   -21069.411    1618.1241   -22687.536   -397.68961    221.62912    78.603487    16.014157    29.629201 
   27600    246.04675   -355.01577    229018.04   -21106.061    1629.6562   -22735.718   -897.83318    223.40241     78.60429    16.014684    29.617594 
   27800    231.32562   -416.48262    229018.04   -21209.309    1532.1528   -22741.462   -1122.1054    224.11197    78.606388    16.014279    29.637492 
   28000    238.05732   -364.52263    229018.04   -21141.708    1576.7393   -22718.448   -928.76216    225.76367    78.606422    16.014454    29.647777 
   28200    240.22483   -348.87021    229018.04   -21074.636    1591.0955   -22665.732   -873.22794    227.50475    78.605661     16.01375    29.643318 
   28400    248.03427   -364.96472    229018.04   -21062.401    1642.8203   -22705.222   -949.09426     229.1943    78.605102    16.017772    29.648297 
   28600    244.69982   -382.42448    229018.04   -21069.506     1620.735   -22690.241   -992.42769    230.83467    78.605446    16.022832    29.634654 
   28800     237.2832   -453.32421    229018.04   -21126.823     1571.612   -22698.435   -1297.9238     229.6347    78.605736    16.024628    29.630969 
   29000    244.43172   -212.20133    229018.04   -21086.788    1618.9593   -22705.748   -330.74577    230.76165    78.605018    16.023838    29.617422 
   29200    246.99247   -311.39651    229018.04   -21130.394      1635.92   -22766.314   -782.31281    231.22207    78.602984    16.020844    29.619872 
   29400    243.63023   -235.62567    229018.04   -21121.292    1613.6507   -22734.943   -454.19896    232.83735    78.601253    16.020917    29.624261 
   29600    235.22854   -203.72437    229018.04     -21148.6    1558.0033   -22706.603   -286.37366    234.26151    78.600843    16.021875    29.638963 
   29800    242.48449    -332.6538    229018.04   -21119.637     1606.062   -22725.699   -800.86216    236.08772    78.599543    16.022962    29.636008 
   30000    242.51313   -445.87161    229018.04   -21137.114    1606.2517   -22743.366   -1216.7323    237.45581    78.595551    16.024273    29.643271 
   30200    237.80598   -373.43419    229018.04    -21139.25    1575.0746   -22714.325   -924.05001    238.83431    78.595613    16.025882    29.619078 
   30400    236.00253   -300.14353    229018.04   -21174.706    1563.1297   -22737.836   -678.07516    239.93557    78.595537    16.027833    29.610612 
   30600    232.10552   -279.25158    229018.04    -21256.33    1537.3184   -22793.648   -576.58157    241.57647    78.594996     16.02966    29.593446 
   30800    237.41803    -357.4974    229018.04   -21167.831     1572.505   -22740.336   -895.87329    242.40402     78.59656    16.029301    29.597682 
   31000    237.51026   -328.19217    229018.04    -21132.35    1573.1159   -22705.466   -776.11637     243.4109    78.595328    16.025435    29.608661 
   31200    236.77269   -370.90172    229018.04   -21073.663    1568.2307   -22641.894   -959.79443    245.03956    78.595467    16.026019    29.571696 
   31400    251.28691   -362.33426    229018.04   -21067.029    1664.3636   -22731.393   -914.12656    246.07665    78.595485    16.025495    29.548803 
   31600     244.3015   -357.52109    229018.04   -21023.826    1618.0967   -22641.922   -927.16189    247.82619    78.596377    16.025616    29.539304 
   31800    236.95711   -253.33517    229018.04   -21092.154    1569.4522   -22661.606   -501.05512    249.95448    78.594847    16.024249    29.529045 
   32000    238.78489   -449.50659    229018.04   -21086.412    1581.5582    -22667.97    -1266.567    251.58715    78.594177    16.020291    29.528117 
   32200    234.59816   -382.03907    229018.04   -21184.729     1553.828   -22738.557   -986.75706    251.53214    78.593812    16.019313    29.529627 
   32400    233.31649   -228.94065    229018.04   -21160.486    1545.3391   -22705.825   -429.67261    251.10361    78.592284      16.0191    29.511811 
   32600     234.7422    -483.7931    229018.04   -21159.323    1554.7821   -22714.105   -1388.2276    252.41451    78.592131     16.02078    29.497874 
   32800    239.12084   -391.09138    229018.04   -21121.693    1583.7834   -22705.477   -1013.0478    253.29093    78.592282    16.023315    29.507954 
   33000    246.49616   -458.51094    229018.04   -21079.143    1632.6328   -22711.776   -1282.1344    254.50781    78.593462    16.024472    29.497936 
   33200    236.06143   -275.96519    229018.04   -21102.167    1563.5198   -22665.687   -555.18076    256.32545    78.594203    16.027562    29.504998 
   33400    238.52978    -319.2264    229018.04   -21099.661    1579.8686    -22679.53   -741.52537    259.10159    78.591183    16.029682    29.491713 
   33600    237.53981   -296.32519    229018.04   -21161.066    1573.3117   -22734.378   -678.23012    260.52523     78.59353    16.032198    29.515986 
   33800    244.58901   -73.802536    229018.04   -21069.369     1620.001    -22689.37    217.34086    260.22913    78.595426    16.033684    29.504779 
   34000    237.76751   -204.28453    229018.04   -21131.553    1574.8198   -22706.373   -314.42668    260.73064    78.596363    16.032432     29.52293 
   34200    240.06147   -367.86058    229018.04   -21115.655    1590.0135   -22705.669   -935.66494    261.77258      78.5952    16.032286    29.543437 
   34400    242.79977   -240.87203    229018.04   -21142.647    1608.1503   -22750.797   -463.26537    263.47576    78.595146    16.033158    29.547688 
   34600    235.27685   -450.50053    229018.04   -21137.794    1558.3233   -22696.117   -1272.1447    267.11715    78.595715    16.034173    29.584468 
   34800    237.21697   -353.14956    229018.04   -21101.697    1571.1734    -22672.87   -960.89614    268.02923    78.596554    16.034347    29.587736 
   35000    239.19603   -298.03381    229018.04   -21108.642    1584.2814   -22692.923   -632.23398    270.11989    78.595536    16.036334    29.600221 
   35200    239.54093   -560.46398    229018.04   -21125.724    1586.5658    -22712.29   -1749.6895    273.98936    78.595987    16.037856    29.617974 
   35400     245.0698   -266.93309    229018.04   -21070.073    1623.1855   -22693.258    -557.6043    274.14827    78.596654    16.039235    29.615369 
   35600    237.57351   -31.837195    229018.04   -21173.987    1573.5349   -22747.522    384.93861    273.42572    78.595535    16.038817      29.6027 
   35800    242.07663   -239.25833    229018.04   -21107.514    1603.3607   -22710.875   -483.75268     273.9388     78.59498    16.035959    29.608097 
   36000    231.33607   -342.91672    229018.04   -21215.154    1532.2221   -22747.376   -859.30945    276.78455    78.592507    16.036552    29.611463 
   36200    234.87431   -158.50313    229018.04   -21181.345    1555.6571   -22737.002   -118.84441     276.9357     78.58989    16.037051    29.606424 
   36400    236.02213   -354.72915    229018.04   -21114.134    1563.2595   -22677.394   -880.75507    278.68897    78.590148    16.036096    29.595951 
   36600    237.44815   -337.31701    229018.04    -21147.75    1572.7046   -22720.455   -832.92575    277.94329    78.590351    16.036601    29.597287 
   36800    234.98313   -277.70294    229018.04   -21182.058    1556.3779   -22738.436    -609.2312    277.80701    78.588306     16.03344    29.583386 
   37000    240.17265   -180.20784    229018.04   -21163.496    1590.7499   -22754.246   -205.87315    278.68951    78.585945    16.031589    29.586411 
   37200    228.78892   -350.32484    229018.04   -21284.707    1515.3513   -22800.059   -860.63709    279.14372    78.584307    16.028598    29.577552 
   37400     237.4377   -278.17294    229018.04   -21222.035    1572.6354    -22794.67   -583.42304    278.48549    78.583636    16.028437    29.559407 
   37600    242.83641   -239.72436    229018.04   -21153.037    1608.3929   -22761.429   -411.70744    280.48791    78.583693    16.028769    29.572318 
   37800    242.81957   -276.15872    229018.04   -21224.512    1608.2814   -22832.793   -588.00071    281.08221    78.583343    16.024941    29.561497 
   38000    242.52837    -183.7821    229018.04   -21163.226    1606.3527   -22769.579   -222.17478    280.72163    78.583629    16.025946    29.567783 
   38200    239.65089   -306.46865    229018.04   -21190.149    1587.2941   -22777.443   -736.51287    281.31226    78.583751    16.025588    29.569267 
   38400    241.03112   -194.00607    229018.04   -21172.086    1596.4358   -22768.522   -289.56604    281.37568    78.582817    16.024808    29.585489 
   38600    240.50536   -261.08047    229018.04   -21169.753    1592.9536   -22762.706   -566.42401    282.43066    78.583854      16.0253    29.585536 
   38800    242.60207   -334.85489    229018.04   -21168.457    1606.8408   -22775.297    -803.3182    283.74446    78.585942    16.025959    29.596227 
   39000    240.26404   -222.75204    229018.04    -21107.76    1591.3552   -22699.115   -373.01765    285.71572    78.586916    16.026456     29.59824 
   39200    236.85835   -344.53083    229018.04   -21184.872    1568.7981    -22753.67   -865.83106    287.40793    78.589029    16.027975    29.605124 
   39400    238.63078   -329.06896    229018.04   -21135.472    1580.5375   -22716.009   -811.67162    288.47436    78.589726    16.034011    29.604494 
   39600     239.5825   -392.81247    229018.04   -21145.495    1586.8411   -22732.336   -1066.3591    288.95177     78.59149     16.03701    29.626884 
   39800    244.93688   -359.55534    229018.04   -20963.942    1622.3051   -22586.247    -928.3884    291.70615    78.591183    16.040327    29.625282 
   40000     237.4474    -329.2687    229018.04   -21115.257    1572.6996   -22687.957   -752.79128    293.02695    78.592537    16.040413    29.624764 
   40200    238.17804   -299.87216    229018.04   -21226.689    1577.5389   -22804.228   -679.76822    295.76593    78.590785    16.043853    29.626766 
   40400    244.40042   -270.13785    229018.04   -21113.992    1618.7519   -22732.744   -579.86004    297.44394    78.590492    16.044733    29.641263 
   40600    231.23816   -306.45476    229018.04   -21238.486    1531.5736    -22770.06   -707.34425    299.32815    78.589877    16.043553    29.633732 
   40800    238.14663   -262.36973    229018.04   -21200.204    1577.3308   -22777.535   -549.31784    300.02945    78.592313    16.044366    29.618175 
   41000     247.8036   -130.94174    229018.04   -21143.823    1641.2925   -22785.115     11.66689    302.34383    78.595587    16.047173    29.606342 
   41200    241.23019   -198.73536    229018.04   -21142.624    1597.7544   -22740.379   -260.03726    302.56837      78.5933    16.050517    29.597645 
   41400    240.22087   -335.58572    229018.04   -21185.477    1591.0693   -22776.547   -788.82039    304.95149    78.591426    16.050709    29.615375 
   41600     244.3249   -317.69466    229018.04   -21092.984    1618.2517   -22711.235   -740.48246    306.33694    78.591886    16.052828    29.592509 
   41800     239.2368   -397.30545    229018.04    -21158.26    1584.5514   -22742.812   -1088.1044     308.9971     78.59137    16.053908    29.596908 
   42000    238.91576   -218.69606    229018.04    -21174.81    1582.4251   -22757.235   -368.12346    308.23814    78.592412    16.057297    29.582677 
   42200    235.57275   -319.06229    229018.04   -21159.919    1560.2831   -22720.202   -713.28294    309.65907    78.594374    16.057865    29.588288 
   42400     242.7482   -152.75701    229018.04    -21185.09    1607.8087   -22792.899   -91.482148    310.69176    78.594182    16.057836    29.579292 
   42600    234.76615   -370.05764    229018.04   -21221.558    1554.9407   -22776.499   -935.57551    311.70848    78.598362    16.059325    29.571434 
   42800    243.69944    -221.8612    229018.04   -21084.197    1614.1091   -22698.306   -373.36276    311.77831    78.597878    16.056615    29.570812 
   43000    243.89082   -189.33018    229018.04   -21045.528    1615.3767   -22660.904   -247.78818    313.31805    78.596835    16.057212    29.543851 
   43200    249.27396   -251.59534    229018.04   -21078.522    1651.0311   -22729.553   -520.53401    314.87133    78.594853    16.054552    29.511786 
   43400    243.25784   -280.55359    229018.04    -21085.91    1611.1842   -22697.095   -580.07473    317.13814    78.593051    16.053349    29.514766 
   43600    245.92354   -323.55274    229018.04   -21129.811    1628.8401   -22758.651   -745.58482    318.55275     78.59263    16.053433    29.516768 
   43800    234.70117   -184.80128    229018.04   -21134.863    1554.5103   -22689.373   -242.33671    318.46739    78.592264    16.051891    29.511972 
   44000    237.49752   -308.45893    229018.04   -21201.961    1573.0315   -22774.993   -698.32921    319.44707     78.59085    16.048093    29.519062 
   44200     241.1672   -305.59929    229018.04   -21125.249    1597.3372   -22722.586   -682.90606    319.70841    78.590276    16.045334     29.54681 
   44400    242.42608   -185.32568    229018.04     -21093.3    1605.6752   -22698.976   -198.99245    319.10872    78.588959    16.044104    29.555189 
   44600    240.17563   -271.11084    229018.04   -21098.225    1590.7697   -22688.995   -560.77036    319.57455    78.590063    16.045445    29.549882 
   44800    237.60214   -171.39071    229018.04   -21154.963    1573.7245   -22728.687   -173.02662    318.68418    78.589787    16.046968    29.563992 
   45000    240.29585    -332.6579    229018.04   -21175.313    1591.5659   -22766.879   -825.21904    320.89081    78.589814    16.048013    29.578865 
   45200    247.88456   -284.44984    229018.04   -21044.434    1641.8286   -22686.263   -582.04358    322.74051    78.591083    16.047998    29.585531 
   45400    241.88115   -276.26626    229018.04   -20969.689    1602.0659   -22571.755    -533.2448    321.13516     78.59136    16.047145    29.574842 
   45600    241.99328   -177.19931    229018.04   -20959.588    1602.8086   -22562.396   -166.43417    322.08361    78.591341    16.047089    29.574706 
   45800    238.73446   -308.93589    229018.04   -21026.866    1581.2242    -22608.09   -707.68364    325.34603    78.591514    16.046427     29.57597 
   46000    238.87838   -321.90555    229018.04    -21065.05    1582.1775   -22647.228   -751.90263    326.81564     78.58973    16.048355    29.580715 
   46200    247.96116   -215.50929    229018.04   -21045.067     1642.336   -22687.403   -336.30342    326.27002    78.588631    16.049079     29.60805 
   46400    250.18998   -186.56701    229018.04   -21036.136    1657.0983   -22693.235   -256.60357    327.72895    78.591317     16.05068     29.59542 
   46600    239.53606   -135.26213    229018.04   -21102.936    1586.5335   -22689.469    -21.55025    330.21973    78.594291    16.049359    29.580077 
   46800    251.03698   -401.76641    229018.04   -21061.496    1662.7083   -22724.204   -1101.7612    333.40201    78.597061    16.050054    29.576963 
   47000    244.33526   -208.62337    229018.04   -20996.813    1618.3204   -22615.134   -311.78745    337.21129    78.596277     16.04558     29.57433 
   47200    242.16019   -228.74628    229018.04   -21068.796    1603.9141    -22672.71   -403.28089    336.10963    78.597757    16.044507    29.581006 
   47400    236.51739   -272.14201    229018.04   -21104.109    1566.5398   -22670.649   -550.09063     336.7554    78.597843    16.043086    29.581869 
   47600    241.26038   -309.13956    229018.04   -21055.466    1597.9543    -22653.42   -724.50522    338.24485    78.595436    16.043313    29.586805 
   47800    246.00208   -196.44154    229018.04   -21060.255    1629.3603   -22689.616   -284.45763    338.90978    78.593776    16.043869    29.592566 
   48000    242.23931   -130.63988    229018.04   -21110.113    1604.4381   -22714.552   -18.265938    337.91789    78.593553    16.044469    29.576031 
   48200    242.77487   -217.43573    229018.04   -21120.942    1607.9853   -22728.928   -391.48479    340.18803     78.59404    16.045226    29.585755 
   48400    241.38499   -399.45516    229018.04   -21142.528    1598.7796   -22741.307   -1098.5227    343.81004    78.593465    16.043675    29.602872 
   48600    240.56463   -243.84477    229018.04   -21121.742    1593.3461   -22715.088   -482.76574     344.4935    78.592303     16.04281    29.605304 
   48800     241.4083   -369.26522    229018.04    -21093.24     1598.934   -22692.174   -925.37407    346.02342    78.591938    16.043361    29.623444 
   49000    238.50582   -264.84674    229018.04   -21112.469    1579.7099   -22692.179   -530.45889    346.35544    78.591479    16.040481    29.605106 
   49200    237.60565   -364.78763    229018.04   -21094.208    1573.7477   -22667.956   -929.66171    346.71748    78.595066    16.042387    29.618711 
   49400    245.78335   -218.72476    229018.04   -21063.469    1627.9116   -22691.381   -312.13003    347.89333    78.597959    16.042501    29.628498 
   49600    244.48061   -203.22009    229018.04   -21088.817    1619.2831     -22708.1   -308.89121    350.49965    78.598594    16.041157    29.647116 
   49800    240.43536   -303.01848    229018.04   -21119.229    1592.4899   -22711.719   -726.28124    353.13088    78.600783    16.041184    29.658666 
   50000    236.66448   -186.94704    229018.04   -21125.709    1567.5141   -22693.223   -219.42601    354.72255    78.599904    16.043934    29.659165 
   50200    244.37517   -245.24421    229018.04   -21131.955    1618.5847    -22750.54   -454.52193    357.39364    78.600418    16.043674    29.646202 
   50400    242.15803   -285.89019    229018.04   -21141.171    1603.8998   -22745.071   -623.18803    357.68863    78.599576    16.045091    29.655034 
   50600    237.56814   -337.53528    229018.04   -21167.369    1573.4993   -22740.868   -798.13368    356.88865    78.598383    16.046701    29.658071 
   50800    236.94615   -224.72595    229018.04   -21183.712    1569.3796   -22753.092   -383.51662    358.55724    78.595068    16.048118     29.66426 
   51000    237.77009    -319.3997    229018.04   -21154.398    1574.8369   -22729.235   -787.81762     358.7303    78.595772    16.047929    29.668342 
   51200    244.66153   -376.23217    229018.04     -21117.3    1620.4814   -22737.782    -922.8459     359.5821    78.594293    16.048857    29.680641 
   51400    243.06902   -166.79016    229018.04   -21192.843    1609.9336   -22802.776   -168.33612    360.41162     78.59455    16.049102    29.673471 
   51600    237.08761   -407.32621    229018.04   -21166.033    1570.3166   -22736.349   -1095.0644    363.22855    78.595878    16.050293     29.65432 
   51800    235.65828   -330.64619    229018.04   -21147.818    1560.8496   -22708.667   -773.65246    365.42555    78.597429    16.050224    29.635284 
   52000    239.50628   -271.22033    229018.04   -21091.314    1586.3363   -22677.651    -553.1683    365.10681    78.599637    16.050003    29.643123 
   52200    238.90674   -238.28155    229018.04   -21108.031    1582.3653   -22690.396   -437.86467    365.81689    78.601083    16.051338    29.638875 
   52400    234.24339   -311.08386    229018.04   -21118.915    1551.4783   -22670.393   -712.99868    365.51682    78.602462    16.052327    29.634523 
   52600    244.92021   -414.05998    229018.04   -21079.251    1622.1947   -22701.446   -1082.3671    369.00218    78.602059    16.052169    29.631173 
   52800    236.67392   -363.89791    229018.04   -21216.692    1567.5765   -22784.269   -910.65217     368.7276    78.603713    16.051285    29.639011 
   53000    237.77883   -269.57703    229018.04   -21190.801    1574.8948   -22765.696   -560.81284    369.98348    78.602073    16.051484    29.646595 
   53200    239.74887   -225.99041    229018.04   -21191.849    1587.9431   -22779.792   -370.65114    371.69367    78.601523    16.051812    29.657061 
   53400    237.69868   -337.91697    229018.04   -21179.315    1574.3639   -22753.679   -802.89935    372.65275    78.600039    16.050077    29.655087 
   53600    234.37377   -245.75402    229018.04   -21166.235    1552.3418   -22718.577   -420.79186    373.27386    78.598188    16.051791    29.643348 
   53800     243.4937   -212.83434    229018.04   -21153.879    1612.7464   -22766.625   -353.07594      375.278    78.598465    16.050397    29.640261 
   54000    244.56702   -234.07734    229018.04   -21042.732    1619.8554   -22662.588    -378.7483    376.28439    78.600185    16.051422    29.628963 
   54200    238.14786   -79.123552    229018.04   -21153.024     1577.339   -22730.363     183.2686    378.29411    78.599817    16.051987    29.630181 
   54400    237.78357   -350.91298    229018.04   -21210.287    1574.9262   -22785.213   -863.79568    378.03809    78.598378    16.050642    29.623227 
   54600    236.96678   -243.04788    229018.04   -21129.795    1569.5163   -22699.311   -482.31573    378.20446    78.597134    16.049642    29.641268 
   54800    246.28304   -103.14295    229018.04   -21095.751    1631.2213   -22726.972     78.69163     379.6599    78.594235    16.050251    29.634793 
   55000    243.03313   -342.18546    229018.04   -21141.115    1609.6959    -22750.81   -813.69026    381.44535    78.595712    16.050058    29.626745 
   55200    241.69683   -402.41349    229018.04   -21101.972    1600.8451   -22702.817   -1074.5015    383.34968    78.595649    16.049302    29.622366 
   55400    247.60003   -314.82001    229018.04    -21115.04    1639.9441   -22754.985   -733.39102    384.29836    78.595998     16.04794    29.629516 
   55600       240.21   -408.22357    229018.04   -21098.467    1590.9973   -22689.464   -1085.5808    387.78345    78.594103    16.046452    29.622439 
   55800    238.16369    -314.3923    229018.04   -21144.743    1577.4438   -22722.187   -720.63579    389.68206    78.593574    16.044341    29.628145 
   56000    243.89365   -235.30955    229018.04   -21138.775    1615.3954   -22754.171   -431.71517    390.40723    78.590441    16.043535    29.648642 
   56200    245.31898   -362.29032    229018.04    -21103.97    1624.8359   -22728.806   -935.01823    393.38419    78.589283    16.043332    29.628175 
   56400     239.4505   -308.36844    229018.04   -21121.446    1585.9669   -22707.413    -729.8792    393.20358    78.589818    16.044956    29.631195 
   56600    235.33595   -229.30184    229018.04    -21223.28    1558.7147   -22781.995   -446.08208    394.87183    78.588792    16.042965     29.62864 
   56800    243.32015   -126.02042    229018.04    -21211.57    1611.5969   -22823.167   -12.020396    397.21463    78.585416    16.041775     29.65297 
   57000    236.83554   -209.00369    229018.04    -21257.99    1568.6471   -22826.637   -329.17624    399.56538    78.585333    16.040158    29.668839 
   57200    239.87895   -150.73275    229018.04   -21232.849    1588.8046   -22821.654   -82.287344    400.41482    78.584435    16.038917    29.671958 
   57400     235.1184    -294.6057    229018.04   -21266.697    1557.2738   -22823.971   -658.40642    402.01504     78.58392    16.037618    29.696895 
   57600    236.48711   -335.15054    229018.04   -21188.551    1566.3393   -22754.891   -778.62989    401.96155    78.584735    16.034239    29.707895 
   57800    234.42762   -355.05767    229018.04   -21180.569    1552.6985   -22733.268    -885.5707     401.7792     78.58406    16.035559    29.715991 
   58000    244.16289   -308.10867    229018.04   -21160.065    1617.1787   -22777.243     -713.787    403.20109    78.584478    16.036074    29.717588 
   58200    243.43491   -365.27204    229018.04   -21102.758     1612.357   -22715.115   -990.27429    404.63061     78.58512    16.037724    29.727074 
   58400     235.8029   -202.52788    229018.04    -21204.04    1561.8075   -22765.847   -280.42115    402.82931    78.586232    16.038492    29.710418 
   58600    239.11792   -384.70716    229018.04    -21136.84    1583.7641   -22720.604   -1055.2028    405.70195    78.586311    16.040473    29.705917 
   58800    237.95279   -350.95469    229018.04   -21177.641     1576.047   -22753.688   -883.46458    408.88526    78.585678    16.039908    29.714137 
   59000    237.25974   -215.30132    229018.04   -21154.578    1571.4566   -22726.034   -332.45676    410.46934    78.584873    16.037529    29.722025 
   59200    239.09814   -245.76377    229018.04   -21180.728     1583.633   -22764.361   -490.97723     410.4464    78.585312    16.035209    29.721061 
   59400    240.71359   -275.05601    229018.04   -21123.174    1594.3327   -22717.507   -611.29616    410.73159     78.58461    16.034061    29.722755 
   59600    247.76096   -342.80229    229018.04   -21030.463      1641.01   -22671.473    -836.5225    413.79394    78.585223    16.033501    29.716956 
   59800    245.86872   -305.83231    229018.04   -21022.855     1628.477   -22651.332   -691.66863    415.16945     78.58657    16.034263    29.704965 
   60000    237.78022   -214.15847    229018.04   -21132.166     1574.904    -22707.07   -357.44501    413.08832    78.585887    16.032085    29.705269 
   60200    244.02521   -340.09237    229018.04   -21061.001    1616.2668   -22677.268     -830.278    413.69862    78.583825    16.031523    29.729496 
   60400    239.93173   -285.98564    229018.04   -21131.744    1589.1542   -22720.898   -648.39597    415.74972    78.583786    16.030829    29.716923 
   60600    239.74553   -422.34887    229018.04   -21147.148    1587.9209   -22735.068   -1143.5417    417.36556    78.583952     16.03134    29.717199 
   60800    235.18427   -334.71051    229018.04    -21168.53    1557.7101    -22726.24   -810.02579    417.48933    78.583976    16.030095    29.726101 
   61000    237.49531   -405.22691    229018.04   -21169.176    1573.0169   -22742.193     -1095.91    417.72232    78.583055     16.02672    29.761457 
   61200    233.57302   -311.78651    229018.04   -21240.386    1547.0382   -22787.424   -736.45159    419.14368    78.582876    16.025701    29.781087 
   61400    238.12138   -377.40724    229018.04   -21155.098    1577.1636   -22732.262   -953.16548    419.91696    78.583673    16.022933    29.787358 
   61600    241.67769   -267.16963    229018.04   -21118.246    1600.7183   -22718.964   -583.90789    421.59395     78.58503    16.022537    29.783233 
   61800     244.1712   -394.59753    229018.04   -21064.132    1617.2337   -22681.366   -1018.9661    425.21295    78.584913    16.020103    29.780323 
   62000    240.82811   -220.00803    229018.04   -21142.007    1595.0912   -22737.098    -392.9329    427.57163    78.586626    16.019859      29.7761 
   62200    237.73689    -393.5226    229018.04    -21085.58     1574.617   -22660.197   -1004.6774    427.57655    78.587421    16.021822    29.786634 
   62400    247.04001   -370.75828    229018.04   -21025.951    1636.2349   -22662.186   -948.62666    428.19799    78.585606    16.024676    29.789412 
   62600    239.71385   -186.27749    229018.04   -21060.014    1587.7111   -22647.725   -256.35492    428.33813     78.58465    16.026133    29.794606 
   62800    241.20317   -469.66521    229018.04    -21084.55    1597.5754   -22682.126   -1357.6432    430.43552    78.585727    16.026352     29.79325 
   63000    239.82253   -318.20717    229018.04   -21111.738    1588.4309   -22700.169   -779.79264    428.68555    78.586352    16.024728     29.80247 
   63200    236.41019   -355.95061    229018.04   -21216.711    1565.8298   -22782.541    -891.3626    432.08051    78.585694    16.024165    29.803776 
   63400    242.65826   -276.45594    229018.04    -21109.36     1607.213   -22716.573   -611.77874    433.14945    78.585023    16.022703    29.811556 
   63600     238.4133   -326.28322    229018.04   -21094.749    1579.0971   -22673.846   -769.31134     434.2265     78.58372    16.022952    29.792184 
   63800     244.2814   -154.18126    229018.04   -21056.655    1617.9636   -22674.619   -114.06334     433.0773    78.580863    16.021122    29.772454 
   64000    238.14288   -279.00346    229018.04   -21093.218     1577.306   -22670.524   -602.45486    432.80383    78.579934    16.021214    29.792414 
   64200    242.27954   -161.35087    229018.04   -21081.195    1604.7046     -22685.9   -188.07905    433.07855    78.578745    16.020787    29.774228 
   64400    242.82767   -273.70181    229018.04   -21056.211    1608.3351   -22664.546   -596.74498    436.65581    78.578202    16.021902    29.751552 
   64600    234.38309   -250.82109    229018.04   -21082.118    1552.4036   -22634.521    -554.3438    437.51047    78.580343    16.022604    29.744756 
   64800    245.78181    -279.6508    229018.04   -21023.706    1627.9014   -22651.608   -613.97862    438.19765    78.579904    16.023555    29.741531 
   65000     238.1636   -265.41568    229018.04   -21097.659    1577.4432   -22675.102   -570.32513    440.88986    78.579392    16.025613    29.747688 
   65200    236.63638   -228.56016    229018.04   -21118.944    1567.3279   -22686.272   -423.31276    442.39737     78.57986    16.027393    29.728087 
   65400    248.20458   -423.10079    229018.04   -21038.595    1643.9483   -22682.544   -1216.5371    445.42992    78.577707    16.027636    29.733473 
   65600    244.73878   -186.33302    229018.04   -21013.415    1620.9931   -22634.408   -239.10222    447.55677    78.579682    16.027145    29.732611 
   65800     236.9447   -297.89928    229018.04   -21097.204    1569.3701   -22666.574   -693.32064    447.68116    78.579347     16.02941    29.726003 
   66000    236.37041   -541.78705    229018.04   -21132.436    1565.5663   -22698.003   -1641.0887    448.26703    78.579562    16.029147    29.713126 
   66200      244.469   -221.01112    229018.04   -21096.942    1619.2062   -22716.148   -378.24279    446.16507    78.580469     16.02755    29.694286 
   66400     233.9968    -244.3355    229018.04   -21152.132     1549.845   -22701.977   -480.27122    444.97349    78.581112    16.026103    29.701627 
   66600    232.87112   -381.06015    229018.04   -21090.861    1542.3892    -22633.25   -1023.0447    445.78446    78.582393     16.02486      29.7092 
   66800    235.02361   -310.89973    229018.04   -21140.588     1556.646   -22697.234   -707.31084    446.49079    78.583306    16.025927    29.694763 
   67000    239.66724   -376.04525    229018.04   -21094.179    1587.4024   -22681.582   -966.05777    449.28751    78.583024    16.026174    29.674815 
   67200    236.24859   -438.46414    229018.04   -21147.297    1564.7594   -22712.057    -1236.445    450.40189    78.582803    16.023747    29.664711 
   67400    239.30013   -293.72209    229018.04   -21068.005    1584.9709   -22652.976   -703.73428    450.59104    78.582957    16.024301    29.646197 
   67600    231.00508   -334.29309    229018.04   -21142.007    1530.0298   -22672.037   -817.35841    455.00254    78.582126    16.023291    29.649119 
   67800    237.11535   -378.65042    229018.04   -21147.085    1570.5003   -22717.585   -932.24472    454.15031    78.582697    16.023187    29.651826 
   68000    247.28323   -227.99645    229018.04   -21172.212    1637.8458   -22810.058   -409.55559    453.52251       78.583     16.02469    29.642934 
   68200    233.86949    -230.7426    229018.04   -21192.196    1549.0018   -22741.198   -395.88902    455.15451    78.582458    16.023652    29.615954 
   68400    250.29744   -295.94075    229018.04   -21060.282      1657.81   -22718.092    -633.3637    458.21533    78.582668    16.025218    29.605262 
   68600    245.03918   -166.04578    229018.04   -21070.032    1622.9827   -22693.014   -168.06937     459.7448    78.585184    16.025492    29.594261 
   68800     243.5529   -262.19339    229018.04    -21034.18    1613.1385   -22647.318   -496.63843    460.31976    78.585967    16.025397    29.606506 
   69000    247.37043   -445.22374    229018.04   -21030.134    1638.4234   -22668.558   -1239.2364    463.02311    78.585748    16.024252    29.596592 
   69200    240.46206   -147.33793    229018.04   -21087.608    1592.6667   -22680.275     -106.935    460.33417    78.584845     16.02549    29.618947 
   69400    232.08798   -400.09339    229018.04    -21100.35    1537.2022   -22637.552   -1097.8829     460.7274     78.58319    16.027216    29.621719 
   69600     240.3612   -264.08308    229018.04    -21066.34    1591.9987   -22658.338   -511.08105    461.80075    78.581966    16.030698    29.622275 
   69800    240.32234   -330.75503    229018.04   -21066.333    1591.7413   -22658.075   -768.43355     464.1716    78.580822     16.03176    29.627805 
   70000    239.34233   -288.62333    229018.04   -21110.916    1585.2504   -22696.166   -620.54205    463.18442     78.58274    16.030369    29.638184 
   70200    238.25081   -404.08202    229018.04   -21100.929    1578.0208   -22678.949   -1059.7222    463.10603     78.58206    16.028785    29.640594 
   70400    237.43218   -296.50161    229018.04   -21093.634    1572.5988   -22666.233   -694.95232    463.05874     78.58268    16.028537    29.635872 
   70600    245.31697   -309.02197    229018.04   -21071.928    1624.8226   -22696.751   -738.17984    466.22758    78.582194    16.027824    29.624985 
   70800    242.78981   -185.59119    229018.04   -21137.634    1608.0843   -22745.718   -234.83945    467.90743    78.582386    16.027199     29.62866 
   71000    231.86642   -304.88818    229018.04   -21081.342    1535.7348   -22617.077   -690.39242    466.46099    78.581883    16.025831    29.635925 
   71200    245.66112   -258.07723    229018.04   -20960.799     1627.102   -22587.901   -531.16489    468.63933    78.581627    16.024772    29.636153 
   71400    241.07124    -358.8798    229018.04   -21049.418    1596.7016   -22646.119   -950.69797    469.13239    78.581636    16.020988    29.635314 
   71600    241.43707    -496.0164    229018.04    -21101.36    1599.1246   -22700.485   -1461.4848    470.60135    78.580274    16.019681    29.655191 
   71800    237.35087   -271.32105    229018.04       -21091    1572.0602    -22663.06   -561.48562    471.25655      78.5817    16.017582    29.663171 
   72000    241.82821   -268.36385    229018.04   -21105.218    1601.7153   -22706.933   -567.77454    470.90983    78.583552    16.018446    29.652194 
   72200    242.54857   -388.66218    229018.04   -21130.602    1606.4865   -22737.089   -993.08019    471.25273    78.584501    16.021905    29.624999 
   72400    243.43717   -224.86613    229018.04   -21073.641     1612.372   -22686.013   -365.50714    470.37283    78.585283    16.023061    29.609242 
   72600    241.90758   -332.30441    229018.04   -21102.899    1602.2409    -22705.14   -812.31404     473.9032     78.58284    16.023191    29.604046 
   72800    239.13513   -258.95813    229018.04   -21134.812    1583.8781    -22718.69   -502.44171    472.74435    78.583306    16.022776    29.597969 
   73000    239.41379   -349.62808    229018.04   -21157.904    1585.7237   -22743.628   -891.63853    474.26497    78.583241     16.02116    29.597071 
   73200    246.46636   -285.09248    229018.04   -21085.012    1632.4354   -22717.447   -621.84207    477.01415    78.585607     16.01933    29.571487 
   73400    245.34395   -235.53255    229018.04   -21113.567    1625.0013   -22738.568   -430.32999    477.39372    78.583424    16.017544    29.584352 
   73600    239.28459   -394.99473    229018.04   -21164.582     1584.868    -22749.45   -1034.5517    479.47155    78.583977     16.01925    29.596052 
   73800    244.88398   -235.63181    229018.04   -21091.012    1621.9547   -22712.967   -406.46943     481.0298    78.583807    16.018708    29.596614 
   74000    243.82395   -268.79395    229018.04   -21000.565    1614.9338   -22615.499   -583.98139    482.88993     78.58453    16.016697     29.60904 
   74200    245.62643   -193.51669    229018.04   -21097.248    1626.8722    -22724.12   -263.92082    482.32113    78.584202    16.014738    29.615642 
   74400    241.55871    -349.4281    229018.04   -21138.231    1599.9303   -22738.161   -862.21025    483.90525    78.586447    16.014112    29.627576 
   74600    234.82674   -235.06394    229018.04   -21152.812     1555.342   -22708.154   -411.31499    485.36122    78.587978    16.014633    29.613292 
   74800    245.52984   -439.94364    229018.04   -21096.152    1626.2325   -22722.385   -1187.6854    486.84396    78.588437    16.015438    29.607945 
   75000    240.34425   -240.08584    229018.04   -21124.527    1591.8865   -22716.413   -425.46193    487.84734    78.584559    16.014551    29.621591 
   75200    248.99692   -210.42253    229018.04   -21108.971    1649.1962   -22758.167   -327.02375    487.43604    78.583569    16.013419    29.620658 
   75400    240.39278    -547.8351    229018.04   -21071.748    1592.2079   -22663.956   -1611.1759    490.73873    78.581451     16.01486    29.613667 
   75600    241.67925   -307.71593    229018.04   -21095.088    1600.7286   -22695.816   -682.58572    490.26392    78.583019    16.014959    29.607135 
   75800    236.24563   -378.89258    229018.04   -21130.898    1564.7399   -22695.637   -961.62763     492.6494    78.585905    16.016085    29.603735 
   76000    241.61285   -412.77848    229018.04   -21144.563    1600.2889   -22744.852   -1141.8022    493.48968    78.587064    16.018269    29.582932 
   76200    236.78726   -320.85926    229018.04   -21202.781    1568.3273   -22771.109   -744.39438    494.51568    78.586779    16.017825    29.584069 
   76400    233.75774   -238.69936    229018.04   -21247.792    1548.2616   -22796.054   -412.89131    493.76907    78.587249    16.019288    29.575468 
   76600    238.60256   -182.94812    229018.04   -21203.557    1580.3506   -22783.907   -226.01595    493.25488    78.589929    16.019683    29.578602 
   76800    245.35695   -375.27916    229018.04   -21059.999    1625.0874   -22685.086   -980.28419    496.46382     78.58937    16.020365    29.611589 
   77000    241.27453   -159.23139    229018.04   -21157.066    1598.0481   -22755.114    -96.13499    495.95634    78.589356    16.019685    29.596219 
   77200    232.18765   -502.35694    229018.04   -21179.097    1537.8624    -22716.96   -1422.1036    499.47171    78.588908    16.020553    29.592388 
   77400    232.68164   -324.62202    229018.04   -21181.846    1541.1343   -22722.981   -763.22088    499.26941    78.589902    16.020395    29.600421 
   77600    234.11795   -286.34109    229018.04   -21162.327    1550.6474   -22712.975   -642.99152    497.88396    78.591148    16.020228    29.586909 
   77800    240.36475   -370.38359    229018.04   -21187.443    1592.0223   -22779.465   -968.74166    500.57125    78.593568    16.020674    29.602957 
   78000    237.75444   -293.83033    229018.04   -21210.695    1574.7333   -22785.428    -646.1204    500.02296    78.596563    16.022594     29.59038 
   78200    237.09735   -145.07171    229018.04   -21132.571    1570.3811   -22702.952   -93.374213    500.16232    78.594995    16.019471    29.600188 
   78400    239.31135    -242.8842    229018.04   -21138.648    1585.0452   -22723.694   -436.64795    502.65429     78.59604    16.016524    29.606427 
   78600    239.26836   -261.30074    229018.04   -21200.271    1584.7604   -22785.031   -523.33727    503.49045    78.595458    16.015168    29.607208 
   78800    239.24073   -324.16303    229018.04   -21155.776    1584.5775   -22740.354   -812.83406    502.90303    78.594931    16.016428    29.604648 
   79000    237.99247   -253.95748    229018.04   -21136.434    1576.3098   -22712.744   -524.48778    505.72784    78.594244    16.015427    29.618976 
   79200    244.22809    -303.3105    229018.04   -21128.471    1617.6105   -22746.082   -718.84108    505.05061     78.59479     16.01324    29.624672 
   79400    236.93584   -207.66185    229018.04   -21176.595    1569.3113   -22745.906   -344.90884    506.38571    78.596006    16.012895    29.617418 
   79600    237.66739   -258.04413    229018.04    -21163.06    1574.1566   -22737.217   -529.12171     509.9364    78.594367    16.012117    29.610077 
   79800    234.21141   -221.06014    229018.04   -21172.295    1551.2665   -22723.562   -351.29146    510.40605    78.593028    16.011779    29.598486 
   80000    233.94793   -457.80082    229018.04   -21224.262    1549.5214   -22773.783   -1303.9144    512.54667    78.588579    16.010939    29.589719 
   80200     243.8839   -213.77394    229018.04   -21196.589    1615.3309   -22811.919   -330.34738    511.34478    78.585387    16.009081    29.578841 
   80400    232.21112   -230.65873    229018.04   -21235.825    1538.0178   -22773.843   -384.16232    511.92213    78.585497    16.008933    29.579228 
   80600     238.4832    -363.0029    229018.04   -20996.712    1579.5601   -22576.272   -912.80717     511.2979    78.585278    16.008567    29.577064 
   80800    245.82138   -229.40023    229018.04   -21092.798    1628.1635   -22720.962    -421.1931    510.96549    78.584644    16.007775    29.589683 
   81000    243.27997   -216.62922    229018.04   -21037.425    1611.3308   -22648.756      -357.59    511.13052    78.581535     16.00726    29.605284 
   81200    246.41309   -190.99802    229018.04   -21064.669    1632.0826   -22696.752   -244.66432    512.18412    78.579623    16.006123    29.607054 
   81400    241.91006   -292.75647    229018.04   -21132.055    1602.2574   -22734.312   -654.43889    512.27825    78.581093    16.004723    29.578552 
   81600     244.1125   -394.03082    229018.04   -21006.699    1616.8449   -22623.544   -1020.1933    515.21993    78.581761    16.002884    29.592976 
   81800    247.94343   -244.73023    229018.04   -21016.091    1642.2186    -22658.31   -472.91067    514.62936    78.582084    16.002856     29.55885 
   82000    246.64373    -339.7934    229018.04   -20979.737    1633.6102   -22613.348   -845.97081     514.7127    78.582546    16.001181    29.555072 
   82200    239.60626   -338.25492    229018.04   -21072.946    1586.9985   -22659.945   -840.78707    516.27499    78.583431    16.001091    29.553293 
   82400    239.77486   -403.53037    229018.04   -21107.474    1588.1152   -22695.589   -1104.7346    516.71993    78.581843    16.002583    29.564505 
   82600    240.82051   -296.87861    229018.04   -21074.297    1595.0409   -22669.338   -688.44723    519.18233    78.581847    16.003135    29.590668 
   82800    239.12117    -379.1704    229018.04    -21057.09    1583.7856   -22640.876   -980.88894    519.43244    78.581138    16.003332    29.595771 
   83000    243.39143   -257.30519    229018.04   -21098.113    1612.0691   -22710.182   -521.81584    521.79989    78.580874    16.004038    29.619751 
   83200    234.05941   -265.57196    229018.04   -21119.679    1550.2597   -22669.939   -554.32633    524.20117    78.579741     16.00342    29.620761 
   83400    237.32567   -333.62629    229018.04   -21120.129    1571.8933   -22692.023   -811.18347    526.46021    78.582943      16.0016    29.608682 
   83600    242.70504   -250.05597    229018.04   -21103.208    1607.5228   -22710.731   -551.82601    528.22107    78.583617    16.003399    29.602463 
   83800     235.7791   -350.15889    229018.04   -21109.282    1561.6498   -22670.932   -897.04039    529.93372    78.582361    16.004393    29.618554 
   84000    236.25759   -232.00407    229018.04   -21120.949    1564.8191   -22685.768   -432.79002     530.4165    78.582401    16.002546    29.631005 
   84200    238.37413   -308.73811    229018.04   -21166.921    1578.8377   -22745.758   -694.52703    532.22584    78.582047    16.000791    29.637253 
   84400    236.08554   -205.29064    229018.04   -21100.883    1563.6795   -22664.562   -299.48106    534.45197    78.582986    15.998893    29.635918 
   84600    235.83109   -401.46809    229018.04    -21075.16    1561.9942   -22637.154     -1073.66     536.3224    78.581826    15.994968    29.634874 
   84800    239.92416   -242.38351    229018.04   -21133.552     1589.104   -22722.656   -480.05141    536.92305    78.581991    15.996516    29.617368 
   85000    237.49398   -157.40063    229018.04   -21123.641    1573.0081   -22696.649   -130.48713    537.58518    78.581492     15.99942    29.603751 
   85200    243.73122   -453.33509    229018.04   -21043.699    1614.3196   -22658.018   -1311.0313    539.42258    78.582527     16.00064    29.595612 
   85400    240.51722   -343.08183    229018.04   -21097.725    1593.0321   -22690.758   -872.78503    538.81189    78.583498    15.997985    29.572593 
   85600    234.55805   -323.69471    229018.04   -21082.455    1553.5624   -22636.018   -792.99622    539.84194    78.584258    15.996489    29.574688 
   85800    246.88364   -72.229289    229018.04   -21072.526    1635.1992   -22707.726    192.89745     542.0454    78.583122    15.995441    29.581532 
   86000    243.00176   -306.06002    229018.04   -21035.364    1609.4881   -22644.852   -646.21755    542.87676    78.580544    15.995108    29.582577 
   86200    236.73684   -141.83709    229018.04   -21120.149    1567.9933   -22688.142    -46.87951    543.27703    78.579811    15.996831    29.590611 
   86400    237.94231   -379.26459    229018.04   -21085.915    1575.9775   -22661.893   -1007.8346    545.96492    78.579912    15.998593    29.605399 
   86600    241.70963   -271.18565    229018.04   -21020.312    1600.9299   -22621.241   -563.70318    547.28623    78.577565    15.996883    29.597297 
   86800    235.64975   -383.73488    229018.04   -21106.355    1560.7931   -22667.148   -1004.0691    549.57788    78.576419    15.994421    29.600511 
   87000    237.54937   -281.59003    229018.04   -21108.086     1573.375   -22681.461   -612.01535    551.31944    78.578612    15.992968    29.610925 
   87200    244.34095    -311.7958    229018.04   -21053.109    1618.3581   -22671.467   -720.68559    552.96263    78.577156    15.992299    29.614494 
   87400    236.21414   -352.14064    229018.04   -21093.167    1564.5312   -22657.699   -896.04163    553.28166    78.577894    15.989506    29.603909 
   87600    240.45058   -296.00561    229018.04   -21050.208    1592.5907   -22642.799   -653.00014    552.58731    78.578397     15.98942    29.623878 
   87800     236.0221   -337.43391    229018.04   -21171.795    1563.2593   -22735.054   -818.77646    556.49222    78.580172    15.988458    29.643558 
   88000    242.35229   -336.84808    229018.04   -20986.053    1605.1864    -22591.24   -821.99794    555.88081    78.580381    15.987413    29.619336 
   88200    249.33017   -175.38001    229018.04   -20992.559    1651.4035   -22643.962   -190.90811    555.75494    78.580267    15.987684    29.630359 
   88400    245.64337   -474.02995    229018.04   -21009.988    1626.9844   -22636.972   -1349.6803    556.76454    78.582016    15.985924    29.610101 
   88600    243.08292   -283.90733    229018.04   -21117.141    1610.0257   -22727.167    -608.6779    557.04796    78.582267    15.987529    29.612589 
   88800    239.45962   -284.54345    229018.04   -21162.055    1586.0272   -22748.082   -608.63813    558.43187    78.580573    15.987309    29.623642 
   89000    234.34825   -369.66011    229018.04   -21191.245    1552.1728   -22743.417   -933.32412    559.87309    78.579851    15.988474    29.625294 
   89200    240.67652   -363.86851    229018.04   -21167.063    1594.0872    -22761.15   -948.95506    560.29473     78.58017    15.990083    29.624234 
   89400    241.21991   -269.62829    229018.04   -21066.544    1597.6863   -22664.231   -560.46875    562.31902    78.579303    15.989845    29.628894 
   89600    233.87003    -274.6175    229018.04   -21176.964    1549.0054   -22725.969   -568.73464    564.18817    78.581107    15.989074    29.651851 
   89800    239.58508   -198.43196    229018.04   -21128.206    1586.8582   -22715.064   -246.12394    567.80205    78.580009    15.988633    29.644609 
   90000    242.93376   -332.89369    229018.04   -21075.128    1609.0377   -22684.166   -810.50944    568.33192    78.581258    15.987344    29.648299 
   90200    236.11862   -315.91614    229018.04   -21086.231    1563.8986    -22650.13   -721.89145    570.29955    78.582106    15.987065    29.648606 
   90400    237.77379   -497.76098    229018.04   -21193.017    1574.8614   -22767.878   -1464.2489    573.19177    78.582446    15.988793    29.670045 
   90600    235.53815   -408.19161    229018.04   -21191.832     1560.054   -22751.886   -1119.8163    575.11075    78.581439    15.989383    29.674097 
   90800     241.7862   -396.29503    229018.04   -21061.058     1601.437   -22662.495   -1055.1251    574.70664      78.5825    15.990883    29.674648 
   91000    235.92074   -181.17001    229018.04   -21128.536     1562.588   -22691.124   -218.03498    574.52887    78.583067    15.991436    29.678855 
   91200    233.34655   -404.02879    229018.04   -21136.991    1545.5382    -22682.53   -1066.7695    575.90032     78.58333    15.990452    29.671057 
   91400     241.0295   -280.94454    229018.04   -21114.017    1596.4251   -22710.442   -577.26114    576.37215    78.581689     15.99121    29.685779 
   91600    237.47432   -216.33448    229018.04   -21080.074    1572.8779   -22652.951   -322.97941    575.83041    78.581169     15.99163     29.71137 
   91800    244.15938   -298.54731    229018.04   -21060.107    1617.1555   -22677.262   -665.87823    575.91357    78.580608    15.992864    29.692112 
   92000    238.83813   -479.23066    229018.04   -21137.972    1581.9109   -22719.883   -1370.5596    578.02322    78.580708    15.991647    29.693696 
   92200     240.5411   -238.78103    229018.04   -21130.849    1593.1903   -22724.039   -451.13065    579.33317    78.579947    15.989127     29.70194 
   92400    243.69727   -286.82184    229018.04   -21085.178    1614.0947   -22699.273   -642.36483    580.53883    78.581126     15.99216    29.697163 
   92600    244.91306   -221.82062    229018.04    -21098.32    1622.1473   -22720.467   -394.76985    582.12731    78.582139    15.994149    29.697738 
   92800     233.0725   -365.68615    229018.04   -21182.481    1543.7231   -22726.204   -935.35881    583.10453    78.582904    15.993821    29.686401 
   93000    237.36086    -333.0014    229018.04   -21204.915    1572.1264   -22777.042   -805.39904    584.37265    78.584385    15.994691    29.678156 
   93200     239.2359   -355.99894    229018.04   -21137.625    1584.5455    -22722.17   -934.82429    584.23543    78.585381    15.993609    29.672573 
   93400    241.40237   -309.65192    229018.04   -21221.812    1598.8948   -22820.707   -700.10181      583.776    78.584436    15.994031    29.674975 
   93600    239.66595   -323.60716    229018.04    -21195.79    1587.3938   -22783.184   -802.23885    586.27423    78.584717    15.992871    29.667177 
   93800    238.83584   -330.02344    229018.04   -21093.061    1581.8958   -22674.957   -807.12635    588.66666    78.583583    15.991671     29.67517 
   94000     244.5239   -216.55843    229018.04   -21106.757    1619.5698   -22726.327   -378.78657    589.24144    78.583586    15.991193    29.674748 
   94200    240.64051   -349.92865    229018.04   -21152.155    1593.8487   -22746.004   -889.72202     591.6767    78.582652    15.990559    29.668898 
   94400    240.87181   -228.52621    229018.04   -21073.935    1595.3807   -22669.316   -401.52471    592.83669    78.582512    15.989833    29.663749 
   94600    239.67848   -263.43964    229018.04   -21150.086    1587.4769   -22737.563   -488.90266    594.39212     78.58396    15.990743     29.66749 
   94800    241.58438   -222.95633    229018.04   -21039.545    1600.1003   -22639.646   -352.94099    593.03799    78.585456    15.992451    29.667865 
   95000    242.19845   -432.53159    229018.04   -21083.674    1604.1675   -22687.842   -1200.0056    594.69828    78.585925     15.99474    29.662134 
   95200     243.7358   -263.39516    229018.04   -21195.717    1614.3499   -22810.067   -519.15482    596.02054    78.584174     15.99649    29.655652 
   95400    240.60853   -259.18039    229018.04   -21219.588    1593.6369   -22813.225   -527.55328    595.70166    78.584623    15.997751    29.654027 
   95600    234.46608   -206.55073    229018.04   -21221.163    1552.9532   -22774.116   -329.04374    598.38369    78.584175    15.999655    29.652821 
   95800    241.46066   -350.57559    229018.04   -21145.955    1599.2809   -22745.236   -890.69285    597.76286    78.585131    16.000324    29.644665 
   96000    239.16878   -429.18915    229018.04   -21195.652    1584.1009   -22779.753   -1182.8818    599.92996     78.58628    16.002093    29.612121 
   96200    234.42215   -217.01349    229018.04   -21262.637    1552.6623   -22815.299   -359.00256     599.4614    78.585675    16.003072    29.611439 
   96400    239.01522   -308.37281    229018.04   -21166.996    1583.0838    -22750.08   -750.78787    600.83029    78.586639    16.002296    29.595052 
   96600    231.46753   -258.30015    229018.04   -21245.257    1533.0928    -22778.35   -512.10906    601.68433    78.584077     16.00335    29.604864 
   96800    239.34406   -324.65911    229018.04   -21190.317    1585.2619   -22775.579   -746.20935     604.0847    78.583936    16.002769    29.598788 
   97000    234.60623   -253.84637    229018.04   -21149.757    1553.8815   -22703.638   -505.80054    603.65171    78.584785    15.999256     29.58806 
   97200     238.1383   -264.75972    229018.04   -21108.178    1577.2756   -22685.453   -559.39574    604.60995    78.584314    15.999616    29.586232 
   97400    247.96037    -321.3005    229018.04   -21096.956    1642.3308   -22739.287   -730.73991    604.49654    78.584671     15.99799    29.577472 
   97600    233.90928   -290.50529    229018.04     -21100.8    1549.2654   -22650.065   -615.04154    606.01306    78.585548    15.996334    29.581573 
   97800     235.3292   -330.39027    229018.04   -21153.255      1558.67   -22711.925   -781.68944    608.28103    78.587745    15.995806    29.566965 
   98000    228.74788   -281.79175    229018.04    -21230.47    1515.0795   -22745.549   -594.67064    610.00677    78.592252    15.997357    29.555862 
   98200    232.49993   -280.39036    229018.04   -21172.479    1539.9308    -22712.41   -600.98489    606.67317    78.592636    15.997167    29.547998 
   98400    233.62269   -320.56355    229018.04   -21110.341    1547.3672   -22657.708   -754.70345    608.63342    78.591271    15.996138    29.544378 
   98600    233.51326   -329.25633    229018.04   -21096.979    1546.6424   -22643.622   -783.82283    611.23903    78.589845    15.996532     29.52412 
   98800    244.44142   -129.82355    229018.04   -20963.233    1619.0235   -22582.257   -3.7554282    613.14594    78.590623    15.994494     29.53671 
   99000     242.4272    -63.74679    229018.04   -20933.353    1605.6826   -22539.036    227.31579    613.96762    78.591033    15.994105    29.540215 
   99200    242.11379    -317.4147    229018.04   -21001.685    1603.6068   -22605.291   -760.54495    612.24332     78.59196    15.996393    29.545568 
   99400    234.06614   -226.37025    229018.04   -21078.053    1550.3043   -22628.357   -415.87797    615.28861    78.592371    15.997526    29.544844 
   99600    239.84853   -283.89354    229018.04   -21054.617    1588.6031    -22643.22   -595.57882    614.68457    78.591301     15.99915    29.544679 
   99800    245.47366    -149.9541    229018.04   -21027.438    1625.8604   -22653.299   -131.64876    615.97534    78.592784     16.00118    29.564343 
  100000    240.75777   -370.61456    229018.04   -21070.328    1594.6254   -22664.953   -947.30792    616.70373    78.593889    16.001936    29.566043 
  100200    243.11682   -518.93409    229018.04   -21006.956    1610.2502   -22617.206   -1565.1916    616.64597    78.593692    16.002771    29.565871 
  100400    240.51276   -239.73943    229018.04   -21016.663    1593.0026   -22609.666   -459.11946    617.10978    78.594639    16.002064    29.570246 
  100600    238.37968   -319.74536    229018.04   -21059.963    1578.8744   -22638.837   -758.71843    619.47069    78.595627    16.003657    29.580531 
  100800    250.09022   -195.28181    229018.04   -21059.445    1656.4375   -22715.882   -262.91831    618.63505    78.596859    16.003798    29.571415 
[...]
 5175800    231.85077   -323.31124    229018.04   -23330.156    1535.6311   -24865.787   -794.04745    8653.1881        78.89    17.645781    29.724855 
 5176000     221.4055   -376.22232    229018.04   -23458.261    1466.4483    -24924.71   -1013.3157     8652.355    78.890256    17.643088    29.716644 
 5176200    220.57632   -321.60492    229018.04   -23444.855    1460.9563   -24905.811    -819.8467    8650.0121    78.889613    17.641051    29.713594 
 5176400     221.8661   -398.62436    229018.04   -23396.088    1469.4991   -24865.587   -1117.4739    8652.1002    78.890308    17.639887    29.704117 
 5176600    225.30295   -289.95837    229018.04   -23372.434    1492.2626   -24864.696   -678.12011    8652.1824    78.891104    17.638194     29.70863 
 5176800    221.81056   -328.12617    229018.04   -23429.225    1469.1312   -24898.357   -836.35796    8651.7297    78.890655    17.636676    29.706798 
 5177000    234.96021   -305.95383    229018.04   -23326.971    1556.2261   -24883.197   -753.81096    8651.2341    78.889426    17.634132    29.703248 
 5177200    232.37396   -245.62682    229018.04   -23331.578    1539.0964   -24870.675   -499.05297    8651.3207    78.889161    17.632682    29.715502 
 5177400    227.69308   -284.91997    229018.04   -23366.744    1508.0932   -24874.838   -651.35452    8651.4878    78.890307    17.630626    29.717578 
 5177600    226.27833   -409.70391    229018.04   -23352.841    1498.7229   -24851.564   -1166.9057    8653.1243    78.890739    17.631391    29.725078 
 5177800    228.31146   -286.36777    229018.04   -23319.521     1512.189    -24831.71   -675.15464    8651.7366    78.891015     17.63158    29.733984 
 5178000    223.17614   -286.00449    229018.04   -23403.799    1478.1759   -24881.975   -638.82097    8650.4048    78.892679    17.629612    29.739429 
 5178200    220.63477   -401.50083    229018.04   -23406.865    1461.3435   -24868.209   -1117.1603    8652.2461    78.893256    17.628816    29.727344 
 5178400    229.80481   -285.71099    229018.04   -23320.538      1522.08   -24842.618   -629.98644    8651.8499    78.895363     17.62634    29.733512 
 5178600    226.42988   -304.36663    229018.04   -23371.285    1499.7266   -24871.011   -746.80833    8650.8003    78.896454    17.624151    29.714204 
 5178800    230.16836   -492.92522    229018.04   -23347.442    1524.4879    -24871.93   -1464.9743    8656.1083    78.897956    17.623834    29.737902 
 5179000    232.03461   -340.48393    229018.04   -23309.561    1536.8487    -24846.41    -854.3663    8652.3583    78.898888    17.622044     29.72777 
 5179200    229.21954   -280.73387    229018.04   -23370.659    1518.2035   -24888.862   -668.69019     8649.866    78.900615     17.61906     29.73501 
 5179400    229.14359   -392.17838    229018.04    -23387.08    1517.7004   -24904.781   -1049.5297    8655.5484    78.901773    17.617949    29.717065 
 5179600    229.79702   -335.23795    229018.04   -23364.783    1522.0283   -24886.812    -838.1836    8651.5646    78.904006    17.616685    29.712517 
 5179800    229.95872   -165.43129    229018.04   -23335.207    1523.0994   -24858.307   -185.25519    8651.1935    78.903653    17.617698    29.709461 
 5180000    220.62099   -392.31397    229018.04   -23372.818    1461.2523    -24834.07   -1066.0343    8653.7052    78.905738    17.616618    29.714808 
 5180200    220.32552   -294.25771    229018.04   -23393.573    1459.2953   -24852.868   -694.70245    8654.0366    78.906727    17.617084    29.711668 
 5180400    224.54654   -230.33109    229018.04   -23374.895    1487.2526   -24862.147   -465.69378    8651.8563    78.906216    17.617023    29.720118 
 5180600    227.28534   -296.37449    229018.04   -23386.712    1505.3926   -24892.105   -713.81363     8655.127    78.903871    17.616451    29.711131 
 5180800    223.33091   -245.12774    229018.04   -23416.757     1479.201   -24895.958   -525.63814    8653.7622    78.904294    17.615866    29.715236 
 5181000     226.4498   -258.03945    229018.04   -23365.854    1499.8585   -24865.712   -564.46228    8650.9293    78.906364    17.616904    29.722521 
 5181200    228.16881   -363.18966    229018.04   -23328.592    1511.2441   -24839.836   -962.82932      8655.39    78.907362     17.61707    29.734686 
 5181400    227.15168   -211.11789    229018.04    -23344.02    1504.5073   -24848.527    -396.0416    8651.1478    78.907911    17.616884    29.722592 
 5181600    223.16636   -335.30406    229018.04   -23330.803    1478.1111   -24808.914   -857.01291    8655.8444    78.907332    17.616202    29.712304 
 5181800    224.46433   -451.14442    229018.04   -23421.427    1486.7081   -24908.135   -1306.2131    8656.0877    78.907312    17.615337    29.713128 
 5182000     219.1024   -303.49327    229018.04   -23433.277    1451.1941   -24884.471   -762.71001    8652.9399    78.907957    17.612816     29.71299 
 5182200    227.89262   -289.98137    229018.04   -23341.496    1509.4148   -24850.911   -671.68047    8652.7228    78.910148     17.61221     29.71253 
 5182400    226.02642    -458.5095    229018.04   -23345.457    1497.0543   -24842.511    -1316.566    8656.1131    78.908763    17.610297    29.713107 
 5182600    230.61011   -223.49402    229018.04       -23322    1527.4138   -24849.414   -433.65486    8650.0495    78.909996    17.609067    29.730676 
 5182800    228.94003   -285.01142    229018.04   -23324.086    1516.3522   -24840.438   -658.50127    8652.0825    78.911845    17.608522    29.719275 
 5183000    223.82073     -404.185    229018.04   -23316.171    1482.4453   -24798.616   -1104.1649    8654.2116    78.912712    17.607917    29.708456 
 5183200     228.0292   -210.06175    229018.04   -23334.746    1510.3195   -24845.065   -390.16578    8650.9018    78.913008    17.608231    29.711709 
 5183400    226.63286   -337.36199    229018.04   -23358.961     1501.071   -24860.032   -859.09455    8656.6215     78.91273    17.607264     29.72107 
 5183600    224.48176   -390.84382    229018.04   -23345.878    1486.8235   -24832.702   -1060.1668    8655.6158    78.913321    17.606737    29.716394 
 5183800    221.09838   -258.31564    229018.04   -23402.463    1464.4142   -24866.877   -586.28503    8652.6972      78.9136    17.606442    29.717435 
 5184000    225.40093   -348.13841    229018.04   -23359.713    1492.9115   -24852.625   -874.54736    8655.8922    78.914825    17.606332    29.709774 
 5184200     220.4899   -410.77706    229018.04   -23375.814     1460.384   -24836.198   -1146.8082     8656.245    78.915582    17.605907    29.725533 
 5184400    222.33109   -198.78808    229018.04    -23346.98    1472.5788   -24819.559   -326.06112    8653.5713    78.914646    17.605549    29.721276 
 5184600    223.65101   -390.61271    229018.04   -23347.035    1481.3211   -24828.357   -1057.3413    8656.9951    78.915262    17.603362    29.711941 
 5184800    225.12128   -347.40477    229018.04   -23338.437    1491.0592   -24829.496   -908.91186    8655.3864    78.915418    17.602897    29.710134 
 5185000    227.96199   -313.64963    229018.04   -23329.843    1509.8743   -24839.717   -776.06052    8654.9184    78.916635    17.601725    29.722998 
 5185200    224.78799   -326.88544    229018.04   -23358.295    1488.8518   -24847.147   -795.35067    8653.2421    78.915358    17.602389    29.719312 
 5185400    220.93919   -337.32896    229018.04   -23388.573    1463.3598   -24851.933    -867.7361    8656.5686    78.916797    17.601546    29.718876 
 5185600    229.12172   -383.61248    229018.04   -23349.776    1517.5556   -24867.332   -1084.8773     8654.956    78.916614    17.601549    29.732458 
 5185800    231.59695   -232.61947    229018.04   -23254.961      1533.95   -24788.911   -412.39837    8654.2235     78.91847    17.602037    29.742707 
 5186000    221.92446   -319.80766    229018.04   -23302.671    1469.8856   -24772.557   -778.99978    8655.2591    78.920369    17.602691    29.743526 
 5186200    224.02643   -378.23263    229018.04   -23384.654    1483.8077   -24868.462   -1011.7303    8658.7739    78.920689    17.601548    29.739161 
 5186400    217.87558   -292.73505    229018.04   -23395.167    1443.0684   -24838.236   -709.54857    8654.0139    78.921895    17.599866    29.745025 
 5186600     226.8527   -327.92847    229018.04   -23319.644    1502.5271   -24822.171   -810.18113    8656.1467    78.922628    17.599682    29.746248 
 5186800    226.04966   -319.25595    229018.04   -23335.777    1497.2082   -24832.985   -814.82078    8657.2117    78.923163     17.59911    29.744977 
 5187000    230.55316   -227.47094    229018.04   -23342.309    1527.0366   -24869.345   -420.58855    8656.9377    78.923539    17.599604    29.739719 
 5187200    229.94393   -242.76647    229018.04   -23362.394    1523.0014   -24885.395   -445.88616    8655.5095    78.924412    17.601196    29.733332 
 5187400    224.04599   -354.24095    229018.04    -23335.42    1483.9373   -24819.357   -947.71476    8657.8551    78.925074    17.601022    29.738554 
 5187600    225.82006   -293.84283    229018.04   -23356.966    1495.6875   -24852.654   -709.85173    8656.3997    78.925742    17.600251    29.744045 
 5187800     225.4002   -269.58366    229018.04   -23350.099    1492.9067   -24843.006   -599.64305    8659.0481    78.927017    17.600169    29.743416 
 5188000    225.17975   -365.69738    229018.04   -23348.071    1491.4465   -24839.518   -949.50354    8657.9319    78.928035    17.600724    29.740242 
 5188200    229.49003    -244.0901    229018.04   -23345.554    1519.9951   -24865.549   -472.10076    8654.2041    78.927809     17.60404    29.750359 
 5188400    230.10615   -288.45275    229018.04    -23380.25    1524.0759   -24904.326   -707.15458    8655.8606    78.927767    17.605981     29.74485 
 5188600    229.38371   -384.14271    229018.04   -23297.278    1519.2909   -24816.569   -1053.9957    8657.4057    78.929235    17.606952    29.747645 
 5188800    225.80805   -340.76022    229018.04   -23339.329     1495.608   -24834.937    -882.3919    8656.4656    78.931164    17.607511    29.742989 
 5189000    229.94264   -290.23999    229018.04   -23331.836    1522.9929   -24854.829   -664.50975      8655.13    78.933937    17.607975    29.746089 
 5189200     232.3326   -375.75144    229018.04   -23346.211    1538.8224   -24885.033   -1013.8791    8656.0003    78.934763    17.608639     29.73377 
 5189400    233.04954   -270.65691    229018.04   -23339.535     1543.571   -24883.106   -591.62632    8654.8916    78.935809    17.610857    29.734619 
 5189600    232.67457   -278.14067    229018.04    -23321.66    1541.0874   -24862.747   -668.19008    8654.9155    78.935547    17.613004    29.726229 
 5189800     228.3235    -365.9197    229018.04   -23374.459    1512.2687   -24886.728   -977.91371    8655.8125    78.936761    17.613342    29.726675 
 5190000    226.63575   -276.94865    229018.04   -23343.995    1501.0902   -24845.086   -641.48633    8656.4694    78.937443     17.61502    29.714588 
 5190200    225.63011   -321.92749    229018.04   -23333.051    1494.4294   -24827.481   -832.52086    8655.3607    78.937706    17.615671    29.718051 
 5190400    230.30825   -309.40339    229018.04   -23352.237    1525.4144   -24877.651   -721.86378    8656.1302    78.938669    17.615417    29.716727 
 5190600    231.32598   -303.96292    229018.04   -23344.002    1532.1552   -24876.157   -748.60777    8657.5657    78.939458    17.619128    29.722699 
 5190800    226.28223   -354.24672    229018.04   -23351.592    1498.7487    -24850.34   -978.97861    8656.4424    78.940506    17.620992    29.701659 
 5191000    222.83914   -350.53676    229018.04   -23459.912    1475.9438   -24935.855   -898.01143    8656.0888    78.942663    17.621108    29.699798 
 5191200    225.03585    -338.8701    229018.04   -23389.676    1490.4935   -24880.169   -841.11904    8655.1696     78.94435    17.621266    29.697878 
 5191400     226.7957   -370.87677    229018.04   -23353.964    1502.1495   -24856.114   -978.80256    8656.9289    78.945319    17.622436    29.711451 
 5191600    221.45123   -299.66674    229018.04   -23367.037    1466.7512   -24833.788   -691.45837    8656.0542     78.94533    17.623811    29.720361 
 5191800    236.96647   -194.35863    229018.04   -23325.309    1569.5142   -24894.823   -313.08551    8652.9102    78.946159    17.623795    29.732266 
 5192000     231.6828   -372.86127    229018.04   -23320.867    1534.5186   -24855.385   -981.00539    8657.7886    78.945872    17.623683    29.738773 
 5192200     226.1178   -316.72784    229018.04   -23353.665    1497.6596   -24851.325   -761.85325    8656.3666    78.945886    17.624454    29.735982 
 5192400    227.30576   -251.63014    229018.04   -23396.761    1505.5278   -24902.289   -533.00627    8655.1854    78.946149    17.625145    29.744018 
 5192600    220.49567   -387.01061    229018.04   -23396.198    1460.4222    -24856.62   -1058.7683    8657.5049    78.945393    17.625435    29.735312 
 5192800     226.6528   -298.49539    229018.04   -23336.454    1501.2031   -24837.657   -728.16242    8655.2486    78.945782    17.626289    29.737226 
 5193000    228.51599   -302.49021    229018.04   -23364.142    1513.5437   -24877.686   -773.17816    8655.8427    78.945221    17.627911    29.732736 
 5193200    223.04367   -398.44424    229018.04   -23362.519    1477.2985   -24839.817   -1051.5888    8659.1466    78.945739    17.628415    29.724955 
 5193400    228.53549   -227.14541    229018.04   -23322.628    1513.6728   -24836.301   -430.23821    8653.7565     78.94621     17.62933    29.733094 
 5193600    226.47721   -382.77287    229018.04   -23364.001    1500.0401   -24864.041    -1052.102    8654.0351    78.947396    17.628456    29.714347 
 5193800    222.13688   -424.66099    229018.04   -23383.221    1471.2925   -24854.514   -1202.8256    8657.2271    78.948438    17.629258    29.726266 
 5194000    226.88327    -176.7479    229018.04   -23379.966    1502.7295   -24882.695   -255.14964     8653.382    78.948587    17.627278    29.717594 
 5194200    225.26422   -280.24252    229018.04   -23347.837     1492.006   -24839.843   -620.30887    8659.2677    78.949574    17.628335    29.707975 
 5194400    221.40568   -400.48829    229018.04   -23353.898    1466.4495   -24820.347   -1075.3257     8659.359    78.950527    17.627854     29.71236 
 5194600    226.59356   -177.99959    229018.04     -23382.7    1500.8107   -24883.511   -242.95636    8655.4506    78.949895    17.628356    29.721196 
 5194800    221.25492   -320.39476    229018.04   -23396.408     1465.451   -24861.859   -766.01026    8656.2369    78.950486    17.631037    29.723063 
 5195000    230.01769   -335.04915    229018.04   -23306.246      1523.49   -24829.736   -823.63543     8658.648    78.949893    17.630632    29.719437 
 5195200    220.47749   -300.79128    229018.04   -23369.754    1460.3018   -24830.056   -745.59699     8653.488    78.951303    17.629948     29.72284 
 5195400    231.03489   -359.51203    229018.04   -23292.582    1530.2272   -24822.809   -941.50162    8656.8154    78.951323    17.628746    29.720612 
 5195600    229.98159   -284.28511    229018.04   -23344.674    1523.2509   -24867.925   -654.06316    8656.8379    78.950557    17.628512    29.722936 
 5195800    231.52217   -262.30135    229018.04    -23295.61    1533.4547   -24829.065   -540.35006     8656.214     78.94933    17.628707    29.734334 
 5196000    227.95727    -259.5235    229018.04   -23298.472     1509.843   -24808.315    -551.8494    8655.4125    78.948435    17.629572     29.71818 
 5196200    231.29307   -409.77776    229018.04   -23268.283    1531.9373    -24800.22   -1154.8512    8656.4074    78.948366    17.630294    29.719545 
 5196400    226.00255   -327.32931    229018.04   -23320.313    1496.8962   -24817.209   -818.01591    8656.4937     78.94967    17.629161    29.713297 
 5196600    225.02325   -244.92536    229018.04   -23432.336      1490.41   -24922.746   -470.93247    8656.2454    78.949671    17.627844    29.720089 
 5196800    225.87046   -330.56388    229018.04   -23329.049    1496.0214   -24825.071   -800.90455    8657.0562    78.951322    17.625455    29.720525 
 5197000    229.40177   -207.93121    229018.04   -23369.852    1519.4105   -24889.262   -332.07536    8656.5815    78.952451    17.624183    29.728173 
 5197200    235.24757   -315.42141    229018.04   -23271.879    1558.1293   -24830.008   -753.85338    8655.9018     78.95159    17.623187    29.735939 
 5197400     224.0366   -332.44906    229018.04   -23365.158    1483.8751   -24849.033   -830.68643    8655.2614    78.952189    17.623522     29.73639 
 5197600    229.65622   -339.23071    229018.04    -23344.03    1521.0958   -24865.125   -862.75942    8656.5252    78.954065    17.622341    29.733837 
 5197800    236.82304   -317.24045    229018.04   -23249.659    1568.5642   -24818.224   -773.40253    8656.0419    78.955008     17.62078    29.728144 
 5198000    237.62933   -405.79488    229018.04   -23247.621    1573.9046   -24821.526   -1124.3635    8657.4974    78.955537     17.62117    29.721804 
 5198200    228.99264   -354.13731    229018.04   -23312.883    1516.7007   -24829.583     -926.176     8655.735    78.957068    17.620382    29.724581 
 5198400    225.73837   -388.49597    229018.04   -23339.305    1495.1465   -24834.451   -1089.0509    8656.4968    78.958268    17.618581    29.729561 
 5198600    220.78208   -311.55858    229018.04   -23396.125    1462.3192   -24858.445   -752.99687    8654.6874    78.960413    17.617808    29.716495 
 5198800     225.1375   -315.83589    229018.04   -23395.402    1491.1667   -24886.568   -790.69177     8656.326    78.961912    17.619123    29.722361 
 5199000    230.34777   -287.30243    229018.04   -23311.446    1525.6762   -24837.122   -627.16105    8653.8058     78.96394    17.617011    29.720932 
 5199200    223.72064    -334.2571    229018.04    -23355.19    1481.7823   -24836.972   -862.35865    8655.2992    78.965257    17.615813    29.720014 
 5199400    227.03262   -358.92783    229018.04   -23384.863    1503.7187   -24888.582   -978.50542     8656.219     78.96542    17.616161    29.713116 
 5199600    231.74187   -214.87791    229018.04   -23340.318    1534.9098   -24875.228   -382.67678    8654.4482    78.965913    17.615127    29.701532 
 5199800    226.27973   -371.82248    229018.04   -23398.052    1498.7321   -24896.784   -1041.5914    8657.3534     78.96765    17.614082    29.713851 
 5200000     232.6594    -274.9829    229018.04   -23321.814    1540.9869   -24862.801   -624.63644    8655.3888    78.968972    17.613648    29.722758 
Loop time of 7279.57 on 160 procs for 5200000 steps with 8943 atoms

Performance: 617.179 ns/day, 0.039 hours/ns, 714.328 timesteps/s
97.8% CPU use with 160 MPI tasks x no OpenMP threads

MPI task timing breakdown:
Section |  min time  |  avg time  |  max time  |%varavg| %total
---------------------------------------------------------------
Pair    | 0.24798    | 1494.2     | 5819.3     |5206.9 | 20.53
Neigh   | 0.33588    | 96.963     | 371.02     |1221.8 |  1.33
Comm    | 11.624     | 2004.5     | 5855.4     |4664.3 | 27.54
Output  | 89.398     | 89.477     | 91.347     |   1.6 |  1.23
Modify  | 194.04     | 3495.1     | 7084.2     |4954.9 | 48.01
Other   |            | 99.34      |            |       |  1.36

Nlocal:    55.8937 ave 177 max 0 min
Histogram: 72 0 48 0 0 0 0 0 4 36
Nghost:    540.169 ave 939 max 0 min
Histogram: 18 6 0 8 8 38 30 16 23 13
Neighs:    0 ave 0 max 0 min
Histogram: 160 0 0 0 0 0 0 0 0 0
FullNghs:  5597.06 ave 22207 max 0 min
Histogram: 92 28 0 0 0 0 0 2 18 20

Total # of neighbors = 895530
Ave neighs/atom = 100.138
Neighbor list builds = 555801
Dangerous builds = 0
write_data 		${DIR}/data.${NAME}_run
write_data 		run_12/data.${NAME}_run
write_data 		run_12/data.ibeam_cooling_12_run
Total wall time: 2:01:34
