

### IMPORT ATOMS ###
read_data ../Box_Setup/data.Ibeam_240K
  orthogonal box = (0 0 0) to (157.504 40.4305 33.9212)
  10 by 4 by 4 MPI processor grid
  reading atoms ...
  9248 atoms
  reading velocities ...
  9248 velocities
group water type 2
1952 atoms in group water
group graphite type 1
7296 atoms in group graphite


# Define potential
#
pair_style          sw
pair_coeff * * MLC_e.sw C mW

# Add velocity/set timestep
#

fix		1 graphite setforce 0.0 0.0 0.0
velocity 	graphite set 0.0 0.0 0.0
velocity            water create ${START_TEMP} ${SEED} rot yes dist gaussian
velocity            water create 240 ${SEED} rot yes dist gaussian
velocity            water create 240 14619 rot yes dist gaussian
timestep            5.0

# Define output
#
compute 1 water msd
compute 2 water temp


thermo	            100
thermo_style custom step c_2 press vol etotal ke pe c_1[4] density

# Neighbor lists
#
neigh_modify        delay 0 every 1 check yes


# Set fixes
#
fix                 2 water momentum 10 linear 1 1 1 rescale
fix                 3 all nve
fix                 4 water temp/csvr ${START_TEMP} ${START_TEMP} 500.0 928347
fix                 4 water temp/csvr 240 ${START_TEMP} 500.0 928347
fix                 4 water temp/csvr 240 240 500.0 928347

# Run 0.05 ns equilibration
#
dump                1 all custom 100 ${DIR}/eq.${NAME}.dump id type x y z vx vy vz
dump                1 all custom 100 run_10/eq.${NAME}.dump id type x y z vx vy vz
dump                1 all custom 100 run_10/eq.ibeam_cooling_10.dump id type x y z vx vy vz
run                 10000
Neighbor list info ...
  update every 1 steps, delay 0 steps, check yes
  max neighbors/atom: 2000, page size: 100000
  master list distance cutoff = 6.67472
  ghost atom cutoff = 6.67472
  binsize = 3.33736, bins = 48 13 11
  1 neighbor lists, perpetual/occasional/extra = 1 0 0
  (1) pair sw, perpetual
      attributes: full, newton on
      pair build: full/bin/atomonly
      stencil: full/bin/3d
      bin: standard
Per MPI rank memory allocation (min/avg/max) = 0.4647 | 3.681 | 4.743 Mbytes
Step c_2 Press Volume TotEng KinEng PotEng c_1[4] Density 
       0          240   -299.33439    216009.12   -18704.344    1395.7345   -20100.079            0   0.94393226 
     100     235.2181    -293.8593    216009.12   -18704.245     1367.925    -20072.17   0.81051943   0.94393226 
     200    238.70129   -363.43255    216009.12   -18751.857    1388.1818   -20140.039    1.2033595   0.94393226 
     300    233.89368   -307.03163    216009.12   -18730.649    1360.2228   -20090.872    1.6235087   0.94393226 
     400    236.57023   -290.24387    216009.12    -18743.28    1375.7885   -20119.069    1.9053362   0.94393226 
     500    234.35516   -187.13239    216009.12   -18726.528    1362.9066   -20089.434     2.181197   0.94393226 
     600    248.71612   -290.32872    216009.12   -18653.115    1446.4236   -20099.539    2.4447887   0.94393226 
     700    238.68334   -413.34138    216009.12   -18662.164    1388.0774   -20050.241    2.6933435   0.94393226 
     800    245.53927   -253.13832    216009.12   -18650.219    1427.9485   -20078.167    3.0820813   0.94393226 
     900    241.34765   -237.68249    216009.12   -18681.815    1403.5719   -20085.387    3.4582397   0.94393226 
    1000    236.72939   -347.38484    216009.12   -18712.836     1376.714    -20089.55    3.8767862   0.94393226 
    1100    245.51299   -258.99557    216009.12   -18685.915    1427.7956   -20113.711    4.0566159   0.94393226 
    1200    241.59233   -453.56902    216009.12   -18675.984    1404.9948   -20080.979    4.1926653   0.94393226 
    1300    243.75209   -314.20441    216009.12   -18631.752     1417.555   -20049.307    4.4500856   0.94393226 
    1400    235.23704   -296.27104    216009.12   -18657.925    1368.0352    -20025.96    4.7159386   0.94393226 
    1500     238.6638   -347.73879    216009.12   -18676.227    1387.9637   -20064.191    4.8979341   0.94393226 
    1600    239.16211   -314.64117    216009.12   -18664.276    1390.8617   -20055.138    5.2049285   0.94393226 
    1700    235.98304   -365.43957    216009.12   -18657.255    1372.3736   -20029.629    5.6032789   0.94393226 
    1800    242.85609   -350.88821    216009.12   -18616.168    1412.3443   -20028.512    5.7619421   0.94393226 
    1900    249.07602   -430.97735    216009.12   -18596.806    1448.5166   -20045.322    6.3772532   0.94393226 
    2000     244.4988   -375.33247    216009.12     -18574.2    1421.8976   -19996.098    6.7701148   0.94393226 
    2100    240.41614   -377.94628    216009.12   -18674.347    1398.1546   -20072.501    7.2117575   0.94393226 
    2200     235.0923   -309.20829    216009.12   -18663.008    1367.1935   -20030.202    7.7131446   0.94393226 
    2300    249.18169   -251.30191    216009.12    -18640.99    1449.1312   -20090.121    8.0169208   0.94393226 
    2400    242.00079   -241.49967    216009.12   -18636.406    1407.3702   -20043.777    8.3065835   0.94393226 
    2500    241.61929    -253.2444    216009.12   -18668.695    1405.1516   -20073.846    8.6444594   0.94393226 
    2600    243.33495   -329.39855    216009.12   -18665.524    1415.1291   -20080.653    8.9963959   0.94393226 
    2700    239.91637   -344.54686    216009.12   -18662.055    1395.2481   -20057.303    9.2149448   0.94393226 
    2800    244.26853   -377.27043    216009.12   -18619.311    1420.5584   -20039.869    9.6604115   0.94393226 
    2900    243.13431   -286.64678    216009.12   -18620.651    1413.9623   -20034.613    10.115628   0.94393226 
    3000    239.30012   -248.11092    216009.12   -18611.619    1391.6643   -20003.283    10.310963   0.94393226 
    3100    242.41357   -392.39778    216009.12   -18605.544    1409.7708   -20015.315    10.620159   0.94393226 
    3200    245.02039   -386.11562    216009.12   -18668.989    1424.9309    -20093.92    10.940397   0.94393226 
    3300    240.78407   -379.78522    216009.12   -18754.563    1400.2943   -20154.857     11.35292   0.94393226 
    3400     237.4602   -164.24047    216009.12   -18699.704    1380.9641   -20080.668    11.708147   0.94393226 
    3500    242.81222   -330.63036    216009.12   -18704.084    1412.0891   -20116.173     11.96708   0.94393226 
    3600    244.83909   -249.41454    216009.12   -18696.529    1423.8765   -20120.405    12.309932   0.94393226 
    3700    243.71726   -286.73314    216009.12   -18681.318    1417.3525   -20098.671    12.654671   0.94393226 
    3800    236.98026   -339.65803    216009.12   -18652.028     1378.173   -20030.201    12.883583   0.94393226 
    3900    239.75909   -311.74258    216009.12    -18652.15    1394.3335   -20046.483    13.330171   0.94393226 
    4000    234.97115   -376.87605    216009.12   -18697.903    1366.4889   -20064.392    13.614989   0.94393226 
    4100    238.86316    -289.2548    216009.12   -18693.053    1389.1231   -20082.176    13.991562   0.94393226 
    4200    242.91651   -404.46211    216009.12   -18676.176    1412.6957   -20088.871    14.631628   0.94393226 
    4300    238.54147   -325.59967    216009.12   -18715.553    1387.2524   -20102.806    15.064919   0.94393226 
    4400    236.30472   -250.52412    216009.12   -18686.353    1374.2444   -20060.597    15.702202   0.94393226 
    4500    240.68593   -300.30443    216009.12   -18727.256    1399.7236    -20126.98    15.689932   0.94393226 
    4600    237.78484   -206.67269    216009.12   -18763.659    1382.8521   -20146.511    15.885741   0.94393226 
    4700     239.7613   -261.50035    216009.12   -18683.636    1394.3463   -20077.982    16.063124   0.94393226 
    4800    237.76874   -184.56304    216009.12    -18664.37    1382.7585   -20047.128    16.367559   0.94393226 
    4900    247.43142   -211.39535    216009.12   -18632.123    1438.9524   -20071.075    16.725516   0.94393226 
    5000    237.65837   -245.65099    216009.12   -18695.597    1382.1166   -20077.714    17.208885   0.94393226 
    5100    247.82592   -256.38851    216009.12   -18691.948    1441.2466   -20133.194    17.742715   0.94393226 
    5200    239.38913    -388.4802    216009.12   -18732.783     1392.182   -20124.965     18.21579   0.94393226 
    5300    236.52126   -509.59199    216009.12   -18802.733    1375.5037   -20178.236    18.675861   0.94393226 
    5400    233.23389   -439.38914    216009.12   -18790.327    1356.3858   -20146.713    18.784297   0.94393226 
    5500    235.77919   -303.01728    216009.12   -18777.082    1371.1881    -20148.27    18.946478   0.94393226 
    5600    232.03195   -355.91984    216009.12   -18816.275    1349.3958   -20165.671    19.353677   0.94393226 
    5700    241.79609   -356.86855    216009.12   -18762.828    1406.1798   -20169.008    19.698654   0.94393226 
    5800     240.8578   -416.78499    216009.12   -18749.754    1400.7231   -20150.477    20.133086   0.94393226 
    5900    235.76108   -336.24819    216009.12   -18768.851    1371.0828   -20139.934    20.607564   0.94393226 
    6000    237.85166    -397.3912    216009.12   -18776.695    1383.2407   -20159.936    20.697181   0.94393226 
    6100    233.38807   -134.98086    216009.12    -18796.63    1357.2824   -20153.912    20.770971   0.94393226 
    6200    237.58299   -359.28547    216009.12   -18785.922    1381.6782   -20167.601     21.14579   0.94393226 
    6300    243.33679   -243.62437    216009.12   -18725.692    1415.1398   -20140.832    21.808316   0.94393226 
    6400    239.84563   -332.96342    216009.12    -18752.03    1394.8367   -20146.867    21.823478   0.94393226 
    6500    238.93256   -233.11513    216009.12   -18751.048    1389.5267   -20140.575    21.941827   0.94393226 
    6600     230.0941   -237.31893    216009.12   -18771.944    1338.1261    -20110.07    22.126898   0.94393226 
    6700    240.22749   -130.59737    216009.12   -18780.014    1397.0575   -20177.072    22.509278   0.94393226 
    6800    238.27786   -385.68666    216009.12     -18755.9    1385.7193    -20141.62    22.447513   0.94393226 
    6900    234.17806   -313.46565    216009.12   -18710.353    1361.8766   -20072.229    22.655021   0.94393226 
    7000    243.00974   -306.64116    216009.12   -18707.483    1413.2378   -20120.721    23.061912   0.94393226 
    7100    237.79424   -275.86784    216009.12   -18714.867    1382.9068   -20097.774    23.420157   0.94393226 
    7200    235.11335    -164.2075    216009.12   -18738.003    1367.3159   -20105.319    23.667297   0.94393226 
    7300    235.04541   -244.67354    216009.12   -18771.684    1366.9208   -20138.605    23.823379   0.94393226 
    7400    232.99352   -345.42171    216009.12   -18731.389    1354.9879   -20086.377    23.883365   0.94393226 
    7500    234.67579   -491.97267    216009.12   -18707.813    1364.7712   -20072.584    24.385034   0.94393226 
    7600    245.15012   -479.93485    216009.12   -18653.953    1425.6853   -20079.639    25.007208   0.94393226 
    7700    244.32676   -301.87041    216009.12    -18667.48     1420.897   -20088.377    25.290494   0.94393226 
    7800    236.84618   -114.64203    216009.12   -18729.262    1377.3932   -20106.656    25.542392   0.94393226 
    7900    240.82969   -348.14045    216009.12   -18709.372    1400.5596   -20109.931    25.902309   0.94393226 
    8000     245.0569     -272.792    216009.12   -18659.193    1425.1432   -20084.336    26.586645   0.94393226 
    8100    245.08661   -234.47297    216009.12    -18655.21     1425.316   -20080.526    26.969938   0.94393226 
    8200    244.22223     -438.757    216009.12   -18681.148    1420.2891   -20101.437    27.072361   0.94393226 
    8300    244.22764   -512.76446    216009.12   -18645.957    1420.3206   -20066.277    27.451581   0.94393226 
    8400    244.03863   -359.49318    216009.12    -18627.94    1419.2214   -20047.161    27.443569   0.94393226 
    8500    240.40022   -266.14563    216009.12   -18652.259     1398.062   -20050.321    27.615126   0.94393226 
    8600    243.10491   -296.05112    216009.12   -18673.776    1413.7913   -20087.567    27.449612   0.94393226 
    8700     231.8369    -355.3888    216009.12   -18679.261    1348.2615   -20027.522    27.582673   0.94393226 
    8800    235.95272   -222.98564    216009.12   -18671.615    1372.1973   -20043.813    27.704668   0.94393226 
    8900    239.81963   -282.54585    216009.12   -18710.754    1394.6856   -20105.439    27.967231   0.94393226 
    9000    241.08968    -494.9698    216009.12    -18685.35    1402.0716   -20087.421    28.554883   0.94393226 
    9100    240.84683   -395.21234    216009.12   -18713.445    1400.6593   -20114.104    28.752732   0.94393226 
    9200    235.94034   -135.60627    216009.12   -18671.577    1372.1253   -20043.702     28.63454   0.94393226 
    9300    237.84539   -240.48778    216009.12   -18740.955    1383.2042   -20124.159    28.993313   0.94393226 
    9400    235.42758   -369.98929    216009.12   -18715.605    1369.1433   -20084.748    29.419228   0.94393226 
    9500    235.55406   -375.25113    216009.12    -18732.56    1369.8789   -20102.438    29.821477   0.94393226 
    9600    237.92721   -252.87676    216009.12   -18739.785    1383.6801   -20123.465    29.782367   0.94393226 
    9700    238.16791   -399.16533    216009.12   -18700.198    1385.0799   -20085.278    30.492458   0.94393226 
    9800    244.10068   -422.78114    216009.12    -18650.69    1419.5823   -20070.273    30.816788   0.94393226 
    9900    239.75403   -259.59551    216009.12    -18676.77     1394.304   -20071.074    30.723828   0.94393226 
   10000    246.54249    -262.7296    216009.12   -18682.682    1433.7828   -20116.465    31.077533   0.94393226 
Loop time of 14.5923 on 160 procs for 10000 steps with 9248 atoms

Performance: 296.047 ns/day, 0.081 hours/ns, 685.293 timesteps/s
97.7% CPU use with 160 MPI tasks x no OpenMP threads

MPI task timing breakdown:
Section |  min time  |  avg time  |  max time  |%varavg| %total
---------------------------------------------------------------
Pair    | 0.00043726 | 2.9634     | 12.145     | 236.3 | 20.31
Neigh   | 0.00036621 | 0.094897   | 0.36019    |  39.2 |  0.65
Comm    | 0.013773   | 3.6411     | 11.724     | 220.6 | 24.95
Output  | 0.17572    | 0.17815    | 0.18244    |   0.3 |  1.22
Modify  | 0.37399    | 7.5519     | 14.252     | 222.5 | 51.75
Other   |            | 0.1628     |            |       |  1.12

Nlocal:    57.8 ave 196 max 0 min
Histogram: 72 21 27 0 0 0 0 0 13 27
Nghost:    534.612 ave 919 max 0 min
Histogram: 24 0 0 8 8 40 31 16 15 18
Neighs:    0 ave 0 max 0 min
Histogram: 160 0 0 0 0 0 0 0 0 0
FullNghs:  5909.66 ave 23665 max 0 min
Histogram: 102 18 0 0 0 0 0 2 19 19

Total # of neighbors = 945546
Ave neighs/atom = 102.243
Neighbor list builds = 568
Dangerous builds = 0
write_data 	    ${DIR}/data.${NAME}_eq
write_data 	    run_10/data.${NAME}_eq
write_data 	    run_10/data.ibeam_cooling_10_eq

undump              1
unfix               4



################################################
#######         Run Simulation         #########
################################################

reset_timestep      0
timestep	    10.0
log                 ${DIR}/log.run_${NAME}
log                 run_10/log.run_${NAME}
log                 run_10/log.run_ibeam_cooling_10
