
# Set production fixes - Nose/Hoover
#
fix                 4 water temp/csvr ${START_TEMP} ${END_TEMP} 500.0 928347
fix                 4 water temp/csvr 240 ${END_TEMP} 500.0 928347
fix                 4 water temp/csvr 240 227 500.0 928347


## divide "droplet" into core and surface
#region		core_reg cylinder z 135 135 44.6 20 INF units box
#region		surface_reg cylinder z 135 135 44.6 20 INF units box side out
#group		core dynamic all region core_reg
#group		surface dynamic all region surface_reg

## compute pressure core
#compute        peratom_core core stress/atom NULL
#compute        p_core core reduce sum c_peratom_core[1] c_peratom_core[2] c_peratom_core[3]
#variable       press_core equal -(c_p_core[1]+c_p_core[2]+c_p_core[3])/(3*1249982.5)


## compute pressure surface
#compute        peratom_surf surface stress/atom NULL
#compute        p_surf surface reduce sum c_peratom_surf[1] c_peratom_surf[2] #c_peratom_surf[3]
#variable       press_surf equal -(c_p_surf[1]+c_p_surf[2]+c_p_surf[3])/(3*33365)

## compute total pressure of drop
compute        peratom water stress/atom NULL
compute        p water reduce sum c_peratom[1] c_peratom[2] c_peratom[3]
variable       press equal -(c_p[1]+c_p[2]+c_p[3])/(3*50320)


# compute order parameter
compute        3 all orientorder/atom nnn NULL cutoff 3.5

# compute center of mass of bridge
compute 	4 water com

# Run simulation
thermo_style        custom step c_2 press vol etotal ke pe v_press c_1[4] c_4[*]
thermo              200
dump		     1 water custom 400 ${DIR}/prod.${NAME}.dump id type x y z vx vy vz c_3[*] c_peratom[*]
dump		     1 water custom 400 run_14/prod.${NAME}.dump id type x y z vx vy vz c_3[*] c_peratom[*]
dump		     1 water custom 400 run_14/prod.ibeam_cooling_14.dump id type x y z vx vy vz c_3[*] c_peratom[*]
run                 ${STEPS}
run                 5200000
Neighbor list info ...
  update every 1 steps, delay 0 steps, check yes
  max neighbors/atom: 2000, page size: 100000
  master list distance cutoff = 6.67472
  ghost atom cutoff = 6.67472
  binsize = 3.33736, bins = 48 13 9
  2 neighbor lists, perpetual/occasional/extra = 1 1 0
  (1) pair sw, perpetual
      attributes: full, newton on
      pair build: full/bin/atomonly
      stencil: full/bin/3d
      bin: standard
  (2) compute orientorder/atom, occasional, copy from (1)
      attributes: full, newton on
      pair build: copy
      stencil: none
      bin: none
Per MPI rank memory allocation (min/avg/max) = 6.133 | 6.593 | 7.261 Mbytes
Step c_2 Press Volume TotEng KinEng PotEng v_press c_1[4] c_4[1] c_4[2] c_4[3] 
       0    240.94563   -391.19449    181563.75   -13298.881    991.13414   -14290.015   -807.68264    30.245142     78.72037     25.13558    16.483714 
     200    234.55235     -343.374    181563.75   -13304.085    964.83528    -14268.92   -632.56412    32.725911     78.71984     25.13363     16.46537 
     400    230.18619   -342.12118    181563.75   -13310.269    946.87499   -14257.144   -625.23752      33.9657    78.720578    25.129069    16.466702 
     600    228.15002   -273.21738    181563.75   -13380.438    938.49917   -14318.937   -395.57017    35.076623    78.717129    25.124417    16.475231 
     800    234.00851   -352.25174    181563.75   -13397.478    962.59818   -14360.076   -722.39522    35.537535    78.718085      25.1248    16.464145 
    1000    235.89843    -249.6683    181563.75   -13275.751    970.37241   -14246.124   -346.81522     36.82684    78.719659    25.123633    16.492422 
    1200    237.36094   -445.52615    181563.75   -13339.377    976.38847   -14315.766   -1041.3844    38.902023    78.721058    25.118345    16.482015 
    1400     254.1561    -314.9989    181563.75   -13210.712    1045.4757   -14256.188   -641.64488    39.968582    78.721623    25.120135    16.469869 
    1600     251.4544   -374.66885    181563.75   -13242.775    1034.3622   -14277.137   -749.03283    40.682798    78.721071    25.125709    16.472474 
    1800    234.41119   -387.96189    181563.75   -13276.477    964.25464   -14240.732   -817.81143    41.220036    78.724814    25.127229    16.466023 
    2000     245.2905   -238.05144    181563.75   -13167.388    1009.0068   -14176.395   -273.16017    43.429145    78.724035    25.124665    16.474475 
    2200    245.62035   -438.89941    181563.75   -13193.569    1010.3637   -14203.932   -991.52927    45.443512    78.721048    25.120776    16.475886 
    2400    241.88789   -311.15456    181563.75   -13233.096    995.01016   -14228.107   -505.10186    47.097319    78.720227    25.118231    16.460008 
    2600    242.32997   -317.32659    181563.75   -13271.315    996.82866   -14268.144    -524.9155    48.547748     78.72068    25.117028    16.445141 
    2800    246.41225   -336.29944    181563.75   -13235.842    1013.6212   -14249.463   -670.46851    50.633409    78.721026    25.114327    16.459949 
    3000    230.74091   -370.62351    181563.75   -13308.679    949.15687   -14257.836   -760.70931    52.810786    78.723393    25.113421    16.450538 
    3200    236.18026   -290.36375    181563.75   -13317.224    971.53172   -14288.756   -425.18978    54.143908    78.723011    25.112144      16.4623 
    3400    242.30885   -258.76069    181563.75    -13275.46    996.74177   -14272.201   -347.64955    55.454159    78.720363    25.117002    16.499327 
    3600     248.5452   -277.82725    181563.75   -13267.651    1022.3951   -14290.047   -436.80153    55.200324    78.720296    25.118963    16.495274 
    3800     238.5796   -310.91846    181563.75   -13293.097    981.40146   -14274.498   -537.88989    55.585895    78.722183    25.118531    16.486913 
    4000    238.28213   -505.47223    181563.75    -13325.91    980.17779   -14306.088   -1216.5618     57.45442    78.723676    25.119332     16.50678 
    4200    249.42787   -268.66391    181563.75    -13254.62     1026.026   -14280.646   -418.59172    58.253419     78.72315    25.115025    16.483377 
    4400    249.60828   -387.19139    181563.75   -13228.872    1026.7681    -14255.64   -803.87613    59.886284    78.724216    25.112251    16.460591 
    4600    238.38433    -593.0529    181563.75   -13317.806    980.59819   -14298.404   -1565.0387    60.791071    78.725841    25.107142    16.469395 
    4800    244.47527   -292.30714    181563.75   -13274.181    1005.6534   -14279.835   -438.74379    61.675307    78.729995    25.101504     16.44205 
    5000    234.79642   -408.26079    181563.75    -13321.86    965.83925   -14287.699    -867.0097    62.306907    78.733194    25.094821    16.438879 
    5200    233.66649   -403.05888    181563.75   -13301.509    961.19127     -14262.7    -867.7672    64.314839    78.731539    25.098246    16.435799 
    5400    233.27997   -473.20377    181563.75   -13309.288    959.60134   -14268.889   -1103.2223    66.067649    78.732971    25.101077    16.434369 
    5600    229.27737   -305.56596    181563.75   -13367.698    943.13655   -14310.835   -495.32814    66.988288    78.731053     25.10296    16.428316 
    5800    246.65162   -487.41899    181563.75   -13226.183    1014.6058   -14240.788   -1167.6514    69.055292    78.729789    25.099325    16.397704 
    6000     234.6176   -329.45567    181563.75   -13375.407    965.10371    -14340.51   -581.89235    68.950487    78.732165    25.095644    16.391392 
    6200    239.38531    -430.2486    181563.75   -13299.216    984.71574   -14283.932   -959.51188    70.850014    78.731666    25.092963    16.375363 
    6400    241.93753   -379.08635    181563.75   -13260.177    995.21436   -14255.391   -772.93792    70.896581    78.733902    25.091415    16.383326 
    6600      235.821   -320.22655    181563.75   -13330.919    970.05391   -14300.973   -586.24067    71.668884    78.732097    25.090163    16.374024 
    6800    234.44344   -226.66183    181563.75   -13312.503    964.38726   -14276.891    -237.7685    73.020286    78.733415    25.084013    16.391874 
    7000    235.78473   -346.38735    181563.75    -13330.78    969.90471   -14300.684   -671.30848    75.337017    78.734135    25.082821     16.37522 
    7200    242.00342   -168.83486    181563.75   -13284.052    995.48541   -14279.538   -18.450097    76.556684    78.737101    25.085814    16.371131 
    7400    236.23345   -594.60685    181563.75   -13376.475    971.75051   -14348.225   -1521.5764    77.756402    78.734976    25.092224    16.374027 
    7600    236.95805    -265.6763    181563.75   -13405.289    974.73119    -14380.02   -364.23387    79.473912    78.735031     25.09535    16.359354 
    7800    240.53484    -481.5541    181563.75   -13311.493    989.44436   -14300.937   -1158.1068     81.09226    78.738887    25.097503    16.358019 
    8000    236.21544   -322.72651    181563.75   -13309.272    971.67644   -14280.949   -589.42666    80.572284    78.736704    25.099338     16.34801 
    8200    238.90385   -268.81973    181563.75     -13347.2    982.73526   -14329.935   -360.86659    81.091969     78.73639    25.095095    16.318993 
    8400    228.27213     -326.951    181563.75    -13334.78    939.00147   -14273.781   -595.01599    82.916633    78.734917    25.095902    16.338728 
    8600    244.09303   -338.25566    181563.75     -13267.4     1004.081   -14271.481   -635.17994    83.308997    78.732139    25.094016    16.350876 
    8800    239.49824    -342.1492    181563.75   -13285.937    985.18029   -14271.117   -661.94135    84.005108    78.731492    25.095886    16.332035 
    9000    238.10307    -381.7053    181563.75   -13271.821    979.44123   -14251.262   -780.74917    85.494325    78.735303    25.099601    16.342051 
    9200    241.71597    -371.8031    181563.75    -13315.46    994.30295   -14309.763   -766.56475    85.114121    78.733557    25.099514    16.322112 
    9400    238.85912   -302.06063    181563.75   -13311.922    982.55125   -14294.473   -486.52885    87.810965    78.733459    25.103045     16.29713 
    9600    238.63627   -217.81623    181563.75   -13344.747    981.63455   -14326.381   -201.95368     89.28536    78.735302    25.105692    16.303888 
    9800    243.25743   -383.49469    181563.75   -13292.099    1000.6438   -14292.743   -781.25455    92.230325    78.735196    25.104302     16.32055 
   10000    246.69257   -407.67848    181563.75   -13196.485    1014.7743    -14211.26   -910.91161    94.270273    78.731979    25.106951    16.337015 
   10200     245.0677   -470.63513    181563.75   -13234.743    1008.0904   -14242.834    -1100.615    95.529859    78.733598    25.108824    16.328363 
   10400    249.36792   -454.51068    181563.75   -13263.985    1025.7794   -14289.765   -1069.4355    96.667658    78.735333    25.108088    16.309836 
   10600    238.66091   -253.26233    181563.75   -13236.608    981.73591   -14218.344   -395.96468    98.032283    78.733576    25.106644     16.32633 
   10800    234.30318   -457.44143    181563.75   -13276.881    963.81032   -14240.691   -1095.1085    100.23354    78.733416    25.106985    16.300476 
   11000    245.48464   -308.22786    181563.75   -13308.714    1009.8054    -14318.52    -558.0599    102.47447    78.733005    25.106978     16.32484 
   11200    235.34241    -223.6587    181563.75   -13323.191    968.08519   -14291.277   -238.60314    102.78321    78.730022    25.106215    16.328602 
   11400    245.07434     -376.715    181563.75   -13301.396    1008.1177   -14309.514   -790.39256    103.42481    78.731986      25.1093    16.293844 
   11600    244.56791   -496.45611    181563.75   -13282.205    1006.0345    -14288.24   -1273.0075    104.11189    78.732147    25.112969    16.294267 
   11800    246.13281   -333.71689    181563.75   -13281.666    1012.4717   -14294.137   -595.46413    106.05572    78.725405    25.114127     16.26403 
   12000    242.88694   -410.54267    181563.75   -13230.593    999.11977   -14229.713   -918.46038    108.24579    78.724533    25.113979    16.297494 
   12200    244.93677   -406.50185    181563.75   -13278.041    1007.5518   -14285.593   -894.50994    110.65793     78.72596     25.11677    16.290096 
   12400    249.33454   -486.56957    181563.75   -13247.385    1025.6421   -14273.027   -1187.4316    112.94109    78.726941    25.117704    16.284767 
   12600    248.23949   -438.16114    181563.75   -13234.282    1021.1376   -14255.419   -984.61679     112.9189    78.726484    25.119146    16.299284 
   12800     240.9573   -407.30111    181563.75   -13337.203    991.18216   -14328.386   -901.91038    114.76177      78.7252    25.118323    16.276392 
   13000    236.54758   -394.31366    181563.75   -13358.072    973.04269   -14331.114   -834.35951    115.25536    78.722687     25.11681    16.278114 
   13200    236.30211   -246.68832    181563.75   -13309.711    972.03294   -14281.744   -343.13886    114.00487    78.721421    25.115779     16.27489 
   13400    247.59817   -231.58196    181563.75   -13293.177    1018.4995   -14311.677   -281.40361    114.57227    78.718289     25.11479    16.267705 
   13600    242.87074   -95.165789    181563.75   -13304.522    999.05314   -14303.575    230.37346    115.18424    78.717884    25.114614    16.248664 
   13800    230.75553   -331.81595    181563.75    -13363.59      949.217   -14312.807   -643.90491    115.10269    78.717686    25.112533    16.268916 
   14000    239.11883   -385.88458    181563.75   -13339.379    983.61957   -14322.998   -796.56591    117.40468    78.718145    25.112108    16.247363 
   14200    231.90901   -519.05148    181563.75    -13337.27    953.96188   -14291.232    -1284.703    119.61942     78.71967    25.111563    16.256982 
   14400    235.37593   -367.36065    181563.75    -13363.94    968.22309   -14332.163   -729.87338    122.05142    78.722328    25.111127    16.269971 
   14600    240.26916   -280.59349    181563.75   -13321.078    988.35149   -14309.429   -461.45867    123.24802    78.723409    25.109033    16.266051 
   14800    238.26504   -367.22063    181563.75   -13288.606    980.10751   -14268.714   -723.55838    126.38332    78.722589     25.11175    16.291118 
   15000    242.41762   -509.33289    181563.75   -13301.619    997.18922   -14298.808   -1274.3764    129.54418    78.721828    25.112136    16.297985 
   15200    229.88096   -269.60779    181563.75   -13341.295    945.61945   -14286.915   -427.11684    128.01263    78.719213    25.111195    16.272938 
   15400       237.91   -365.54569    181563.75    -13271.57    978.64704   -14250.217    -767.7297    126.60803    78.714108    25.112183    16.265518 
   15600    241.28609   -371.97419    181563.75   -13344.705    992.53462    -14337.24   -783.35867    129.11907    78.714744    25.111005    16.236407 
   15800    241.64593   -221.78293    181563.75   -13273.405    994.01486    -14267.42   -223.56561    132.38022    78.717272    25.113061    16.234511 
   16000    235.28453   -423.76109    181563.75   -13306.212    967.84714   -14274.059   -943.70787    133.56283    78.719608    25.113106    16.233872 
   16200    246.27858   -266.28053    181563.75   -13222.311    1013.0713   -14235.382   -358.54747    135.45742    78.718534    25.110673    16.228392 
   16400    247.70857   -326.26366    181563.75   -13193.662    1018.9536   -14212.615   -590.32522    137.30998    78.717429    25.107329    16.219583 
   16600    237.39888   -406.54569    181563.75   -13253.405    976.54452    -14229.95   -885.47293    141.09219    78.715386    25.108372     16.21976 
   16800    234.87952   -224.08517    181563.75   -13267.566    966.18108   -14233.747   -230.10924    141.95038    78.714048    25.106315    16.250798 
   17000    239.88378   -314.61074    181563.75   -13274.294     986.7662    -14261.06   -542.42433    144.51976    78.716426    25.104876    16.243081 
   17200    240.01768   -436.64604    181563.75   -13277.814    987.31703   -14265.131    -985.9475    146.78841     78.71582    25.107984    16.238794 
   17400    240.11949   -484.54219    181563.75   -13259.121    987.73579   -14246.857   -1151.0345    147.92343    78.715707    25.111438    16.255149 
   17600    253.41427   -515.81034    181563.75   -13209.007    1042.4241   -14251.431    -1277.069    147.28422    78.713877    25.110721    16.250562 
   17800    238.09961   -165.05234    181563.75   -13249.176    979.42699   -14228.603   -27.360847    148.22014    78.712561    25.107576    16.261931 
   18000    238.28327   -316.48252    181563.75   -13269.258    980.18249   -14249.441   -569.20995    149.83815    78.712155    25.102478    16.264467 
   18200    239.83658   -492.22071    181563.75   -13270.598    986.57204    -14257.17   -1191.4552    150.90824    78.712737    25.103812    16.233521 
   18400    235.36537   -263.48409    181563.75    -13287.37    968.17964   -14255.549   -370.23826    151.76278    78.712333    25.103694    16.260133 
   18600    244.62355   -391.04349    181563.75   -13257.428    1006.2633   -14263.691   -876.80474    153.30414    78.711705    25.104187    16.281038 
   18800    246.88078   -370.98445    181563.75    -13298.67    1015.5485   -14314.219   -746.42286    154.89522    78.713844    25.103931    16.296123 
   19000    245.68835   -376.04781    181563.75   -13289.072    1010.6434   -14299.716   -740.49342    156.46469    78.712624    25.107654    16.305456 
   19200    244.38881   -468.23776    181563.75    -13280.96    1005.2977   -14286.258   -1093.4301    156.11586    78.708486    25.112741    16.300555 
   19400    251.08966   -319.20198    181563.75   -13296.982    1032.8618   -14329.844   -562.98595    158.19546     78.70876     25.11613    16.285713 
   19600    242.87464   -526.22371    181563.75    -13372.23    999.06917   -14371.299   -1310.9681    159.52513    78.708435    25.117874    16.309189 
   19800    241.92017   -252.99559    181563.75   -13329.431    995.14295   -14324.573   -308.07447    159.42722    78.709064    25.118835    16.307263 
   20000    239.67626    -494.5558    181563.75   -13356.286    985.91256   -14342.199   -1166.8172    158.97608    78.711397    25.116567    16.294019 
   20200    236.55451    -371.6386    181563.75     -13354.2     973.0712   -14327.272   -785.39615    158.63245    78.717715    25.114891    16.295434 
   20400    236.90313   -453.30893    181563.75   -13386.922    974.50525   -14361.428   -1039.9047    158.69648     78.72093    25.111082    16.302433 
   20600    238.66382   -188.77914    181563.75   -13319.324    981.74787   -14301.072   -139.81048    160.01953    78.724382    25.106094    16.296022 
   20800    236.91275   -378.60279    181563.75   -13314.508    974.54484   -14289.053   -780.77374    160.12962    78.726393    25.104372    16.278003 
   21000     237.4116   -363.35125    181563.75   -13264.567    976.59687   -14241.164   -716.67661    162.25297    78.726758    25.105729    16.280721 
   21200     238.4273   -344.24213    181563.75   -13262.495    980.77496    -14243.27   -650.81405    165.34943    78.729144    25.102113    16.299394 
   21400    238.64633   -327.53054    181563.75   -13315.004    981.67592    -14296.68   -623.67777    169.33219    78.723423    25.097908    16.302443 
   21600    241.19303   -302.43911    181563.75   -13272.298    992.15184    -14264.45   -522.66684    171.64024    78.721717    25.098098    16.320067 
   21800    243.96023   -431.64791    181563.75   -13272.197    1003.5347   -14275.732   -958.78619    173.97646    78.719659    25.098593    16.299859 
   22000    243.24534   -342.15592    181563.75   -13305.069    1000.5941   -14305.663   -672.12181    174.10564    78.718589    25.095793    16.316773 
   22200    247.89237   -318.83782    181563.75   -13280.864    1019.7097   -14300.573     -531.716    175.74544    78.721264    25.097167    16.320871 
   22400    239.35723   -388.57217    181563.75   -13289.923    984.60023   -14274.524   -807.98803    177.82171    78.723441    25.096622     16.33537 
   22600    237.81614    -252.9732    181563.75   -13304.053    978.26094   -14282.314   -298.35177    180.20503    78.722613    25.096031    16.326563 
   22800    239.64597   -299.01355    181563.75   -13278.664    985.78799   -14264.452    -501.9001    184.44772    78.718672     25.09452    16.334319 
   23000    236.97763   -294.05246    181563.75   -13289.517    974.81173   -14264.329    -494.9919    184.52929    78.713369    25.093317    16.310123 
   23200    240.30305   -519.33716    181563.75   -13301.398    988.49091   -14289.889     -1316.23    185.35916    78.710338    25.094319    16.300882 
   23400    241.47719   -252.61371    181563.75   -13252.677    993.32074   -14245.998   -370.57176    183.88921    78.706291    25.097503    16.306895 
   23600    241.58934   -249.03106    181563.75   -13319.248    993.78206    -14313.03   -312.85888    184.70522    78.706064    25.102275    16.344188 
   23800     236.3954   -382.90736    181563.75   -13334.631    972.41671   -14307.048   -776.16383    185.24971    78.707299    25.105133    16.333567 
   24000    240.59046   -415.32882    181563.75   -13283.008    989.67317   -14272.682   -919.09684    187.58671    78.709291    25.108289    16.339731 
   24200     246.1911   -430.50159    181563.75   -13294.898    1012.7115    -14307.61   -981.26987    190.71663    78.711209    25.104604    16.311985 
   24400    244.95938   -314.21744    181563.75   -13290.379    1007.6448   -14298.023   -519.91717    190.31432    78.714685    25.104688    16.309513 
   24600    229.85542    -442.7248    181563.75   -13313.679    945.51437   -14259.193   -1046.9268    191.36985    78.715144    25.105447    16.302832 
   24800    242.10831   -313.60571    181563.75   -13293.068    995.91686   -14288.984   -541.59787    194.03169    78.710986    25.109115    16.320178 
   25000    236.72692   -294.15456    181563.75   -13300.766     973.7804   -14274.547   -537.19684    195.53421    78.710525    25.111913    16.344209 
   25200    243.75105   -288.32145    181563.75   -13286.267    1002.6743   -14288.941    -446.5906    194.25574    78.710984    25.110274    16.345407 
   25400    247.27516   -302.53028    181563.75    -13334.75    1017.1708   -14351.921   -507.89255    192.93729    78.708408    25.113104    16.328816 
   25600    244.23528   -484.61879    181563.75   -13312.025    1004.6662   -14316.691   -1176.6057    190.48813    78.709704    25.110272    16.331451 
   25800    241.24837   -415.19939    181563.75   -13336.872    992.37949   -14329.252   -926.76474    188.47406    78.712368    25.107785    16.307826 
   26000    237.56714   -399.47139    181563.75   -13358.914    977.23666   -14336.151   -880.84754     189.6819    78.712635    25.108194    16.305828 
   26200    245.80585   -431.11561    181563.75   -13315.921    1011.1268   -14327.048   -958.41789    190.07759    78.712773     25.11018     16.33839 
   26400    233.85047   -412.21691    181563.75   -13364.899    961.94807   -14326.847   -896.60405    189.66946    78.711683    25.107176    16.359417 
   26600    239.36546    -351.0159    181563.75   -13348.434    984.63408   -14333.068   -658.68712    193.78053    78.712077    25.105766    16.365006 
   26800    241.39996   -493.05352    181563.75   -13288.304    993.00306   -14281.307     -1197.67    193.72137    78.709116    25.103758    16.395416 
   27000    244.27206    -390.2777    181563.75   -13341.028    1004.8175   -14345.845   -807.44016    192.71872    78.706804    25.103483    16.388721 
   27200    246.65385   -429.76509    181563.75    -13282.32     1014.615   -14296.935   -975.73171    194.99768    78.705439    25.105294    16.400031 
   27400    240.39592   -206.09619    181563.75   -13264.882    988.87292   -14253.755   -159.81485    197.97684    78.705323     25.10722    16.410182 
   27600    240.08865   -434.31644    181563.75   -13288.135    987.60896   -14275.744   -972.63105    199.32759    78.703943    25.106219    16.396993 
   27800    229.48714   -450.44779    181563.75   -13368.851    943.99943   -14312.851   -1066.0351    201.53338    78.704137    25.107513    16.391149 
   28000    236.68991   -511.08632    181563.75   -13352.748    973.62817   -14326.376   -1212.0088    200.73266    78.700315     25.10586    16.389656 
   28200    243.70905   -387.11639    181563.75   -13311.809    1002.5015   -14314.311   -825.75981     202.5979    78.697216     25.10532    16.381023 
   28400    244.49499   -296.19208    181563.75   -13331.058    1005.7345   -14336.792   -485.69159    200.89637    78.696428    25.109803    16.414444 
   28600    238.17915   -530.18395    181563.75   -13343.316     979.7542    -14323.07   -1292.5477    201.87898    78.696608    25.111445    16.390313 
   28800    230.05443   -476.44746    181563.75   -13389.588    946.33302   -14335.921     -1159.94     202.8014    78.695148    25.105785    16.397136 
   29000    234.03362   -266.62726    181563.75   -13361.808    962.70148   -14324.509   -366.49058    202.93853    78.691868     25.10509    16.381952 
   29200    241.88787   -469.12601    181563.75   -13350.951    995.01006   -14345.961    -1086.825    204.35366    78.689601    25.107043    16.376418 
   29400    242.34685     -261.291    181563.75   -13332.113    996.89809   -14329.012   -340.40058    205.48353     78.68929    25.109062    16.377303 
   29600    239.37564   -359.20851    181563.75   -13324.665    984.67597   -14309.341   -712.46027    207.14151    78.692645    25.107536    16.370518 
   29800    248.99643   -425.69637    181563.75   -13261.918    1024.2513    -14286.17   -918.32437     207.8776    78.696316    25.104161    16.368327 
   30000    239.62366   -364.59123    181563.75   -13276.319    985.69619   -14262.015   -767.12828    210.04378    78.698905    25.103642    16.363837 
   30200    239.86083   -345.16943    181563.75   -13331.972    986.67181   -14318.643   -652.80588    212.19338     78.69953    25.102012    16.361583 
   30400    231.38418    -316.4798    181563.75   -13375.501    951.80297   -14327.304    -567.5814    212.00986    78.699735    25.104619    16.360955 
   30600    231.15059   -435.15991    181563.75   -13398.741    950.84209   -14349.583   -971.16286    213.26613    78.699908    25.110033    16.363212 
   30800    234.86143   -425.07801    181563.75   -13372.475    966.10667   -14338.582    -920.1289    215.42735    78.699178    25.110803    16.346466 
   31000    237.33602   -433.16261    181563.75   -13370.239    976.28595   -14346.525   -977.47201    214.86991    78.700426    25.110653    16.365121 
   31200    236.53599   -384.20333    181563.75   -13306.843    972.99504   -14279.838   -785.20196    217.27137    78.699448    25.110998    16.354111 
   31400    233.92327   -468.92631    181563.75   -13313.717    962.24753   -14275.965   -1058.3729    219.76466    78.694942    25.115074    16.385445 
   31600    238.03996   -329.82943    181563.75   -13257.573    979.18165   -14236.755   -626.52702    219.84366    78.694525    25.116267    16.380913 
   31800    236.89524   -472.45591    181563.75   -13336.901     974.4728   -14311.374   -1123.5745    221.86211     78.69252    25.118313    16.369157 
   32000    244.18524   -289.80831    181563.75   -13318.764    1004.4603   -14323.225    -473.6163    222.57896    78.692338    25.120663    16.346861 
   32200     235.2274   -300.37978    181563.75    -13351.01    967.61209   -14318.622   -536.75831    224.02585    78.694587    25.118433    16.357314 
   32400    240.12438   -272.44984    181563.75   -13336.955    987.75594   -14324.711   -401.07733    225.78089    78.692198    25.116766    16.332689 
   32600     240.2276   -315.00746    181563.75    -13293.72    988.18053   -14281.901   -559.29857    228.00614    78.689006    25.120405    16.331815 
   32800    240.55057   -413.22251    181563.75   -13319.295    989.50908   -14308.804   -923.91946    231.38767      78.6881    25.117148    16.353666 
   33000    243.21843   -292.22693    181563.75   -13296.638    1000.4834   -14297.122   -501.57801    231.26744    78.688846    25.115485    16.350594 
   33200     242.7176   -337.67045    181563.75   -13293.016    998.42319    -14291.44   -615.77813    231.86883     78.68642    25.113682     16.36065 
   33400    231.76329   -478.90848    181563.75   -13281.513    953.36244   -14234.876   -1116.2085    233.05479    78.687179    25.116208    16.348815 
   33600    237.36419    -294.9319    181563.75   -13313.636    976.40182   -14290.037   -508.57311    232.95868    78.685639     25.11975    16.382939 
   33800    245.87448   -411.07019    181563.75   -13289.693    1011.4091   -14301.102   -932.70894    235.78568    78.685246    25.122517    16.399514 
   34000    237.70575   -283.28041    181563.75   -13290.746    977.80685   -14268.553   -425.04186    236.15051    78.680537    25.123902    16.377397 
   34200    237.53274   -136.99714    181563.75   -13343.877    977.09515   -14320.972    91.454413    237.01381    78.675941    25.120042    16.391348 
   34400    236.74027   -320.12324    181563.75   -13364.782    973.83532   -14338.617   -547.72375    240.25746     78.67517    25.117959    16.385936 
   34600    235.96136   -356.60576    181563.75   -13311.934    970.63127   -14282.565   -719.01545    242.91091    78.675246    25.122344    16.420521 
   34800      246.615    -305.2414    181563.75   -13282.548    1014.4552   -14297.003   -477.69299    243.55339    78.671814    25.126562    16.422183 
   35000    241.52572   -303.96558    181563.75   -13294.823    993.52037   -14288.343   -501.67696    242.93321    78.669219    25.128954    16.408647 
   35200    244.08615   -426.55327    181563.75   -13275.137    1004.0527    -14279.19   -951.02148    242.71595    78.668861    25.130037    16.414938 
   35400    244.43784   -446.25313    181563.75   -13253.672    1005.4994   -14259.172   -1011.1377    242.37022    78.668572     25.12972    16.399486 
   35600    238.30561    -446.1232    181563.75   -13331.106     980.2744    -14311.38   -1085.7711    243.38308    78.667723    25.133075    16.382046 
   35800    245.10556   -359.67216    181563.75   -13284.921    1008.2461   -14293.167   -655.41773    245.77469    78.666232      25.1327    16.379159 
   36000    239.66233   -274.21351    181563.75    -13328.21    985.85529   -14314.066   -468.64317    247.95373    78.666944     25.13098    16.403276 
   36200    241.46128   -319.93031    181563.75   -13335.515     993.2553    -14328.77   -594.47064    250.19633    78.663456    25.128727    16.392288 
   36400     242.6094   -358.19936    181563.75   -13290.769     997.9781   -14288.747   -688.55589    252.88078    78.663872    25.125952    16.422161 
   36600    231.77617   -172.13859    181563.75    -13304.26    953.41543   -14257.676   -57.963889    257.45494    78.667895      25.1239    16.420817 
   36800    233.08741   -317.10177    181563.75   -13342.209    958.80922   -14301.018   -585.70306    260.74004    78.665856    25.119384    16.408966 
   37000    236.77915   -376.14689    181563.75   -13260.382    973.99527   -14234.378   -767.49342    263.54544    78.663856    25.118498    16.379655 
   37200    232.64294    -300.5428    181563.75    -13304.22    956.98088   -14261.201   -582.62589    263.17793    78.666423    25.118865    16.349822 
   37400    242.60056   -388.43499    181563.75   -13253.215    997.94175   -14251.157    -832.5498    262.48847    78.670017    25.123936    16.345901 
   37600    241.59725   -471.59709    181563.75    -13238.74    993.81462   -14232.554   -1158.3328    262.31005    78.672713    25.126569    16.329359 
   37800    233.62655   -317.39785    181563.75   -13288.237      961.027   -14249.264   -574.65299     260.0076      78.6724    25.128905    16.341687 
   38000    229.83453   -502.62364    181563.75   -13257.736    945.42844   -14203.164   -1246.0065    260.21618    78.672214    25.131615    16.304533 
   38200    241.84063    -431.2081    181563.75   -13237.207    994.81576   -14232.023   -967.02402    260.58319    78.669396    25.131395    16.301584 
   38400    252.57688   -430.08262    181563.75   -13209.723    1038.9795   -14248.702   -1011.1403    260.08369    78.668369     25.13031    16.299118 
   38600    244.05864   -221.95955    181563.75   -13248.573    1003.9396   -14252.513   -235.48125    262.63476    78.666884     25.13048    16.299342 
   38800    238.30222   -338.49007    181563.75   -13269.384    980.26043   -14249.645   -613.99865    265.50926     78.66621    25.129375    16.317296 
   39000    239.98467   -359.14979    181563.75   -13268.201    987.18122   -14255.383   -751.22527    268.94884    78.664404    25.127988    16.317508 
   39200     242.3736   -307.82812    181563.75   -13343.756    997.00812   -14340.764   -532.18467    270.11461    78.662668    25.126553    16.338956 
   39400     240.2885   -464.86384    181563.75   -13289.523    988.43103   -14277.954   -1078.2213    271.18902    78.661672    25.129864    16.300882 
   39600    236.90657   -397.78003    181563.75   -13309.129     974.5194   -14283.649    -877.9601    270.87428    78.658067    25.129529    16.315365 
   39800    238.18072   -262.91872    181563.75   -13198.668    979.76064   -14178.429   -380.14961    265.86649    78.658402     25.13017    16.302634 
   40000    233.81794   -215.45337    181563.75   -13324.603    961.81428   -14286.418   -218.38806    264.43474    78.659998    25.127937    16.322565 
   40200    237.00826   -281.17717    181563.75   -13377.954    974.93772   -14352.892   -425.78213    264.98625    78.657814    25.125222    16.310209 
   40400    246.64625   -272.34188    181563.75   -13302.393    1014.5837   -14316.977   -377.04074    271.23742     78.65616    25.122597    16.283937 
   40600    229.37531   -277.83976    181563.75   -13432.033    943.53944   -14375.573   -394.89772    275.40469    78.655207    25.124309    16.278647 
   40800    233.81239   -196.94475    181563.75    -13356.72    961.79143   -14318.512   -122.50128    277.56342    78.655415    25.126012    16.291154 
   41000    239.87891   -356.31287    181563.75   -13306.267    986.74617   -14293.013    -693.0979    274.77396    78.655331    25.122582    16.271163 
   41200    242.36111   -463.86341    181563.75   -13319.865    996.95675   -14316.821   -1075.5584     270.0233    78.652313    25.122009    16.267096 
   41400    234.93715   -285.94389    181563.75   -13277.798    966.41815   -14244.216   -439.52935    266.91906    78.649215    25.124325    16.280603 
   41600    249.04338   -310.21971    181563.75   -13237.854    1024.4444   -14262.298   -500.22289    265.09027    78.649686    25.123509    16.311745 
   41800    236.67147   -260.74476    181563.75   -13277.412    973.55232   -14250.964   -372.39762    265.52862    78.645624    25.120567    16.318481 
   42000    243.04709   -258.16429    181563.75   -13284.449    999.77853   -14284.228   -344.23569     267.2072    78.646144    25.125224    16.310051 
   42200    239.41647   -382.13083    181563.75    -13278.64    984.84391   -14263.484   -763.08326    270.66652    78.645028    25.127939     16.28013 
   42400    246.42128   -484.05936    181563.75   -13281.706    1013.6583   -14295.364   -1174.3749    273.89947    78.643013    25.133705    16.295258 
   42600    247.52635   -303.64943    181563.75    -13261.23    1018.2041   -14279.434   -522.75654    275.45692    78.639079    25.136345    16.272255 
   42800    241.20251    -385.1688    181563.75   -13227.859    992.19086    -14220.05   -795.37793    274.80528    78.640138    25.137899     16.31608 
   43000    241.01502   -355.73286    181563.75   -13232.726     991.4196   -14224.146    -728.5322    275.65105    78.637167    25.132192    16.353738 
   43200     245.6249   -322.17506    181563.75   -13224.431    1010.3824   -14234.814   -601.87536    274.91312    78.636066    25.128289    16.370333 
   43400    236.89235   -405.78047    181563.75   -13278.041     974.4609   -14252.502   -895.52153    272.57209    78.634088    25.122034    16.378311 
   43600    237.27414   -247.44992    181563.75   -13291.021     976.0314   -14267.053   -311.50436    273.57143    78.627477    25.119886    16.376543 
   43800    238.52871   -262.47961    181563.75   -13247.486    981.19213   -14228.678   -368.02528    276.60106    78.625732    25.118601    16.403732 
   44000    235.71287   -321.74703    181563.75   -13286.128    969.60908   -14255.737   -572.10515    275.55841    78.629164    25.116853     16.40777 
   44200    238.69459   -428.87737    181563.75   -13223.888    981.87448   -14205.763   -968.39214    277.72129    78.627201    25.113541    16.417851 
   44400    250.85845   -403.81071    181563.75   -13176.596    1031.9107   -14208.507   -896.14239    279.61717    78.628172    25.114944     16.41547 
   44600     232.1484   -443.76025    181563.75   -13262.578    954.94659   -14217.524   -1034.9531    285.15409    78.628865    25.112221    16.385606 
   44800    241.67915   -296.46269    181563.75   -13288.474    994.15151   -14282.625   -526.78923    282.54989    78.627126    25.110557    16.365667 
   45000    244.83481   -441.27027    181563.75   -13294.514    1007.1324   -14301.646    -969.3278    285.63776    78.626895    25.106822    16.364572 
   45200    249.49663   -504.96746    181563.75   -13213.709    1026.3088   -14240.018   -1228.1666    286.03112     78.62717    25.103928    16.357416 
   45400    255.21517    -276.0438    181563.75   -13205.065    1049.8322   -14254.897   -422.03135    283.83573    78.625242    25.099362    16.391862 
   45600    234.98123    -365.4306    181563.75   -13222.383    966.59948   -14188.982   -781.15808    288.28646    78.622867    25.098456    16.407727 
   45800    237.60553   -339.20881    181563.75   -13298.558    977.39461   -14275.953   -595.18463    287.48335     78.62006    25.096663    16.415653 
   46000    240.37014    -430.0948    181563.75    -13273.89    988.76686   -14262.657    -929.0852     287.0229    78.619496    25.095645    16.431009 
   46200    249.44272   -378.31751    181563.75   -13272.193    1026.0871    -14298.28    -812.1777    287.06123    78.617182    25.093453    16.399273 
   46400    241.15214     -353.789    181563.75   -13221.001    991.98365   -14212.985   -741.42963    288.74467    78.612076    25.089557    16.411244 
   46600    243.85947   -361.19657    181563.75    -13283.05    1003.1203   -14286.171   -700.42907    294.08446    78.610664    25.084636    16.417964 
   46800    248.38595   -244.86916    181563.75    -13227.34      1021.74    -14249.08    -354.1563    294.31397    78.612952    25.085842    16.410379 
   47000    244.02924   -281.18306    181563.75   -13192.848    1003.8186   -14196.667    -463.5875    298.27785    78.614638    25.086715    16.398971 
   47200     240.9228   -412.62809    181563.75   -13263.181    991.04024   -14254.221   -928.32478    304.08578    78.613222    25.087154    16.375548 
   47400    240.19678   -318.73992    181563.75   -13230.805    988.05374   -14218.859    -544.5733    303.51143    78.609985     25.08988    16.383712 
   47600    243.15854   -422.51954    181563.75   -13282.649     1000.237   -14282.886   -936.73183     304.4542    78.612062    25.088678     16.38426 
   47800    238.48434   -300.83328    181563.75   -13297.225     981.0096   -14278.235   -486.90068    303.56508    78.611956    25.085084    16.379329 
   48000    240.07058   -308.99765    181563.75   -13322.194    987.53462   -14309.728   -577.61643    303.94478    78.609815    25.085059    16.386248 
   48200    235.13735   -309.76872    181563.75   -13329.133    967.24168   -14296.375   -539.72187    305.10924    78.609058    25.090505    16.378994 
   48400    243.55564   -313.37747    181563.75   -13335.412    1001.8705   -14337.283   -535.84446    304.21068     78.61333    25.096346    16.375838 
   48600    239.18017   -411.13022    181563.75    -13303.65    983.87191   -14287.522   -868.29709    304.16347    78.610171    25.097424      16.3904 
   48800    246.68797    -390.3507    181563.75   -13288.849    1014.7554   -14303.604   -837.41326    304.70954    78.609599    25.094539    16.366135 
   49000    236.86133   -331.78953    181563.75   -13255.935     974.3333   -14230.268    -593.1198    306.88203    78.608092    25.092986    16.383858 
   49200    241.96628   -498.79062    181563.75   -13243.109     995.3326   -14238.442   -1243.0795    305.81088    78.608708    25.094641     16.39367 
   49400    236.32381   -435.99192    181563.75   -13256.219    972.12223   -14228.342   -1032.4273    307.51067    78.608919    25.091554    16.389003 
   49600     234.1826   -415.66503    181563.75   -13302.696    963.31432    -14266.01   -881.44028    311.61074    78.603761    25.091575    16.384654 
   49800    236.64229   -417.93798    181563.75    -13348.89    973.43229   -14322.323   -938.20123    309.46095    78.601528    25.092218    16.408117 
   50000    232.42375   -361.85121    181563.75   -13361.745    956.07923   -14317.825   -708.50248    308.39686    78.598497    25.089107    16.443989 
   50200    242.68114   -375.56061    181563.75   -13276.282    998.27319   -14274.555    -744.2369    309.14347    78.596994    25.087598    16.454691 
   50400    239.63865   -403.63461    181563.75   -13290.277    985.75787   -14276.035   -839.96445    309.66112    78.597044     25.08585    16.459889 
   50600    232.72372     -534.174    181563.75   -13371.024    957.31316   -14328.337    -1301.583    312.19485    78.594906    25.080659    16.444386 
   50800    236.87946   -277.80609    181563.75   -13363.843    974.40789   -14338.251   -429.77014    310.72912    78.593638    25.082219    16.439516 
   51000    242.59744   -513.52642    181563.75   -13291.647    997.92891   -14289.576   -1308.1044    311.91925    78.597912    25.079872    16.458697 
   51200    238.34322   -270.44645    181563.75   -13350.612    980.42911   -14331.042   -414.90473    311.64797    78.597407    25.080873    16.469699 
   51400    235.65792   -198.38481    181563.75   -13297.885    969.38305   -14267.268   -141.41478    313.71119    78.595054    25.082516    16.485189 
   51600    244.88182   -310.48575    181563.75   -13292.359    1007.3258   -14299.685   -548.06975    313.30426    78.594629    25.084668    16.455687 
   51800    241.97135   -357.03874    181563.75   -13251.928    995.35347   -14247.282   -699.48454    312.81307    78.594765    25.088743    16.447844 
   52000    239.34157    -361.3565    181563.75   -13319.338    984.53584   -14303.874   -725.60953    314.65596    78.596693    25.091483    16.452652 
   52200    250.47961   -451.53505    181563.75   -13310.785    1030.3524   -14341.137   -1014.7721    315.36323    78.601237    25.094526    16.441675 
   52400    238.78184   -326.31825    181563.75   -13319.173    982.23336   -14301.406   -621.69683    313.69422      78.6044    25.091219    16.427783 
   52600    236.66496   -432.03602    181563.75   -13302.753    973.52554   -14276.279   -945.51083    314.86823    78.609524     25.09299    16.446257 
   52800    227.95036   -287.10401    181563.75    -13359.58    937.67788   -14297.258   -454.13208    312.99383    78.613375    25.096768    16.462977 
   53000    231.28927   -446.99225    181563.75    -13357.46    951.41256   -14308.873   -1029.6717    313.72736    78.611371    25.104054     16.47871 
   53200    233.08263   -468.60998    181563.75   -13312.808    958.78958   -14271.598    -1135.132    314.45461    78.611129    25.105086    16.466974 
   53400    239.14514   -409.04274    181563.75   -13305.189    983.72781   -14288.917   -887.69987    315.57941    78.610194    25.103075    16.479284 
   53600     240.7609   -293.31122    181563.75   -13256.448    990.37425   -14246.822   -498.52975    317.32003    78.609238    25.101131    16.469693 
   53800    241.32902   -346.66851    181563.75   -13276.309    992.71124    -14269.02   -641.62487    317.68196    78.610644    25.102814    16.450113 
   54000    244.37894   -408.16073    181563.75   -13206.009    1005.2572   -14211.266   -881.19426     317.7472    78.607776    25.104109     16.43781 
   54200     232.1216    -413.5203    181563.75   -13315.486    954.83636   -14270.322   -925.62094    320.53188    78.605578    25.100238    16.440041 
   54400    242.05571   -369.59133    181563.75   -13305.438    995.70051   -14301.138   -750.11932    325.02981    78.607729    25.097443    16.443209 
   54600    242.40914   -312.87301    181563.75   -13300.073    997.15434   -14297.227   -509.12337    325.87922    78.608686    25.095596    16.448162 
   54800    249.73513   -381.89971    181563.75   -13257.552    1027.2899   -14284.841   -804.21299    328.42063    78.614005    25.096604     16.45154 
   55000    238.04287   -241.51622    181563.75   -13321.054    979.19361   -14300.247   -259.59279    328.00476    78.616198     25.09803     16.44495 
   55200    242.97314   -282.73063    181563.75   -13310.154    999.47433   -14309.628   -418.96782    328.17665     78.61474    25.100526     16.42788 
   55400    237.97844   -261.37542    181563.75   -13252.611    978.92856   -14231.539   -314.28049    329.41363    78.615384    25.098782    16.450613 
   55600    238.93955   -612.32776    181563.75   -13291.447    982.88209   -14274.329   -1618.5561    332.45466    78.618603    25.098841    16.499367 
   55800     237.0719   -414.72383    181563.75   -13356.537    975.19949   -14331.736    -950.2261    334.56019    78.621559    25.098201     16.49836 
   56000    232.39071   -273.51809    181563.75   -13401.438    955.94335   -14357.382   -413.32397    338.89215    78.619625    25.096651    16.501938 
   56200    240.86983   -339.62243    181563.75   -13314.555    990.82237   -14305.378   -601.84818    339.65662    78.619465    25.097177    16.489746 
   56400    238.28766    -293.1697    181563.75   -13305.374    980.20055   -14285.575   -482.33989    339.48717    78.618889    25.093986    16.514055 
   56600    235.71087   -450.26076    181563.75   -13361.179    969.60086   -14330.779   -1054.7304    339.44418    78.616791    25.092367    16.490387 
   56800    229.91066    -399.0411    181563.75   -13376.362     945.7416   -14322.104   -827.94864    341.26573    78.614666    25.093874    16.455985 
   57000    230.12217   -388.23177    181563.75   -13369.821    946.61166   -14316.432   -800.15864    341.88849    78.614721    25.093402     16.44449 
   57200    233.68742   -570.35054    181563.75   -13365.082    961.27737   -14326.359   -1502.7191    342.47246    78.609553    25.093385     16.43571 
   57400    242.73299    -408.4359    181563.75   -13331.069    998.48649   -14329.555   -855.90667    342.20707    78.606292    25.096387    16.444035 
   57600    241.92037   -453.35442    181563.75   -13236.129    995.14375   -14231.273   -1071.2524    344.32265    78.605649    25.096836    16.449475 
   57800    238.68009   -490.10713    181563.75   -13256.508    981.81481   -14238.323    -1171.796    345.78685    78.606354    25.096653     16.43975 
   58000    238.68141   -366.41923    181563.75   -13249.359    981.82025   -14231.179   -720.51463    344.22279    78.608557    25.095675    16.423559 
   58200    229.03106   -470.35309    181563.75   -13284.979    942.12337   -14227.103   -1117.8074    344.53359    78.608691    25.094257    16.395957 
   58400    237.45897    -364.8371    181563.75   -13303.928     976.7917    -14280.72   -731.64089    346.57672    78.609369    25.097439    16.431427 
   58600    246.21599   -177.92339    181563.75   -13320.358    1012.8139   -14333.172   -61.723099    347.82883    78.612326    25.098966    16.413036 
   58800    241.08919   -313.64892    181563.75   -13330.062    991.72469   -14321.787   -556.02449    349.76309    78.612344     25.10281    16.403065 
   59000    240.22491   -214.40824    181563.75   -13323.215    988.16946   -14311.385   -180.01989    350.15408    78.607546    25.101782    16.396428 
   59200    236.61942   -467.91175    181563.75   -13293.416    973.33822   -14266.754   -1118.5485    350.01653    78.608807     25.10424    16.369376 
   59400    244.83738   -436.38864    181563.75   -13298.855     1007.143   -14305.998   -952.93136    351.83143    78.608092    25.104546    16.368484 
   59600    241.74083   -356.25025    181563.75   -13251.849    994.40522   -14246.254   -709.82854    351.19995    78.606833     25.10612    16.367906 
   59800      244.592   -307.10063    181563.75   -13273.621    1006.1336   -14279.755   -551.41295    352.22965    78.608759    25.107018    16.333734 
   60000    234.11287   -365.07853    181563.75   -13302.175    963.02748   -14265.202    -718.1798    352.60439    78.608035    25.107259    16.351027 
   60200    247.61096    -424.5026    181563.75   -13250.173    1018.5521   -14268.725   -977.74663    353.51805    78.604722    25.108585    16.363173 
   60400    235.26675   -294.85403    181563.75    -13322.47    967.77397   -14290.244   -481.71398    354.99708     78.60423    25.109565    16.354581 
   60600    243.36154   -284.54247    181563.75   -13282.336    1001.0721   -14283.408   -449.33963    355.42207    78.605288    25.112394    16.339148 
   60800    246.65187   -519.83377    181563.75   -13306.403    1014.6069    -14321.01   -1297.5931    356.17473     78.60295    25.111451    16.348351 
   61000    226.63133   -320.67291    181563.75   -13380.182    932.25203   -14312.434   -574.99562     355.0871    78.598542    25.117695    16.354665 
   61200    232.31186   -309.68426    181563.75   -13338.269    955.61899   -14293.888   -512.91296    357.02761    78.601347    25.115115    16.363007 
   61400    235.56521   -363.90573    181563.75   -13327.213    969.00171   -14296.214   -738.58281    356.47269    78.604233    25.115392    16.364581 
   61600    235.15812   -377.45388    181563.75   -13310.415    967.32713   -14277.742   -770.26333    357.32053    78.605371    25.116484    16.346626 
   61800    246.76807   -313.51269    181563.75    -13273.61    1015.0849   -14288.695   -506.57956    358.12493    78.607714    25.116128    16.349787 
   62000    238.09294   -367.96767    181563.75   -13303.412    979.39954   -14282.812   -798.50788    359.53748    78.609773    25.117711    16.362348 
   62200    240.72767   -432.21953    181563.75    -13210.53    990.23756   -14200.767   -985.01288    364.59566    78.610466     25.11365    16.387945 
   62400     242.6791   -281.91625    181563.75   -13207.903    998.26481   -14206.168   -419.93034    367.52882    78.611759    25.118996    16.371737 
   62600    236.82006   -339.91889    181563.75   -13292.516    974.16355   -14266.679    -673.3241    369.61631    78.611709    25.119838    16.352682 
   62800    238.72519   -428.47709    181563.75   -13303.934    982.00033   -14285.935   -994.02034    372.77537    78.612313    25.115849    16.319861 
   63000    237.20221   -480.97724    181563.75    -13269.29    975.73551   -14245.025   -1152.4518     374.3681    78.610999     25.11422    16.310748 
   63200     229.6638   -321.89897    181563.75   -13311.709    944.72614   -14256.435   -606.66944    372.49258    78.609121    25.107588    16.321617 
   63400    235.30851   -453.60009    181563.75   -13257.633    967.94578   -14225.579    -1038.811    377.25648    78.608443    25.105308    16.323603 
   63600    251.80958   -493.03921    181563.75   -13197.378    1035.8232   -14233.201   -1226.7237    378.17326    78.611978    25.102428    16.331573 
   63800    241.82729   -346.13432    181563.75   -13246.242    994.76088   -14241.002   -655.33933    380.09051    78.608469     25.10168    16.327252 
   64000    242.57793   -575.07828    181563.75   -13293.098    997.84864   -14290.946    -1507.308    383.58053    78.611671    25.102481    16.354031 
   64200    249.95273   -421.52142    181563.75   -13274.756     1028.185   -14302.941   -929.35453    386.82839    78.612027    25.104719     16.35445 
   64400    243.77121   -257.98292    181563.75   -13252.114    1002.7572   -14254.871   -357.82465    385.99529    78.614489    25.104757    16.355143 
   64600    238.66081   -349.82019    181563.75   -13264.971    981.73549   -14246.707   -662.21964    383.99882    78.614497    25.107404    16.340106 
   64800    237.49613   -306.30906    181563.75   -13255.257    976.94456   -14232.201   -543.09548    385.21403    78.613669    25.107575    16.329836 
   65000    235.02288   -323.37438    181563.75   -13329.444     966.7708   -14296.215   -565.75906    386.05909    78.614966    25.107432    16.345972 
   65200    231.05102   -348.92266    181563.75   -13335.793     950.4325   -14286.225    -696.8369    388.38376    78.619677    25.101385    16.360044 
   65400      247.901   -436.97441    181563.75   -13174.214    1019.7452   -14193.959    -956.2372    387.01489    78.618903    25.096927    16.363046 
   65600    244.60481   -344.16707    181563.75   -13220.068    1006.1863   -14226.255   -688.63436    387.44295    78.617909    25.089416    16.339243 
   65800    243.87056    -265.5224    181563.75   -13193.509    1003.1659   -14196.675   -375.86715    387.06344    78.616624    25.082508     16.33032 
   66000    237.78474   -264.80465    181563.75   -13254.399    978.13177   -14232.531   -356.53471    389.10702    78.611405    25.078823    16.344869 
   66200    237.67403   -427.92495    181563.75   -13245.805    977.67636   -14223.481   -982.65975    390.39935    78.607315    25.078852     16.34172 
   66400    237.90656   -352.00215    181563.75    -13301.29     978.6329   -14279.923   -668.50181    389.42882    78.608344    25.082346    16.335478 
   66600    242.01441   -411.63512    181563.75   -13277.967     995.5306   -14273.497   -901.83417    393.61682      78.6074    25.083968    16.346139 
   66800    233.54438   -385.49888    181563.75   -13285.857    960.68897   -14246.546   -805.63362    397.43288    78.607945     25.08349    16.372565 
   67000    231.81226   -358.95147    181563.75   -13323.499    953.56387   -14277.063   -768.64158     398.2061    78.609483    25.081137    16.364427 
   67200    233.25093   -322.43678    181563.75   -13307.182    959.48185   -14266.664   -590.54577    400.77439    78.605085    25.081645     16.37608 
   67400    236.94263   -337.40999    181563.75   -13261.801    974.66774   -14236.469   -666.71141    401.54158     78.60475    25.078824    16.383537 
   67600    238.63209    -365.6673    181563.75   -13297.471    981.61735   -14279.089   -733.22534    404.55491    78.604298    25.078979    16.384051 
   67800    239.80013   -351.28774    181563.75    -13278.01    986.42213   -14264.432   -707.24727     406.2308    78.603706    25.077976    16.379092 
   68000    244.46758   -209.68804    181563.75    -13250.05    1005.6218   -14255.672   -186.31328    405.99445    78.605598    25.077079    16.388052 
   68200    245.78441   -348.57334    181563.75   -13244.555    1011.0385   -14255.594    -655.2014    406.92311     78.60805     25.07183    16.398184 
   68400    240.73633   -438.84672    181563.75   -13213.057     990.2732    -14203.33   -993.10735    409.34577    78.609367    25.070464     16.37766 
   68600    236.59154   -359.71246    181563.75   -13288.692    973.22351   -14261.916   -698.65885     412.6164    78.611602     25.07205    16.379957 
   68800     240.2588    -206.1963    181563.75   -13209.187    988.30888   -14197.496   -154.91543    412.56752    78.611146    25.073195    16.384443 
   69000    238.29642   -573.97082    181563.75   -13199.155     980.2366   -14179.391   -1477.6967    414.50266    78.610256    25.074292    16.361477 
   69200    241.69237   -331.66399    181563.75   -13243.471    994.20588   -14237.677   -651.02646    409.65615    78.609843    25.074386     16.34508 
   69400    233.06791   -586.23035    181563.75   -13291.638      958.729   -14250.367   -1509.4351    411.12751    78.609405    25.070889    16.359274 
   69600    240.66116   -264.67544    181563.75   -13247.736    989.96399     -14237.7   -365.33061     409.3963    78.609676    25.067447    16.369035 
   69800    237.98809   -274.31879    181563.75   -13259.188    978.96828   -14238.156   -385.54905    411.13495    78.608122    25.067866    16.369388 
   70000    235.70536   -383.84204    181563.75   -13321.119    969.57822   -14290.698   -791.65566    413.51644    78.606036    25.064727    16.360581 
   70200    247.63709   -379.01543    181563.75   -13279.384    1018.6596   -14298.043   -810.75692    413.34811    78.604282    25.066798    16.368433 
   70400    237.10291   -361.62237    181563.75   -13245.673    975.32706       -14221   -737.71325    413.26464    78.604526    25.063357    16.364083 
   70600    237.95718   -287.96279    181563.75   -13236.741    978.84113   -14215.582   -462.28858    416.94042    78.604255    25.062018     16.34772 
   70800    239.56195   -411.77166    181563.75   -13275.301    985.44235   -14260.744   -876.75433    419.94645    78.606558    25.062515      16.3703 
   71000    243.61001   -81.968139    181563.75   -13218.975    1002.0941   -14221.069    275.07783    415.82867    78.609165    25.066266    16.357659 
   71200    258.70571   -307.46599    181563.75   -13136.623    1064.1906   -14200.813    -523.1941    418.89094    78.612033    25.068954    16.366826 
   71400    235.53838   -443.02539    181563.75    -13247.36    968.89133   -14216.251   -1027.3455    419.46204    78.609393    25.070997    16.353198 
   71600    231.54758   -492.15239    181563.75   -13266.025    952.47513     -14218.5   -1207.1387     421.0708    78.608886    25.072703    16.348156 
   71800    241.55718   -334.22399    181563.75   -13268.275    993.64979   -14261.925   -638.61343    423.41976    78.608972    25.072216    16.341497 
   72000    240.27995   -335.65253    181563.75   -13192.341    988.39585   -14180.737   -604.85556    425.15857    78.606563    25.071177    16.335413 
   72200    245.36946   -325.34655    181563.75   -13226.007    1009.3317   -14235.339   -616.26263    425.26892    78.605759    25.066834     16.37444 
   72400    246.73505   -463.40125    181563.75   -13249.917     1014.949   -14264.866   -1138.1204    426.31093    78.609208    25.064907    16.370578 
   72600    235.62161   -337.27706    181563.75   -13262.155     969.2337   -14231.389   -627.82054    428.36391    78.608921    25.060321    16.360853 
   72800    240.86382   -462.02547    181563.75   -13302.747    990.79763   -14293.545   -1101.7904     427.5534    78.608449    25.060072     16.37032 
   73000    242.61827   -189.46306    181563.75   -13262.021     998.0146   -14260.036    -171.2171    426.67552    78.607009    25.058511    16.355772 
   73200    240.40117   -358.70635    181563.75   -13202.184    988.89452   -14191.079   -711.37758    430.55319    78.602214    25.057008    16.360841 
   73400    235.51748   -533.06222    181563.75   -13243.388    968.80537   -14212.194   -1326.6292    433.77274    78.601583    25.054541    16.373708 
   73600    242.54273   -114.06763    181563.75   -13236.002    997.70385   -14233.706    168.28333    434.62051    78.605734    25.049174    16.356502 
   73800    242.55593    -353.8216    181563.75   -13175.642    997.75817   -14173.401   -693.04675    435.86021    78.609223     25.04847    16.381125 
   74000    245.14529   -420.48417    181563.75   -13188.266    1008.4095   -14196.675   -939.22537    433.31834    78.609774    25.049777    16.387307 
   74200    249.30145   -349.67633    181563.75    -13214.45     1025.506   -14239.956   -652.43594     435.6057    78.609401    25.055598    16.389719 
   74400    248.65859   -308.77374    181563.75   -13260.817    1022.8616   -14283.679   -565.64639    432.84418    78.611065    25.058199    16.379853 
   74600    245.77448   -322.56088    181563.75   -13301.025    1010.9977   -14312.022   -548.91325    434.52629    78.609265    25.056227    16.373428 
   74800    245.77522   -343.49557    181563.75    -13229.38    1011.0008   -14240.381   -646.14586    437.82392    78.611151    25.054673    16.377148 
   75000    242.72485   -235.92944    181563.75   -13258.583      998.453   -14257.036   -303.92187    438.27479    78.608108    25.055143    16.344318 
   75200     239.3798   -202.86561    181563.75   -13272.884    984.69308   -14257.577   -184.98659    438.19369      78.6069    25.054969    16.334017 
   75400    241.88182   -409.12721    181563.75   -13206.752    994.98517   -14201.738   -914.21041    440.18443    78.605324    25.050805    16.322878 
   75600    235.51265   -380.10911    181563.75   -13251.941    968.78549   -14220.727   -796.90301    440.68007    78.602294    25.051166    16.340484 
   75800    244.61261   -149.26602    181563.75   -13246.845    1006.2183   -14253.064    11.196945    441.91356    78.604188    25.056248    16.359356 
   76000    239.44744   -301.66489    181563.75   -13269.855    984.97132   -14254.826   -546.52433     445.3463     78.60234    25.056687    16.373486 
   76200    233.82861   -472.73094    181563.75   -13303.874    961.85817   -14265.732   -1129.6757    449.14657    78.602007    25.055041    16.370349 
   76400    228.81306   -384.11894    181563.75   -13326.843     941.2266    -14268.07   -810.53869    451.01945    78.602583    25.055819    16.365515 
   76600     246.0459   -252.06355    181563.75   -13284.438    1012.1142   -14296.552   -297.84683    448.29391    78.605987    25.053082    16.357499 
   76800    243.95906   -373.26755    181563.75   -13245.961    1003.5299   -14249.491    -766.0878     450.7678    78.609265    25.054077    16.347727 
   77000    241.45676   -338.89537    181563.75   -13281.112    993.23669   -14274.348   -626.64718      449.072    78.604856    25.048714    16.344699 
   77200    247.45756   -384.21862    181563.75   -13258.918    1017.9211   -14276.839   -840.08649    448.18708    78.605653    25.046059    16.335802 
   77400    246.74319   -320.70023    181563.75   -13229.647    1014.9825   -14244.629   -581.05133     448.9019    78.605769    25.045184    16.334205 
   77600    232.43202   -291.10951    181563.75   -13255.303    956.11329   -14211.416   -481.46339    452.96733    78.603629    25.042862    16.313989 
   77800    243.38717   -314.54914    181563.75   -13260.495    1001.1775   -14261.673   -582.68799    454.31576    78.602828    25.040714    16.290933 
   78000    234.27597    -372.1273    181563.75    -13316.97    963.69839   -14280.668   -747.80888    455.38053     78.60153    25.042157    16.273618 
   78200     242.6104   -469.81028    181563.75   -13245.183    997.98223   -14243.165   -1117.6324    457.22369    78.598889    25.041618    16.303198 
   78400    239.88553   -283.22377    181563.75    -13270.48     986.7734   -14257.253   -423.10349     458.3861    78.598786    25.045351    16.326756 
   78600    235.45694   -314.93676    181563.75   -13346.098    968.55631   -14314.654   -559.56265    461.01676    78.596709    25.048877    16.340773 
   78800     234.1175   -210.42345    181563.75   -13343.648    963.04652   -14306.695   -218.34615    462.18776    78.595651     25.05455    16.343938 
   79000    237.56157    -323.4032    181563.75   -13307.833    977.21377   -14285.047   -578.23966    460.22209    78.593356    25.056924    16.317594 
   79200    237.44691   -537.64685    181563.75   -13268.998     976.7421    -14245.74   -1315.6445    459.33613    78.590811    25.057273    16.315731 
   79400    234.68564   -309.19815    181563.75    -13323.91    965.38359   -14289.294   -535.10658    459.32827    78.589904    25.062732    16.310302 
   79600    240.39966   -380.78407    181563.75   -13301.295    988.88828   -14290.183   -786.27702    462.04799    78.591509    25.061633    16.304961 
   79800    237.65893   -235.24427    181563.75   -13316.131    977.61426   -14293.746   -239.55669    468.86545    78.590372    25.060913    16.305556 
   80000    239.48462   -247.00177    181563.75   -13300.501    985.12425   -14285.625   -313.95166     477.8032    78.592369    25.063023    16.322868 
   80200    243.89183    -405.1179    181563.75   -13240.856    1003.2534    -14244.11    -896.5471    483.72606    78.597378    25.064976    16.314233 
   80400    242.56276   -385.68607    181563.75   -13242.761    997.78626   -14240.547   -805.17589     485.9685    78.599175     25.06712    16.318825 
   80600    245.66971   -394.48552    181563.75   -13192.744    1010.5667    -14203.31   -849.99926    488.98937    78.596012    25.069735    16.302474 
   80800     245.3569   -340.63804    181563.75   -13278.092      1009.28   -14287.372   -660.52221    491.84525    78.592413    25.068251    16.320271 
   81000    239.43757   -422.18342    181563.75   -13218.959    984.93073    -14203.89   -955.47899    493.72635    78.592756    25.070172     16.32266 
   81200    236.67303    -193.1432    181563.75    -13267.55    973.55875   -14241.109   -127.51919    494.05595    78.594681    25.076222    16.309522 
   81400    238.41539   -311.26266    181563.75   -13324.678    980.72596   -14305.404   -518.44909    493.45494    78.597411    25.080315    16.303078 
   81600    248.15822   -258.67178    181563.75   -13296.016    1020.8033   -14316.819   -405.69765    492.28252    78.594164    25.080265     16.30676 
   81800    238.91842   -519.54986    181563.75   -13280.197    982.79519   -14262.992   -1298.9094    496.73445    78.591973    25.081677    16.297389 
   82000    244.72101   -227.49925    181563.75   -13235.283    1006.6642   -14241.947   -245.77682    499.95143    78.588363    25.082448    16.316198 
   82200    239.46257   -405.75251    181563.75   -13267.189    985.03356   -14252.222   -924.02463    499.17458    78.587005    25.077453    16.335893 
   82400    235.60877   -336.70772    181563.75   -13302.414    969.18091   -14271.595   -609.23838    498.58617    78.584699    25.073498    16.349854 
   82600    238.36729   -367.28882    181563.75   -13307.278    980.52813   -14287.806   -729.71139    497.86371    78.579245    25.075506    16.357217 
   82800    245.20096   -463.09619    181563.75   -13284.664    1008.6385   -14293.302   -1091.5175    497.14094    78.579547    25.074658    16.342834 
   83000     238.7664   -447.84636    181563.75   -13289.188    982.16986   -14271.357   -1023.0156    498.22122     78.57988    25.069341    16.354333 
   83200    228.87889   -570.13815    181563.75     -13298.4    941.49742   -14239.898   -1492.6518    502.77728    78.575704    25.067024    16.351653 
   83400    236.85639   -401.07577    181563.75   -13312.058    974.31298   -14286.371   -833.08845    500.24531    78.576012    25.069626    16.355026 
   83600     241.6466   -523.72403    181563.75   -13265.849    994.01759   -14259.866   -1328.4159    501.72959    78.573766     25.07044    16.352734 
   83800     236.4205   -341.51812    181563.75   -13324.857    972.51995   -14297.377   -621.69064     508.1633    78.578791    25.071095     16.35123 
   84000    235.03494   -239.65149    181563.75   -13313.063    966.82041   -14279.884   -262.33918    506.33237    78.578696    25.071777    16.348628 
   84200    234.22834   -511.95251    181563.75   -13308.451    963.50248   -14271.953   -1279.7955    511.97807    78.578011    25.078852     16.35658 
   84400    245.97964   -436.36281    181563.75   -13301.458    1011.8416   -14313.299   -1003.7974     512.9267     78.57091    25.078737    16.373907 
   84600    241.86058   -336.65404    181563.75   -13265.102    994.89782       -14260   -629.76222    515.67062    78.569297    25.079416    16.370789 
   84800     242.0536    -476.8659    181563.75   -13319.807    995.69182   -14315.499   -1132.7475    519.07018    78.572674     25.08504    16.366936 
   85000    232.85178   -223.39328    181563.75   -13345.182    957.83997   -14303.022   -232.88811    519.75882    78.575861    25.085074    16.372781 
   85200    245.79367   -359.78232    181563.75    -13237.44    1011.0767   -14248.517   -725.23826    522.41685    78.575657    25.086588    16.383115 
   85400    239.72539   -272.38875    181563.75   -13307.976    986.11466   -14294.091   -350.10422    523.51342    78.575864    25.084928    16.370288 
   85600    236.92305   -263.28773    181563.75   -13310.446    974.58718   -14285.033   -364.14795    522.45198    78.572746    25.085375    16.366705 
   85800    234.28571   -336.88542    181563.75   -13264.938    963.73844   -14228.676    -621.2551    518.67456    78.570288    25.085713     16.38297 
   86000     251.2175   -392.71329    181563.75    -13263.95    1033.3877   -14297.338   -778.53729    520.49128    78.568788     25.08903     16.37543 
   86200    240.92417    -114.5257    181563.75    -13329.04    991.04588   -14320.086    138.33078    522.60851    78.568792    25.090055    16.357479 
   86400    239.57996    -441.0782    181563.75   -13317.687    985.51643   -14303.203    -1044.358    519.71806    78.573029    25.086303    16.350056 
   86600    247.08918     -419.134    181563.75    -13325.71    1016.4058   -14342.115   -923.54278    525.14199    78.573559    25.086288    16.344302 
   86800    240.77636   -449.40003    181563.75   -13337.183    990.43786   -14327.621    -1025.255    527.58824    78.574095    25.086274    16.348753 
   87000    229.85081   -268.82562    181563.75   -13367.667     945.4954   -14313.163   -413.27013     529.9475    78.575473    25.083119    16.313848 
   87200    235.51054   -355.11665    181563.75   -13343.275    968.77682   -14312.052   -712.36016     528.5028    78.575298     25.07948    16.302005 
   87400    236.44346   -327.49627    181563.75   -13371.399    972.61438   -14344.014   -578.86362     524.8087    78.574917    25.074149    16.291041 
   87600     245.0112   -387.79904    181563.75   -13338.153    1007.8579    -14346.01   -810.39287    525.27588    78.577106    25.072839    16.311583 
   87800    239.51768   -144.10621    181563.75   -13362.378    985.26025   -14347.639    93.353095    525.29669    78.577549    25.072054    16.316091 
   88000    243.18054     -362.299    181563.75   -13261.926    1000.3275   -14262.253   -732.35695    524.87703    78.579684    25.068531    16.290539 
   88200    241.47911   -378.87719    181563.75   -13244.359    993.32863   -14237.688   -836.65456    526.26349    78.581541    25.064619    16.289027 
   88400    231.20168   -339.51858    181563.75   -13273.982    951.05222   -14225.035   -612.67756    525.80229    78.583151    25.064505    16.278423 
   88600    234.35412   -343.04251    181563.75   -13318.047    964.01985   -14282.067   -695.55298    522.60302    78.584493     25.06274    16.296329 
   88800    234.72964   -260.16029    181563.75   -13345.892    965.56457   -14311.457   -383.14718    526.28159     78.58305    25.061813    16.293044 
   89000    230.82873   -418.57191    181563.75   -13355.194    949.51811   -14304.712   -940.60517     524.8578    78.582162    25.061135    16.283026 
   89200    237.19261    -315.1743    181563.75   -13362.808    975.69604   -14338.504    -570.2085     527.3359    78.579486    25.060421    16.289951 
   89400    233.47024   -280.25332    181563.75   -13320.059    960.38399   -14280.443   -459.38369    530.89099    78.580774     25.05988    16.307248 
   89600    233.14251   -364.75533    181563.75   -13372.109     959.0359   -14331.145   -747.39804    533.39815     78.58214     25.06281    16.301222 
   89800    240.21307   -355.62577    181563.75   -13310.078    988.12074   -14298.199   -723.42352    533.83965     78.58786     25.06103     16.28836 
   90000    240.10072   -265.32587    181563.75   -13263.061     987.6586    -14250.72   -400.16087    534.65148    78.593775    25.057105    16.270406 
   90200    235.28198   -240.74906    181563.75    -13343.64    967.83664   -14311.477   -288.54445    533.97201    78.595901    25.059435    16.263382 
   90400     230.3471   -344.51854    181563.75   -13368.551    947.53693   -14316.088   -654.86774    534.50275    78.595006     25.06151    16.279842 
   90600    241.42036   -369.74426    181563.75   -13269.961    993.08697   -14263.048   -730.52408    533.80907    78.595935    25.058889    16.283352 
   90800    242.55123   -350.55782    181563.75   -13249.256    997.73883   -14246.995   -694.52317     537.0868    78.597614     25.05847    16.289092 
   91000    241.64771   -500.55262    181563.75    -13270.26    994.02218   -14264.282   -1192.7653    538.05436    78.597606    25.056735    16.259469 
   91200    237.26544   -377.76984    181563.75   -13298.384    975.99561    -14274.38   -748.21481    541.12023    78.595399    25.060818    16.261349 
   91400    233.44032   -369.32118    181563.75   -13365.216    960.26093   -14325.477    -746.1688    539.50428    78.595581    25.062859     16.27401 
   91600    238.85086   -309.46349    181563.75   -13249.061    982.51729   -14231.578   -570.76189    538.31916    78.593448    25.069938    16.322952 
   91800    243.07832   -349.82991    181563.75   -13307.869    999.90701   -14307.776    -731.7933    533.89364    78.588757    25.071909    16.327112 
   92000    240.41719   -484.03585    181563.75   -13276.549    988.96042    -14265.51   -1164.9029    535.69515    78.588578    25.072915    16.327619 
   92200    247.51334   -291.01665    181563.75   -13300.233    1018.1505   -14318.384   -473.70844    532.93382     78.58442    25.073743     16.34115 
   92400    242.73019   -299.17757    181563.75   -13234.678    998.47497   -14233.153    -511.3844    536.14196    78.583142    25.074852    16.343659 
   92600    239.42866   -387.72965    181563.75   -13287.757    984.89407   -14272.652   -778.94914    533.05996    78.579509    25.076825    16.351908 
   92800    235.59577   -290.59972    181563.75   -13336.583    969.12739    -14305.71   -473.42496     532.6958    78.577524    25.077594    16.336869 
   93000    236.51233   -342.46205    181563.75   -13363.083    972.89768    -14335.98    -665.7877    534.31445    78.578094    25.076032    16.343229 
   93200    238.99993    -488.6489    181563.75   -13345.105    983.13046   -14328.236   -1137.1521    537.63693    78.578053    25.076089    16.364506 
   93400    238.25869   -163.68331    181563.75   -13320.828     980.0814   -14300.909   -7.0738496    533.59761    78.582046    25.076777     16.35469 
   93600    246.66091   -414.20513    181563.75   -13301.826    1014.6441    -14316.47   -857.70034     536.9715    78.585319     25.07329    16.377609 
   93800    244.85143   -306.47787    181563.75   -13243.166    1007.2007   -14250.367   -490.05569    539.63899    78.586667    25.072285    16.383204 
   94000    234.59971   -314.33393    181563.75   -13331.517     965.0301   -14296.547   -534.40064    538.48553    78.583923    25.074814    16.386673 
   94200    244.18664   -409.65795    181563.75   -13246.205    1004.4661   -14250.671   -891.66673    539.36796    78.580901     25.07544    16.362778 
   94400    244.70723   -269.52949    181563.75   -13220.854    1006.6076   -14227.461   -403.89838    540.91815    78.578269    25.075779    16.346372 
   94600    244.01433   -299.87338    181563.75   -13197.849    1003.7573   -14201.606   -474.12797    540.43517    78.581158    25.076038    16.346454 
   94800    241.98757   -384.14692    181563.75   -13172.812     995.4202   -14168.232   -823.05507    542.53061    78.578294    25.079629    16.358065 
   95000    235.82352   -140.50684    181563.75   -13303.448    970.06426   -14273.512    91.454739    542.64081    78.581016    25.082239    16.355504 
   95200    240.12206   -221.08447    181563.75    -13299.82    987.74637   -14287.566   -222.98125    547.44429    78.580807    25.083049    16.344429 
   95400    241.37226   -398.41227    181563.75    -13286.89    992.88912    -14279.78   -819.94724    549.46314    78.581731    25.082998    16.350982 
   95600    235.97665   -334.40555    181563.75   -13311.867    970.69418   -14282.562   -630.49202    549.93023    78.582169    25.084955     16.37357 
   95800    238.46966   -423.68084    181563.75   -13292.988     980.9492   -14273.937   -936.42895    551.90536    78.581982    25.083876    16.381066 
   96000    238.85407    -538.4758    181563.75   -13308.237    982.53047   -14290.768   -1335.0546    551.60863    78.581303    25.086864    16.405197 
   96200    241.68486   -313.22822    181563.75   -13315.448      994.175   -14309.623   -570.17251     552.4821    78.580359    25.091912    16.402739 
   96400    237.79757   -386.01653    181563.75   -13301.927    978.18456   -14280.112   -807.87342    552.97947    78.583051     25.09283    16.394323 
   96600     228.2475   -270.95607    181563.75   -13357.066    938.90019   -14295.966   -461.51123    556.87381    78.581872    25.091324    16.389682 
   96800    237.01356   -408.18539    181563.75   -13278.378    974.95951   -14253.337   -891.54006    559.14484    78.581497    25.089302    16.393471 
   97000    241.93039   -495.94692    181563.75   -13250.649    995.18499   -14245.834   -1186.2215    563.32887    78.586494    25.090125    16.397455 
   97200    243.21569   -363.54693    181563.75    -13185.24    1000.4721   -14185.712   -744.37258    560.22839    78.586166     25.09065    16.396781 
   97400    234.49464   -450.51953    181563.75   -13296.141    964.59787   -14260.739   -1007.1097    568.59888    78.582067    25.094629     16.37946 
   97600    238.79636   -219.60569    181563.75   -13244.463    982.29309   -14226.756   -230.46214    569.17364    78.581864    25.095329    16.392528 
   97800    238.26181   -343.90809    181563.75   -13268.547     980.0942   -14248.641   -677.07313    571.76353    78.585184    25.097261    16.379243 
   98000    242.28366   -357.35356    181563.75    -13313.75    996.63817   -14310.389   -707.26917    570.24193    78.586974    25.094014     16.38645 
   98200    233.30889   -205.03595    181563.75   -13309.085    959.72028   -14268.806   -181.81305    568.23217    78.586409    25.093951    16.408521 
   98400    239.67739   -258.85992    181563.75   -13268.739    985.91721   -14254.656   -341.68328    570.66909    78.582015     25.09271    16.417673 
   98600    237.76716   -308.87778    181563.75   -13262.309    978.05945   -14240.368   -528.63426    572.51743    78.582549    25.091258    16.425039 
   98800    254.37391   -448.44401    181563.75   -13152.025    1046.3716   -14198.397   -1043.8561    570.10622    78.584873     25.09266    16.408423 
   99000    239.63936   -468.22851    181563.75   -13198.535    985.76078   -14184.296   -1143.5905     571.7424    78.586182    25.093009    16.407513 
   99200    252.52454   -390.03531    181563.75   -13207.243    1038.7642   -14246.007   -848.80264    567.70433    78.581616     25.09728    16.397839 
   99400    243.44212   -236.89202    181563.75    -13199.95    1001.4035   -14201.354   -340.51714    566.81606    78.582904    25.093673     16.38517 
   99600    245.47735   -363.06706    181563.75   -13208.125    1009.7755     -14217.9   -744.44058    566.82665    78.586355     25.09112    16.375164 
   99800    244.80064   -312.49131    181563.75   -13204.311    1006.9918   -14211.303   -545.04148    567.90758    78.586609    25.090013    16.382384 
  100000    245.05624   -344.14002    181563.75   -13268.596    1008.0432   -14276.639   -660.81299    572.40823    78.585289    25.088944    16.376762 
  100200    241.19553    -440.7087    181563.75    -13234.12    992.16214   -14226.282   -990.13824    578.43942    78.584336    25.088266    16.367546 
  100400    244.01219   -371.65012    181563.75   -13284.959    1003.7485   -14288.708   -753.53301     584.2983    78.585331    25.088882    16.405957 
  100600    243.02862   -286.82523    181563.75   -13355.792    999.70258   -14355.494   -418.09303    587.94261    78.585133    25.088633     16.42712 
  100800    234.43881   -307.70113    181563.75   -13289.079    964.36824   -14253.448   -556.87334    589.07661    78.587036    25.091786    16.421311 
[...]
 5175800    220.26628   -330.48427    181563.75   -14715.787    906.06927   -15621.856    -519.4669     1841.805    81.403934    24.686593    16.331639 
 5176000      227.331   -341.91627    181563.75   -14671.241    935.13012   -15606.371   -587.60656    1843.2835    81.403888      24.6853     16.33263 
 5176200     226.3304   -457.13937    181563.75   -14684.939    931.01416   -15615.954   -1004.4703    1844.1056    81.404532    24.686775    16.329861 
 5176400    219.67826   -372.15432    181563.75   -14726.205    903.65046   -15629.856   -655.02025    1843.3672    81.402494    24.686944    16.336631 
 5176600     227.7986   -298.08372    181563.75   -14673.923    937.05362   -15610.977   -400.56247    1843.9537     81.40333    24.686722    16.334416 
 5176800    221.93505    -352.2401    181563.75   -14699.253    912.93381   -15612.187   -623.02868    1843.8007    81.401288    24.688409    16.333894 
 5177000    220.97628   -311.85892    181563.75   -14708.921    908.98987    -15617.91    -475.1466    1843.6001    81.399628    24.687997    16.334292 
 5177200    221.29674   -345.38697    181563.75   -14660.505    910.30808   -15570.813   -612.52665    1844.9592    81.399843    24.688703    16.338852 
 5177400    224.80425   -346.91407    181563.75   -14688.007     924.7363   -15612.743   -568.08287    1844.0099    81.397848    24.688132    16.331701 
 5177600    232.27309   -355.18163    181563.75    -14701.29    955.45951    -15656.75     -644.446    1843.1732    81.396713     24.68541     16.33022 
 5177800    219.04556   -376.42511    181563.75   -14703.549    901.04784   -15604.597   -724.61004    1845.2624    81.398561    24.685671    16.335444 
 5178000    225.19274    -396.1744    181563.75   -14691.835    926.33438   -15618.169   -787.77851    1845.1794    81.397533    24.686116    16.332462 
 5178200     229.2391   -284.30782    181563.75   -14703.865    942.97914   -15646.844   -382.40464    1842.4076    81.396357    24.684546    16.335746 
 5178400    227.33181   -300.28566    181563.75   -14682.498    935.13347   -15617.632   -395.24921    1844.5308    81.396085    24.685495     16.33067 
 5178600    225.42393   -398.41943    181563.75   -14673.768    927.28537   -15601.053   -812.44449     1845.448    81.396031    24.684873    16.330035 
 5178800    222.67794   -290.81356    181563.75   -14648.672    915.98969   -15564.661   -399.77033    1844.7777    81.397996    24.684404    16.333412 
 5179000    231.68622   -249.85836    181563.75    -14649.65     953.0454   -15602.696   -295.81605    1843.0764    81.399073    24.686311    16.323283 
 5179200    223.44906    -357.3284    181563.75   -14687.768    919.16169   -15606.929   -620.13648    1846.4841    81.399995    24.687085     16.32783 
 5179400     229.0238   -355.83271    181563.75   -14694.695     942.0935   -15636.789   -603.01746    1846.2903    81.400575    24.689022     16.31979 
 5179600    222.92244   -319.53372    181563.75   -14717.842    916.99542   -15634.837   -516.44989    1843.7278    81.400951    24.690554    16.323221 
 5179800    229.51843   -352.05002    181563.75   -14679.258    944.12814   -15623.386   -624.82418    1845.6213    81.401737    24.691382    16.320828 
 5180000    228.29134   -419.08401    181563.75   -14711.968    939.08049   -15651.049   -879.39985    1844.7645    81.403633    24.690279    16.331461 
 5180200    221.78342   -255.61896    181563.75   -14689.917    912.31005   -15602.227    -237.8399    1843.7798    81.403122    24.689055    16.332644 
 5180400    231.88836   -322.20331    181563.75   -14669.313    953.87691    -15623.19   -483.35001    1844.2306    81.404142    24.688456    16.324022 
 5180600    220.68328    -394.5193    181563.75   -14729.066    907.78461    -15636.85   -818.97434    1844.9753    81.405579    24.686609    16.323164 
 5180800    226.66259   -384.52685    181563.75   -14698.008    932.38063   -15630.389   -746.92436    1845.1415    81.407268    24.685302    16.327965 
 5181000    217.04576   -282.55625    181563.75   -14713.751    892.82161   -15606.573    -345.6754    1844.3995    81.407811    24.685772    16.323835 
 5181200    228.03098   -307.90507    181563.75    -14691.03     938.0095   -15629.039   -441.69821    1844.1621    81.408431    24.684913    16.324405 
 5181400    228.91293   -420.37234    181563.75   -14680.206    941.63742   -15621.844   -874.62714    1845.3673    81.408707    24.683519    16.325054 
 5181600    229.25574   -348.52707    181563.75   -14680.101     943.0476   -15623.148   -633.21031    1845.2176    81.409297    24.682402    16.328489 
 5181800    224.30622   -315.20222    181563.75   -14651.519    922.68765   -15574.207   -474.74389    1844.3546    81.409971    24.683261    16.325693 
 5182000    220.37595   -360.53337    181563.75   -14725.673    906.52039   -15632.194   -650.76893     1846.511    81.410072    24.681881    16.323701 
 5182200    216.70471   -373.03386    181563.75   -14798.997     891.4187   -15690.416   -680.95028    1846.0902    81.412139    24.682629    16.323462 
 5182400    219.57788   -301.55586    181563.75    -14695.97    903.23755   -15599.207   -399.82546    1844.8882    81.413647    24.682877    16.328205 
 5182600     235.8561   -338.66767    181563.75   -14677.221    970.19829   -15647.419    -602.5063    1845.0445    81.413685     24.68521    16.328385 
 5182800     222.6447   -370.52094    181563.75   -14701.873    915.85295   -15617.726   -700.28508    1846.4203    81.414576    24.684146    16.323722 
 5183000    228.13337   -294.00382    181563.75   -14688.943    938.43068   -15627.373    -413.0692    1845.9561    81.414381    24.682482    16.322453 
 5183200     232.3584   -264.64155    181563.75    -14654.68    955.81042    -15610.49   -267.69154    1846.3978    81.415468     24.68191    16.327577 
 5183400    229.09845   -367.43475    181563.75   -14709.322    942.40056   -15651.723    -716.5054    1846.3144    81.415264    24.682044    16.323375 
 5183600    228.09729   -349.85715    181563.75   -14695.241    938.28227   -15633.523    -653.9279    1845.4396    81.414805     24.68141    16.324068 
 5183800    219.07786    -314.7374    181563.75   -14726.944    901.18071   -15628.125   -465.02278    1844.2601    81.416516     24.68111    16.326178 
 5184000    222.66168   -401.30403    181563.75   -14714.942    915.92278   -15630.865   -784.80041     1846.135    81.417401    24.681371    16.325531 
 5184200    220.11187    -364.2182    181563.75   -14700.593    905.43412   -15606.027   -633.53697    1846.9437    81.420898    24.681054    16.326327 
 5184400    221.29143    -425.9337    181563.75   -14704.511    910.28626   -15614.798    -882.0796     1845.706    81.422598    24.680627     16.32228 
 5184600    223.37253   -446.31226    181563.75   -14680.604     918.8469   -15599.451   -969.87083    1845.6589    81.423323     24.67956    16.323967 
 5184800    230.48183   -465.55124    181563.75   -14646.398    948.09113   -15594.489   -1049.9358    1846.4151    81.425104    24.679543    16.321829 
 5185000    225.95027   -343.16795    181563.75   -14634.568    929.45048   -15564.019   -541.31666     1846.468    81.426198    24.679077    16.325065 
 5185200    229.67688   -295.46665    181563.75   -14680.982    944.77995   -15625.762   -392.20718    1846.7174    81.426864    24.677199    16.322108 
 5185400    223.91992   -362.68049    181563.75   -14696.701    921.09858   -15617.799   -692.53939    1846.6858    81.427335    24.676299    16.317294 
 5185600    219.64546   -351.21976    181563.75    -14749.39    903.51553   -15652.905   -605.69788     1845.588    81.427643    24.676384    16.316275 
 5185800    225.79662    -332.0939    181563.75   -14696.199    928.81842   -15625.018   -532.75902    1845.8825     81.42721    24.675055    16.320769 
 5186000    230.82038   -318.35854    181563.75   -14662.612    949.48377   -15612.096   -469.90351     1847.341    81.427423     24.67446    16.318478 
 5186200    232.50792   -324.44806    181563.75    -14643.41    956.42547   -15599.836   -528.57432    1845.5042    81.427547    24.674952    16.310642 
 5186400    226.63954   -337.34632    181563.75   -14716.127    932.28581   -15648.413   -555.47059    1845.4627    81.426963     24.67203    16.319386 
 5186600    226.50809   -401.10391    181563.75   -14699.458    931.74507   -15631.203    -777.7148    1847.4887    81.426996    24.671989    16.314552 
 5186800    228.48359   -385.15349    181563.75   -14661.871    939.87134   -15601.742   -743.20426    1846.1691    81.428114    24.669981    16.313852 
 5187000    224.28974   -281.27015    181563.75   -14698.172    922.61985   -15620.792   -384.83449    1845.0655    81.427362    24.669759    16.323854 
 5187200    222.37159   -323.74316    181563.75   -14678.497    914.72952   -15593.226   -560.17122    1846.2398     81.42845    24.668242    16.321775 
 5187400    223.89886    -321.7835    181563.75   -14729.503    921.01198   -15650.515   -475.97205    1846.7191     81.43026    24.666553    16.326595 
 5187600    227.66126   -302.55212    181563.75   -14708.181    936.48864    -15644.67   -437.36659    1845.5018    81.432694     24.66591     16.32165 
 5187800    227.46171   -381.04722    181563.75   -14685.246     935.6678   -15620.914   -762.40588    1845.5988    81.433734    24.665443     16.32009 
 5188000    216.30512   -310.62854    181563.75   -14712.583    889.77498   -15602.358    -483.9061    1846.5058    81.433523    24.664738    16.318543 
 5188200    234.72968   -331.77424    181563.75   -14680.641    965.56473   -15646.206   -537.44076    1845.7461    81.432955    24.664572    16.317995 
 5188400    220.59599   -295.09637    181563.75    -14698.44    907.42555   -15605.866   -392.15695    1845.6914    81.432795    24.663345    16.324707 
 5188600    224.67976   -345.14306    181563.75   -14720.493     924.2242   -15644.717   -590.37493    1846.6007    81.433359    24.662755     16.32056 
 5188800    229.44832   -393.74009    181563.75   -14676.888    943.83976   -15620.728   -790.68138    1845.7071    81.434872    24.663845    16.321255 
 5189000     226.5088   -352.51543    181563.75   -14699.909    931.74798   -15631.657   -632.87992    1845.4523     81.43519    24.663761    16.324494 
 5189200    228.71475   -286.59316    181563.75   -14679.562    940.82219   -15620.384   -388.98642    1844.6147    81.437585    24.663734    16.326336 
 5189400    228.51862   -312.34214    181563.75   -14695.516    940.01541   -15635.531   -474.55925    1844.0172    81.438342    24.663584    16.324061 
 5189600    235.10128   -356.19403    181563.75   -14714.711    967.09334   -15681.805   -626.42573    1847.0244    81.440124    24.663327     16.32258 
 5189800    218.26692   -359.28917    181563.75   -14723.581    897.84487   -15621.426   -628.20152    1844.9098    81.442514    24.664083    16.324791 
 5190000    235.50506   -369.64455    181563.75   -14707.716    968.75428    -15676.47   -685.53346    1844.6901    81.442447    24.664411    16.317062 
 5190200     225.8893   -425.48139    181563.75   -14736.022    929.19968   -15665.222   -889.63432    1847.5641    81.441683    24.664712    16.323252 
 5190400    223.41375   -388.25174    181563.75   -14694.937    919.01645   -15613.953   -728.19237    1845.9818    81.442631    24.665422    16.318503 
 5190600    231.50998   -276.98138    181563.75   -14677.787    952.32044   -15630.108    -332.0765    1843.5278    81.443964    24.665219    16.319094 
 5190800    223.68593   -351.28584    181563.75   -14700.809    920.13605   -15620.945   -600.05014     1845.002    81.445948    24.666684    16.316643 
 5191000    225.36909   -436.20517    181563.75   -14751.758    927.05979   -15678.818   -924.97321    1849.1242    81.446129    24.666804    16.322998 
 5191200    225.22354   -341.96005    181563.75    -14728.39    926.46106   -15654.851   -615.01621     1844.698    81.446714    24.667816     16.32362 
 5191400    223.92488   -260.81065    181563.75   -14715.654    921.11899   -15636.773   -288.47887    1842.9939    81.446857    24.670336     16.32113 
 5191600    224.64537   -410.62952    181563.75    -14706.65    924.08275   -15630.733   -792.42098    1847.5848    81.449407    24.669321    16.324092 
 5191800    218.90547   -419.30873    181563.75   -14729.725    900.47156   -15630.197   -825.18842    1848.1664     81.45026     24.66938    16.321881 
 5192000    226.71139   -266.11518    181563.75   -14681.287    932.58136   -15613.868   -343.15487    1842.7455    81.451727     24.66914    16.322274 
 5192200    232.59101      -348.09    181563.75   -14627.133    956.76726     -15583.9   -613.88237    1844.6018    81.450936    24.666611    16.313881 
 5192400    229.48051   -509.36597    181563.75   -14627.588    943.97217   -15571.561   -1171.1759    1848.9007    81.450341    24.666465    16.316314 
 5192600    221.38077   -358.73036    181563.75   -14701.493    910.65376   -15612.147   -637.72471    1846.3804    81.451759    24.665752    16.323028 
 5192800    229.70932   -256.64977    181563.75   -14712.929    944.91339   -15657.842   -277.57286    1844.7868    81.450559    24.665552    16.322188 
 5193000    226.05651   -431.65545    181563.75   -14688.878    929.88751   -15618.766   -899.78378    1847.2725    81.452071     24.66647    16.323714 
 5193200     225.5622   -434.35691    181563.75   -14684.044    927.85412   -15611.898   -924.53956    1848.0664    81.451307    24.664153    16.323895 
 5193400    219.40442   -260.35168    181563.75   -14749.407    902.52402   -15651.931    -285.5317    1843.0386    81.451682    24.665224     16.32399 
 5193600    228.70584   -348.71874    181563.75   -14686.088    940.78557   -15626.874   -618.49985    1845.6124    81.452396    24.666312    16.326012 
 5193800    225.44809   -461.53036    181563.75   -14717.597    927.38474   -15644.982   -1012.6272    1848.2393    81.454496    24.665103    16.325622 
 5194000    228.02642   -268.92533    181563.75   -14682.002    937.99075   -15619.992    -294.0193    1844.0148    81.454633    24.663969    16.321771 
 5194200    220.60695   -249.19037    181563.75    -14702.41    907.47063   -15609.881   -245.78981      1843.97    81.455201    24.663055      16.3265 
 5194400    234.30942   -459.84698    181563.75   -14664.611    963.83599   -15628.447   -983.75889    1848.7032    81.455111    24.662488    16.330083 
 5194600    224.93569   -372.78046    181563.75   -14719.312    925.27698   -15644.589   -702.32472    1846.9406    81.456299     24.66265    16.324512 
 5194800    227.07568   -320.58654    181563.75   -14675.785    934.07986   -15609.865   -547.65124    1843.7284    81.456588     24.66379    16.327233 
 5195000    223.02057   -360.88298    181563.75   -14671.257     917.3991   -15588.656   -670.68836    1846.3623    81.457143     24.66514    16.326179 
 5195200    220.82198   -444.40597    181563.75   -14725.366    908.35516   -15633.722   -917.60422    1847.9208    81.458144    24.665212     16.32202 
 5195400    224.37126   -325.73776    181563.75   -14701.601    922.95517   -15624.557   -538.36459    1844.8658    81.458732    24.665264     16.32792 
 5195600    234.70375   -251.40191    181563.75   -14707.907    965.45807   -15673.365   -282.88686    1844.2231    81.460754    24.667681    16.320078 
 5195800    229.07493   -469.65621    181563.75    -14713.72     942.3038   -15656.024   -1056.8876    1848.5749    81.462083    24.669658    16.319532 
 5196000    230.35848    -321.3983    181563.75   -14669.627    947.58374   -15617.211   -485.71411     1846.005    81.462969    24.669774    16.325063 
 5196200    227.59691   -220.93849    181563.75   -14694.454    936.22395   -15630.678   -131.08323    1843.7329    81.464346    24.671811    16.318789 
 5196400    233.91262   -313.92364    181563.75   -14645.373    962.20374   -15607.576   -483.56273    1846.6295    81.465923    24.672181    16.325311 
 5196600     228.9701   -437.77047    181563.75   -14730.235     941.8726   -15672.108   -924.05451     1846.684    81.465078    24.671707    16.326443 
 5196800     225.0496   -258.92122    181563.75   -14719.599    925.74554   -15645.345   -325.39151    1844.7543    81.465307    24.671061    16.322788 
 5197000    232.10457   -273.62298    181563.75   -14691.495    954.76632   -15646.261   -351.18832     1843.644    81.464908    24.670788    16.322785 
 5197200    228.12148   -349.40673    181563.75   -14701.225     938.3818   -15639.607   -613.65002    1846.4525    81.465806      24.6723    16.318928 
 5197400     233.2598   -348.47521    181563.75   -14640.845    959.51837   -15600.363    -578.5534    1845.5962    81.464694     24.67415    16.324438 
 5197600    226.29316   -263.43158    181563.75   -14680.542    930.86096   -15611.403   -304.53784    1843.2233    81.464324    24.673533    16.322845 
 5197800    231.52241   -340.94947    181563.75   -14681.238    952.37158    -15633.61    -591.4455    1844.2809    81.464203    24.674837    16.323469 
 5198000    226.91945   -401.97256    181563.75   -14656.105    933.43723   -15589.543    -786.5867    1846.8099    81.464422    24.674828    16.324323 
 5198200    227.85251   -361.92402    181563.75   -14692.077    937.27538   -15629.352   -656.23418    1846.4355    81.464103    24.675588    16.323833 
 5198400    223.79454   -254.50087    181563.75   -14716.175    920.58286   -15636.758    -279.7244    1844.0161    81.464347    24.675332    16.324933 
 5198600    225.10367   -339.89238    181563.75   -14699.537    925.96796   -15625.505   -578.00571    1845.5859    81.466009    24.675539    16.321593 
 5198800    220.18312   -393.93584    181563.75   -14742.008    905.72719   -15647.735   -809.78385    1846.2894    81.463894    24.675084    16.325253 
 5199000    228.26826    -340.3412    181563.75   -14705.754    938.98558    -15644.74   -578.07109    1845.5681    81.461956    24.676295    16.323587 
 5199200    228.22426   -272.37993    181563.75   -14707.443    938.80456   -15646.248   -297.16244    1843.4153    81.460597    24.676776    16.329609 
 5199400    224.14591    -366.1226    181563.75   -14742.608    922.02821   -15664.636   -663.00198    1846.6134    81.459751    24.677749    16.327511 
 5199600    221.34222   -375.98508    181563.75   -14747.386    910.49517   -15657.881   -721.76942    1847.0268    81.459383    24.676855    16.328431 
 5199800    234.73402   -268.30156    181563.75   -14699.126     965.5826   -15664.709   -341.42073    1844.3096     81.45929    24.677006    16.323876 
 5200000    227.73491   -308.93505    181563.75   -14696.238    936.79161   -15633.029   -452.90503    1844.1322    81.458648    24.677196    16.320945 
Loop time of 6362.62 on 128 procs for 5200000 steps with 9253 atoms

Performance: 706.124 ns/day, 0.034 hours/ns, 817.273 timesteps/s
97.7% CPU use with 128 MPI tasks x no OpenMP threads

MPI task timing breakdown:
Section |  min time  |  avg time  |  max time  |%varavg| %total
---------------------------------------------------------------
Pair    | 0.42746    | 1574.7     | 5313.3     |4503.7 | 24.75
Neigh   | 4.0919     | 107.23     | 274.45     | 843.4 |  1.69
Comm    | 94.506     | 1213       | 4314.5     |3637.0 | 19.07
Output  | 72.114     | 72.188     | 74.268     |   2.2 |  1.13
Modify  | 171.72     | 3311.8     | 6119.1     |4419.5 | 52.05
Other   |            | 83.58      |            |       |  1.31

Nlocal:    72.2891 ave 154 max 0 min
Histogram: 40 2 10 12 0 0 0 25 31 8
Nghost:    703.305 ave 953 max 516 min
Histogram: 26 9 3 37 3 8 8 14 6 14
Neighs:    0 ave 0 max 0 min
Histogram: 128 0 0 0 0 0 0 0 0 0
FullNghs:  7758.83 ave 18615 max 0 min
Histogram: 44 20 0 0 0 0 4 33 19 8

Total # of neighbors = 993130
Ave neighs/atom = 107.331
Neighbor list builds = 503480
Dangerous builds = 0
write_data 		${DIR}/data.${NAME}_run
write_data 		run_14/data.${NAME}_run
write_data 		run_14/data.ibeam_cooling_14_run
Total wall time: 1:46:15
