LAMMPS data file via write_data, version 7 Aug 2019, timestep = 5000000

4083 atoms
1 atom types

1.4142642404943118e-01 5.1278573575941849e+01 xlo xhi
1.4142642404943118e-01 5.1278573575941849e+01 ylo yhi
1.4142642404943118e-01 5.1278573575941849e+01 zlo zhi

Masses

1 18.15

Atoms # atomic

2018 1 2.6957689969788095e+00 1.2852280876840227e+00 3.0071023005255597e+00 -1 -1 1
1317 1 5.5652530682149601e+00 1.1674114975434398e+00 3.3401749677766577e+00 -1 1 0
1510 1 6.4241757472931322e+00 3.1271391334799219e+00 1.3197298424681896e+00 -1 3 -1
3405 1 9.2029421300176697e+00 2.9763896344167424e+00 1.6314927807992605e+00 1 -3 -1
703 1 1.9536367069605273e+01 6.3248378982551481e+00 1.0997527503273168e+00 -2 2 -1
2978 1 1.6943070280857786e+01 3.0766534507594607e+00 2.4683637189942043e+00 2 3 1
1012 1 2.5682299193605207e+01 2.4989326320251060e+01 1.0020498952826745e+01 2 -2 3
2336 1 1.4664886252344900e-01 2.1081998207509777e+01 9.5853918819890609e+00 1 0 0
1847 1 2.2679443296505834e+01 2.3526432249741949e+00 1.0245148623969627e+00 -1 -1 1
3242 1 3.1481176135830164e+00 5.3777706586853640e+00 1.6937263492950489e+00 0 -1 -1
3626 1 1.6543489891102865e+00 3.8848421539266074e+00 3.2174843449078456e+00 2 0 -1
3171 1 5.7860579839669315e+00 5.5468504138801968e+00 1.8697429906173830e+00 -2 0 0
3855 1 1.3606139619811145e+01 5.5462873973878599e+00 2.6529355075027383e+00 1 1 2
1672 1 1.6146193733773149e+01 5.4536753282767165e+00 3.1801890392100614e+00 2 1 -3
3089 1 2.1576461969427744e+01 4.8155336354110068e+00 2.5570515626609640e+00 1 0 1
1576 1 2.2466479733480931e+01 4.2859926927711660e+00 5.4377815479889993e+00 0 1 1
2945 1 9.0572899349309965e-01 2.5041666856400926e+01 3.7429589779272265e+00 -1 0 1
508 1 2.4441993084356448e+00 7.9634195784373878e+00 1.6668679762706016e+00 -3 -1 3
2597 1 1.1191539437777616e+00 1.0711715409702325e+01 1.0981933350644587e+01 1 -2 0
700 1 9.8299822983795941e+00 7.8294743451842130e+00 2.2309081798044978e+00 2 1 3
2946 1 1.8241326760999875e+01 2.5135184058133476e+01 3.8386954190207305e+00 -2 2 -1
1223 1 1.2604421924851902e+01 8.0641238113920508e+00 2.8868560777974759e+00 0 0 0
2087 1 1.6327257131953875e+01 9.5713252273751248e+00 1.5459956671318891e+00 3 0 -1
3212 1 1.6752782486844911e+01 6.9608266166463055e+00 1.1063728206810346e+00 0 -2 -1
3160 1 2.0237496262550470e-01 1.3410266116701626e+00 1.6146052285272308e+01 1 0 -3
3825 1 2.1530348007917375e+01 8.0840849954305298e+00 2.3034663194120557e+00 1 0 3
627 1 2.4262534005866129e+01 7.5493030196760040e+00 1.8648210990793250e+00 -1 0 0
3409 1 2.5353345524553716e-01 5.4547123273889389e+00 1.4676395134994815e+01 0 2 1
3763 1 6.1748730800338034e+00 1.0328346968043137e+01 2.7778640141008739e+00 1 1 2
1400 1 5.0067998724230636e+00 1.2681086954705378e+01 3.0230292527109293e+00 1 1 0
3087 1 8.7199006991535235e+00 1.0350534278173447e+01 2.9830023046265053e+00 -2 -2 0
2843 1 1.0066336513417586e+01 1.1936947014443740e+01 1.1923859439188709e+00 1 -2 1
2827 1 1.2748336103199621e+01 1.2541261397853592e+01 1.8491479038893195e+00 -2 0 -1
2337 1 1.3737046391961323e+01 9.6710637994651165e+00 1.1340769366209034e+00 3 0 -1
3792 1 1.9115407602815029e+01 1.2044734456869602e+01 3.1634585803296842e+00 0 0 0
4005 1 2.1162732621871065e+01 1.0823607275854636e+01 1.6570895780441974e+00 -2 3 1
346 1 2.3351027517020903e+01 1.2053862275871218e+01 2.4200430470669136e+00 -1 0 -1
2914 1 2.1943026199908530e+01 2.5502049449227034e+01 7.3867830964365702e+00 -1 0 1
925 1 2.1544497757713139e+00 1.2777655360088641e+01 3.0356907044351091e+00 1 -1 2
1193 1 1.5216994515573981e+00 1.5275825298063186e+01 3.4126008128429057e+00 0 0 0
293 1 6.1413941947691155e+00 1.4186968485824382e+01 1.1763416724711280e+00 0 0 -1
2118 1 8.9675562647908702e+00 1.4451418234375371e+01 1.5697477028805356e+00 2 0 0
1545 1 1.6141746010036680e+01 1.4961350689951690e+01 1.2081183121535093e+00 0 -1 0
3988 1 1.8155827567204142e+01 1.3149241734195121e+01 8.9615329618805151e-01 -1 1 2
2203 1 2.1194891779603633e+01 1.5637980606704645e+01 1.0100140018759665e+00 -1 0 -1
3633 1 2.2204918599180289e+01 1.4307184198283817e+01 3.1683670698447957e+00 2 2 -2
420 1 2.8187135032383379e+00 1.6684728691107740e+01 1.5818462571954044e+00 1 3 2
507 1 5.4680788095739796e+00 1.6674466211170852e+01 1.5442181848101184e+00 0 -1 1
2160 1 1.4599368497707763e+00 2.3621978081161231e+01 6.6575758581429723e-01 0 0 1
2439 1 8.5032783476669955e+00 1.8370331840243185e+01 3.2138531408422284e+00 -1 0 1
2464 1 1.2811995219558417e+01 1.6904992916581801e+01 3.0407148056901034e+00 0 1 -2
2917 1 1.6838248457810167e+01 1.7409168580731407e+01 9.7200600472686283e-01 0 3 1
2384 1 1.9468890577324181e+01 1.7579890311905960e+01 1.5984634196030485e+00 0 0 -1
1968 1 2.5494042851631956e+01 1.7649657406930299e+01 8.4537590297821208e-01 0 -1 0
2409 1 1.4707059890098553e+00 1.9249153593758138e+01 1.5313906237543469e+00 3 1 1
920 1 2.7499454115140671e+00 2.0182248381812787e+01 3.7131404259645167e+00 1 1 0
3140 1 1.7357283976259549e+01 2.1037103814632601e+01 1.3453906409881174e+01 -2 0 -2
47 1 1.2060412797322805e+01 2.1740169622151583e+01 1.3814162675897748e+00 -1 0 1
1462 1 1.2448858620566147e+01 2.1015104263159571e+01 4.0709477584092513e+00 0 1 3
990 1 1.5466131784663247e+01 1.9497239167472326e+01 2.1721544983939305e+00 1 1 -1
3324 1 1.7525375355964737e+01 2.1000848737441750e+01 2.8699018586151168e+00 1 1 -1
2474 1 4.9732331556385772e+00 6.1282411909598999e-01 1.4672093710675234e+01 3 -1 0
2811 1 1.9347411182207498e+01 2.1761449348747043e+01 1.1865224786960729e+00 1 1 1
2032 1 2.3897447931467923e+01 1.9847226497762772e+01 1.0908233808455952e+00 2 0 1
2667 1 3.4611021295343214e+00 2.4237228734963875e+01 2.5351735210052784e+00 0 0 1
1237 1 2.8697674177872861e+00 2.5308754363519686e+01 5.7717784188916177e+00 -2 1 0
2290 1 2.5608377006790086e+01 9.4337402544928697e+00 1.5944194573483159e+01 -1 3 1
3605 1 4.5619943360383015e+00 2.1899550289543480e+01 2.7393633955998884e+00 1 1 2
786 1 8.3068809943423165e+00 2.4725612176264775e+01 2.3422598295452826e+00 1 -2 0
2567 1 6.9168288826423634e+00 2.2730324569303782e+01 3.5282685649689935e+00 1 -1 0
3470 1 1.2725057197101842e+01 2.4458625641153770e+01 1.6461224628662119e+00 1 -2 1
2532 1 1.5133610961492334e+01 2.4616832534857767e+01 9.1884099635931449e-01 1 0 1
3604 1 1.6483779993049041e+01 2.3551416773855387e+01 2.8603217837530495e+00 -1 0 0
3738 1 2.3212558566894810e+01 9.5433741380235082e-01 2.9800630516157480e+00 0 -1 0
586 1 2.1365269117281809e+01 2.3398159368585144e+01 2.0307709300822085e+00 -1 -2 2
715 1 1.0097702583397691e+01 3.2433725551681669e-01 1.2499321040769549e+00 -2 0 2
1186 1 5.5333185287421394e+00 2.4912952068402943e+00 5.8222156698340752e+00 0 2 1
678 1 8.5228553498247841e+00 2.3454675023362701e+00 6.0481379889574161e+00 -1 0 0
3599 1 1.3650240314459356e+01 1.1070638241016364e+00 3.7782109797718149e+00 -1 3 0
656 1 1.6237620927562865e+01 1.3285725360767207e+00 4.3307301815289234e+00 0 0 -1
2051 1 1.6121142841367096e+01 2.8411662966797815e+00 6.5345997331161891e+00 1 3 2
3155 1 1.9630684958872500e+01 2.7798347071923430e+00 2.8422586171194606e+00 0 0 0
443 1 1.1987760502567546e+01 1.1192823123179542e+01 1.6923514544150215e+01 2 -1 0
433 1 2.4250763782973397e+01 2.5100981006180696e+00 4.8540259850911927e+00 0 1 1
3116 1 1.9369532356453689e+00 4.8383287159497987e+00 5.6545714855287033e+00 1 0 2
3084 1 4.5092639523884577e+00 4.9760965424646448e+00 6.1621933946822542e+00 1 -1 0
1922 1 5.9862559660116075e+00 6.3009485475606244e+00 4.1196399177774872e+00 0 2 1
3080 1 8.6461757028904849e+00 6.3405052721193949e+00 4.0436214300181170e+00 1 2 -1
2748 1 9.7951953626018717e+00 3.8677061918094426e+00 4.0464268736758733e+00 1 -1 -1
2961 1 1.2714881191298860e+01 3.6740094212124261e+00 4.3535455812398780e+00 1 -1 1
1726 1 1.3674639825291949e+01 4.1807273312111217e+00 6.6243125772801905e+00 -4 2 -1
2262 1 2.1535584904724281e+01 6.6792797056256079e+00 6.6410955527247655e+00 2 1 1
111 1 2.0138223046911655e+01 3.0519293338101705e+00 5.8063695929683554e+00 1 -1 0
2579 1 1.2091082447584227e+00 7.3355271828389439e+00 6.1755145690743243e+00 4 2 0
3726 1 2.3329341226234122e+00 8.8072518217200599e+00 4.3549881731722992e+00 -1 0 0
4036 1 4.9292818945597432e+00 8.8269578432255607e+00 4.3266701152647933e+00 3 0 -1
1898 1 8.4194078467766165e+00 7.7789061155275743e+00 6.4473968308584073e+00 -1 0 1
2338 1 1.0683023204613384e+01 9.0093479240256684e+00 6.7762377519781136e+00 1 2 -2
2807 1 1.2919605467904208e+01 8.0296570884950480e+00 5.4270092872010673e+00 1 1 0
1174 1 1.4546130911987509e+01 6.8597610413221801e+00 7.0009959073332979e+00 -1 1 0
1445 1 1.6869096989426154e+01 6.7878492539230590e+00 5.5595717242412253e+00 1 1 1
3075 1 1.8177779155876443e+01 8.9548137109703614e+00 5.5352939319230829e+00 1 1 2
147 1 2.0797313824632688e+01 8.9419814601830083e+00 4.7595911951878200e+00 -2 1 -2
488 1 2.2317566350766946e+01 1.0653377198226572e+01 6.2175370266985128e+00 -1 0 -2
3200 1 1.6197147722551584e+01 2.3321375444240655e+01 1.6406059159719252e+01 0 -1 0
545 1 1.4734971006087125e+00 1.1137296530709678e+01 4.9953510801835845e+00 3 1 2
79 1 9.5102845614865910e+00 1.0840462344961804e+01 5.4499924161449425e+00 0 0 -1
2112 1 1.4523418794859253e+01 1.0283232765564305e+01 5.5323869035552757e+00 1 3 1
1578 1 1.6996691793746873e+01 1.0662543177626615e+01 3.8337438952040266e+00 0 -1 0
2984 1 2.1158306716186704e+01 1.2489066976791889e+01 7.2989005946651639e+00 2 0 1
1799 1 2.4455584382242687e+01 1.0786361853007408e+01 4.7106784469407259e+00 1 0 2
1475 1 2.0483853825881972e+00 1.5738206429399979e+01 6.2237861460400099e+00 3 0 2
3041 1 5.4216290774715779e+00 1.3316684527420305e+01 5.7380109669729364e+00 0 0 2
1466 1 6.9169878652310048e+00 1.5473120057148385e+01 5.6790480329581623e+00 2 -2 -1
2646 1 9.5102610899106406e+00 1.4703316055725516e+01 4.3664477056372117e+00 0 -1 0
3885 1 1.0958691746621227e+01 1.3098528210302993e+01 5.8176659671047712e+00 1 -1 2
3818 1 1.3388583231944178e+01 1.2575775685483695e+01 4.4333536797570412e+00 2 0 0
2062 1 1.4646189673956359e+01 1.5007078230519864e+01 4.1636078446075269e+00 0 2 1
4013 1 1.8476739396871555e+01 1.5964906902966129e+01 5.7704696696029840e+00 0 -1 0
2857 1 2.0101994293658993e+01 1.3536502208424446e+01 5.1787376107760963e+00 0 -1 0
193 1 2.4950289285233833e+01 1.4869029071763341e+01 6.4922701360119293e+00 0 -2 -1
1520 1 2.3902145962218004e+01 1.5815252880923781e+01 4.3677714153201226e+00 -1 1 -1
849 1 4.4431133800774667e+00 1.8668895642489918e+01 5.3436885633626918e+00 0 -1 1
400 1 6.2734262076770593e+00 1.7092155107236643e+01 3.9155319332821046e+00 -1 -1 0
1336 1 1.0568792680012246e+01 1.7191875283901499e+01 4.7471002152105406e+00 1 1 1
3919 1 1.1646726466318798e+01 1.7783823775994581e+01 7.0792014759608133e+00 -1 2 1
910 1 1.4065447988181935e+01 1.8965251908353885e+01 4.4288746409120066e+00 0 -2 1
3955 1 1.6357306107860037e+01 1.9675684145265933e+01 6.7152554480771069e+00 -2 3 1
76 1 1.5665822909375731e+01 1.5259764165550951e+01 6.4742059408031558e+00 -2 0 -1
580 1 1.9730150018685656e+01 1.7816938574274303e+01 4.2273482153513369e+00 1 0 1
1057 1 2.2490160762376544e+01 1.8024574629333475e+01 4.8078045089856163e+00 -1 -1 0
3510 1 7.4405311254718809e-01 2.1497349255724203e+01 5.2315787831598071e+00 1 -2 1
511 1 6.2518566552515642e+00 2.0076692435019041e+01 6.4558317580481059e+00 1 -1 2
2189 1 7.8754946047557324e+00 2.0467543585590608e+01 4.6232298881928271e+00 1 1 1
2861 1 1.0179198389980980e+01 2.1521094700216409e+01 5.4036667613219143e+00 -2 -2 0
3764 1 1.5469410046477504e+01 2.2170073788784560e+01 7.2092860675922168e+00 0 1 2
3706 1 1.8647587115826695e+01 2.0231793077691567e+01 5.1878089000737715e+00 1 0 0
1115 1 2.0538033761805352e+01 2.1812532032484057e+01 6.0167352632564848e+00 -3 2 0
305 1 2.3916434055723254e+01 2.0092469865058526e+01 3.9644908611026244e+00 -1 0 2
3853 1 2.2623206077688256e+01 2.2622472419307631e+01 4.4536569303835432e+00 -1 0 2
2169 1 2.7059786472823153e+00 2.2840139437108142e+01 7.0811598016256907e+00 4 -1 0
3484 1 6.5583875902628774e+00 2.4156801195702645e+01 5.8383624095054767e+00 1 2 3
3267 1 9.3729230659891734e+00 2.3844681493500790e+01 6.2363806339924643e+00 0 -1 0
2726 1 1.4252879986710006e+01 2.3165227427378795e+01 4.6312383122855003e+00 0 -1 2
2774 1 2.4817677048163880e+01 4.4355915930273255e+00 1.6221696639087018e+00 0 -1 3
953 1 1.9689473768384953e+01 2.4318092347563137e+01 6.1073304095413734e+00 -1 -1 2
1387 1 2.3961219867866706e+01 2.4506049094844496e+01 5.8044943325443290e+00 1 0 1
483 1 7.8588123493662843e-01 3.3507333128401191e+00 7.8438920206536293e+00 1 2 0
3507 1 1.9961361981310743e+00 8.0427564669256846e-01 7.1967330101572742e+00 1 1 1
329 1 5.3690467867930307e+00 1.7297840776683777e+00 1.0086649610117014e+01 -1 0 1
726 1 4.7879707459761027e+00 5.3407367597710387e-01 7.6725160325430988e+00 0 0 -1
1412 1 7.9000478923718749e+00 2.1102225541477106e+00 1.0229613094936633e+01 0 3 1
2513 1 1.2917225460612613e+01 4.6335492024944164e-01 8.4135936499391590e+00 2 -1 2
3058 1 2.5402221794870396e+01 5.2308507316898254e+00 1.4312942964253594e+01 -1 1 1
2454 1 1.7191001014292631e+01 1.8848536330253634e+00 8.7408263462134261e+00 2 1 -2
1560 1 1.9990208594861002e+01 1.6698358606527148e+00 8.3103710148238168e+00 -1 1 0
1542 1 2.1807483000883444e+01 2.8489964988137118e+00 1.0430056670029639e+01 0 0 0
1321 1 2.4419953245954453e+01 2.9935733325756968e+00 9.8708783795346466e+00 3 0 1
2367 1 2.3103922159239612e+01 4.9727808037956228e-01 1.3277441738578387e+01 1 1 -1
3125 1 1.5730160400424096e+00 4.0332881344382407e+00 1.0219834815996377e+01 1 1 1
1556 1 5.4077291941574801e+00 5.9300490600616484e+00 8.4906174306341047e+00 0 0 -1
3435 1 9.2958632979190519e+00 3.5256510004826729e+00 8.2520049458852718e+00 0 0 1
717 1 8.1518241523172144e+00 6.2481442657767898e+00 8.4807131010598127e+00 3 0 1
2378 1 1.2091219578632671e+01 3.2497267991165524e+00 8.8186382192031569e+00 1 1 -1
2219 1 1.8273855708842738e+01 5.0190797798052937e+00 7.0117910994737533e+00 1 1 1
652 1 2.5190859000211809e+01 5.5602574966257041e+00 9.7401639899335990e+00 1 0 1
2743 1 2.4143054127073629e+01 6.9474603050137382e+00 7.3981211053061378e+00 0 2 4
1110 1 1.9865272777366003e+00 8.4294983540515549e+00 8.6338826251270859e+00 2 3 1
3410 1 7.6402587509039821e-01 6.7049506247611808e+00 1.0394518274237313e+01 3 1 1
3639 1 6.0014252373542858e+00 9.2041249506826830e+00 6.7904222466199213e+00 1 0 0
3771 1 4.4992572343040385e+00 8.2700576168273532e+00 9.0792568601605392e+00 1 2 1
2100 1 1.1114868907274715e+01 9.3790268714392475e+00 9.3945136489511292e+00 -1 1 0
3997 1 1.4635642890713953e+01 6.8132221866874323e+00 9.8393811691803172e+00 3 1 2
4008 1 1.3577273756585734e+01 9.2345473500805575e+00 1.0074275175370055e+01 2 -3 1
62 1 1.9573792375418325e+01 7.1477043371110698e+00 8.7750190092578197e+00 3 1 -1
917 1 2.1281465718370715e+01 8.8805920838399111e+00 1.0398370066509392e+01 -1 -1 -2
4043 1 2.3423686999581903e+01 9.4450001685162093e+00 8.5812839873253779e+00 0 -1 -2
2760 1 1.5178178381428653e+00 1.1290240327304275e+01 7.6410838624386708e+00 1 -1 1
3456 1 7.0048586321252708e+00 1.1512613242283027e+01 6.5774080407157784e+00 0 1 0
355 1 7.2818694958498007e+00 1.1665212847498722e+01 9.4589368973133485e+00 1 0 1
1006 1 9.8348996102911741e+00 1.1752903983469945e+01 9.8293075300782373e+00 -1 2 0
3439 1 1.5107168608870813e+01 1.0482177138183300e+01 8.2040605695203972e+00 0 1 0
2999 1 1.7830221014358013e+01 9.2686911728552790e+00 8.1732225347957552e+00 0 0 0
3700 1 1.9213318629580733e+01 1.1487104592643474e+01 8.9219303754165100e+00 1 0 2
1133 1 2.5277562167510244e+01 1.1033051956400326e+01 9.6239184894941054e+00 -2 1 -1
318 1 3.1630837760037749e+00 1.3520690322909379e+01 7.1313334734646663e+00 0 0 1
2873 1 3.7298754926273645e+00 1.4414918581739249e+01 9.7665439505260654e+00 -2 -1 0
139 1 6.3595158656113675e+00 1.4132073029534924e+01 9.7482967550601920e+00 -1 0 1
3316 1 7.5102143796595158e+00 1.6224649530511794e+01 8.3769292650512348e+00 0 1 -1
933 1 1.0950162498801761e+01 1.3760589570985271e+01 8.3642456796873077e+00 -1 -1 0
2072 1 1.0267877438945757e+01 1.6261338608950048e+01 8.6259944130312753e+00 0 3 1
2042 1 1.5175571450700774e+01 1.3336179569815094e+01 8.4957125009823216e+00 -1 0 2
2704 1 1.3152871435311841e+01 1.3739938702542769e+01 1.0095735556177422e+01 -2 3 0
2504 1 1.2907509472850441e+01 1.6250535855220033e+01 1.1820024767851647e+01 1 1 3
3526 1 1.7690302610356998e+01 1.3915938005488004e+01 9.2441855907619956e+00 0 1 -1
2070 1 1.9015816424181960e+01 1.6148409233189302e+01 8.3795844434970554e+00 -1 1 1
1037 1 2.2941895719763860e+01 1.4095763007036798e+01 8.1257703890744111e+00 -1 1 0
1890 1 2.4188573192280934e+01 1.3302924271548722e+01 1.0450477654451820e+01 0 2 -2
1327 1 2.7011857418417855e+00 1.8076584459485048e+01 7.5087820795327174e+00 -1 0 0
856 1 3.7583806088110933e-01 2.3511067255127465e+01 8.5523448363299064e+00 2 0 -1
1180 1 2.8508079230934582e+00 1.7019914169159652e+01 1.0221118249888621e+01 0 1 1
2773 1 6.9812478281998622e+00 1.9064645655580964e+01 8.6592759520371487e+00 0 2 -1
1809 1 1.4388576903979159e+01 1.7553708954702909e+01 7.5266533082043443e+00 2 2 0
2868 1 1.4656575687853008e+01 1.8125452281960374e+01 1.0168505767162785e+01 -1 0 1
3898 1 1.7489230872282285e+01 1.8330187518798766e+01 9.0952195259253283e+00 0 1 1
2776 1 2.1781938889055755e+01 1.6431221073311971e+01 9.0144672330729776e+00 2 0 0
1598 1 2.2973739405054026e+01 1.8323137024614809e+01 7.4629002683147307e+00 -3 1 0
46 1 2.5133137559485391e+01 1.4815148202165457e+01 1.5865523581625887e+01 0 0 1
2265 1 9.1222032160616955e+00 2.0577785444727603e+01 9.5543584890876936e+00 -1 2 -1
820 1 1.1095739817306908e+01 2.0389523291838596e+01 7.6402094929419171e+00 -1 0 1
3220 1 1.3499542815807278e+01 2.1433113931129309e+01 8.6847225425788572e+00 1 3 -2
1437 1 1.8963778085923462e+01 2.0530322293317628e+01 9.8116826000899096e+00 2 0 -1
4075 1 2.1340706464047003e+01 2.0512830855756121e+01 8.2594774619957843e+00 0 -2 1
1030 1 2.3109418550975963e+01 2.2195325692291600e+01 9.3976984879264407e+00 0 1 1
3281 1 2.1418619094771141e+00 1.1975584489019225e+01 4.3008113051487817e-01 1 1 -2
1001 1 5.2278013286965983e+00 2.2548828091538056e+01 7.3407578881074009e+00 0 -1 0
3789 1 5.8137811353100837e+00 2.3069530586490458e+01 1.0032843101675301e+01 2 2 1
1626 1 9.9363102766194533e+00 2.4640125056846905e+01 8.8194170351240224e+00 0 1 3
2002 1 8.3511447167602579e+00 2.3020955807024894e+01 1.0284640284959504e+01 0 0 0
367 1 1.2806491112880932e+01 2.4197019805981459e+01 8.8747105336041177e+00 1 0 2
1671 1 2.4679394050371194e+01 1.7348721771283124e+01 1.4977267834737766e+01 -1 1 1
690 1 1.7499619349321552e+01 2.4058772289572865e+01 7.7901127557239542e+00 1 0 2
146 1 1.8042290829035370e+01 2.2957734572028887e+01 1.0342198975588174e+01 -2 -2 0
2546 1 1.4979239200578767e+00 2.4478978657018807e+01 1.5080100803337290e+01 -1 -2 1
2875 1 3.9525704519439473e+00 2.0351839500422773e+01 1.5980025914112488e+01 -1 1 2
1605 1 2.5597891545338882e+01 1.8759818277173437e+01 8.4351701909785390e+00 -1 1 2
559 1 2.3800305081392263e+00 5.5465456445146422e-01 5.6860377467791556e-01 -1 0 2
1771 1 8.5071591294462703e+00 2.7829636575681804e+00 1.3048973569114168e+01 -2 1 -2
2962 1 1.7263711222549379e+01 3.3374996040055329e+00 1.0891252567529545e+01 0 -1 0
2938 1 1.8772468148382941e+01 1.5061648285857105e+00 1.2174656641195758e+01 1 1 1
1308 1 2.5044524926394846e+01 2.2984002190150377e+01 7.8843859904999878e+00 -2 2 1
3392 1 1.0124129645310367e+01 2.5682926678660099e+01 4.1849733645379841e+00 1 1 0
2055 1 4.3268774624509971e+00 4.2484605113144882e+00 1.0279632445069932e+01 -2 1 2
1881 1 5.8734078800131373e+00 4.2354923021643662e+00 1.2927099274669681e+01 -1 3 2
2470 1 1.3150100187540684e+01 4.5809772100908486e+00 1.1065456367689297e+01 1 0 -1
471 1 1.5061228413921089e+01 3.5894082658070050e+00 1.2781776477373421e+01 1 -2 2
335 1 1.6248427060643706e+01 5.8120936993404388e+00 1.3894880407516293e+01 0 0 -1
1010 1 1.8188615815257503e+01 5.5789065181595117e+00 1.0583776657854649e+01 -1 2 2
435 1 2.0652106372693286e+01 4.8030877863837951e+00 1.1861359810360796e+01 -1 2 -2
3578 1 1.9849124014849451e+01 3.3611959931811342e+00 1.3744015076120151e+01 0 -1 0
3154 1 1.5023030340027930e+00 7.3371075256981602e+00 1.3038549104918186e+01 1 1 0
546 1 3.9954923595729523e+00 6.8744993524823217e+00 1.1914066852745220e+01 0 -1 0
1168 1 9.3384084994815950e+00 7.5657858628541694e+00 1.0465787845359410e+01 -1 1 -1
406 1 7.8701892943077034e+00 8.1821628753273590e+00 1.2477777652964170e+01 -1 0 0
924 1 1.1264502562898150e+01 6.1383859827706901e+00 1.2223014340871588e+01 0 2 0
460 1 1.2646347570585458e+01 8.0109353270700332e+00 1.3769149888920138e+01 1 -1 1
439 1 1.6697899988120820e+01 7.2058339160944618e+00 1.1704223253030683e+01 -1 1 1
3861 1 1.7706372010732082e+01 9.5242710690926788e+00 1.2572237520877056e+01 2 -1 0
733 1 2.1712812301251638e+01 7.0667761604328270e+00 1.2533297206541873e+01 0 -1 2
3361 1 2.4511819214558315e+01 6.8376289041065998e+00 1.2146309010438452e+01 0 0 0
2333 1 3.6151316739460598e-01 2.2680197519205112e+01 1.6895132905336840e+01 -2 1 2
2083 1 5.9090379943423335e+00 9.7596882730638974e+00 1.1088648499559607e+01 0 0 -1
2557 1 3.7247691546730852e+00 1.0823087898136427e+01 1.2465301105754856e+01 1 -1 2
2737 1 9.0183122495285080e+00 1.0215078817365336e+01 1.3808826475384640e+01 2 0 0
1585 1 1.0117016147870286e+01 1.2169621505382487e+01 1.2244626078398674e+01 -2 2 1
265 1 1.3242013265392595e+01 1.2460089238641647e+01 1.2724223653854454e+01 0 0 0
1101 1 1.3875368369215739e+01 1.0039270155837693e+01 1.2664766917661343e+01 2 -1 -1
309 1 1.5741018989181249e+01 1.3494189895798689e+01 1.3480987564197935e+01 -1 1 -1
2835 1 2.0009406713101431e+01 1.0957383510787018e+01 1.1404236462592186e+01 1 -2 1
1054 1 2.1959771597892768e+01 1.2812857429406776e+01 1.1928238157941596e+01 2 3 0
1047 1 2.3355226994953373e+00 1.3427130836392294e+01 1.1882556663921260e+01 1 1 0
2167 1 6.8596855193844650e+00 1.5045364900320253e+01 1.2268692578636999e+01 0 1 1
3031 1 9.1299575272987195e+00 1.4360105439353518e+01 1.2652442421106358e+01 0 1 1
3169 1 1.7537168867375680e+01 1.4467229669058987e+01 1.1783907778185934e+01 1 0 -1
3534 1 2.0213538546135798e+01 1.4789732495311476e+01 1.2368293071250038e+01 0 -2 -1
2795 1 1.1979828401089717e+01 2.4413394219088879e+01 1.5922102331331240e+01 0 -1 1
3028 1 2.0195512232943962e+00 1.7648335641976068e+01 1.2924393848644552e+01 1 2 0
3912 1 5.2296113016662282e+00 1.8537684499240378e+01 1.0521541357700933e+01 1 1 -1
3363 1 6.3872003100631645e+00 1.7896542771633420e+01 1.2691051824527538e+01 1 -2 1
3970 1 8.7619397613803951e+00 1.9461601253424849e+01 1.3567322069975061e+01 -1 -1 0
1858 1 1.0223940841598509e+01 1.6461869435817636e+01 1.1078030471599963e+01 -2 0 0
3727 1 1.0180983514346350e+01 1.9118502370842045e+01 1.1418633815821652e+01 2 -1 2
2690 1 1.4547180023006664e+01 1.6916756378929833e+01 1.3880426248629700e+01 -1 0 0
1333 1 1.6604993338159655e+01 1.6980664150331027e+01 1.2221444734560293e+01 -1 -2 -1
898 1 1.8362546377610421e+01 1.8692112143654771e+01 1.3236149646990771e+01 1 -1 0
1200 1 2.1716341020220916e+01 1.6700853224790485e+01 1.1653749201015748e+01 0 -2 4
3730 1 2.0251581239344357e+01 1.8987991272762574e+01 1.1507843284055353e+01 4 1 -2
520 1 2.4503088715193968e+01 1.6873447651544730e+01 1.2283251403931263e+01 1 -1 1
2272 1 1.4881734075598325e+00 2.0842461478382347e+01 1.1702909511707684e+01 1 0 1
3329 1 4.2852637700107943e+00 2.4538771427117677e+01 1.5091625088262168e+01 1 0 0
250 1 4.3872734603693750e+00 2.1135830709152415e+01 1.1203678717042244e+01 0 1 -1
3538 1 1.2135978313316116e+01 2.0603400015656597e+01 1.2746412860858504e+01 2 0 -2
3602 1 1.4468118583575134e+01 2.0567876948808244e+01 1.1087172302164594e+01 2 0 2
253 1 1.5945821359256293e+01 2.2885971918158340e+01 1.2114015474548141e+01 -1 0 0
4060 1 2.1628734118234615e+01 2.0677087252721016e+01 1.3164589312836389e+01 2 1 1
3945 1 1.9646254290113006e+01 2.2495629404705902e+01 1.3770678021013572e+01 1 -1 2
1056 1 2.3811939715519170e+01 2.1508953464338099e+01 1.1784774070616093e+01 -1 -1 1
2831 1 1.9610157701262971e+00 2.4980275930318694e+01 1.0635022490414233e+01 1 0 0
2266 1 1.0503418988717979e+00 2.3379099308969320e+01 1.2521253482958949e+01 1 -1 2
2447 1 4.7913990434881937e+00 2.5381455425506303e+01 1.0530878567050998e+01 0 0 2
547 1 8.9335928582939079e+00 2.3600817639370746e+01 1.2870535803893674e+01 -1 -3 0
2097 1 1.1795300879897210e+01 2.3221769580244732e+01 1.3139577855820617e+01 2 0 0
336 1 1.2776228401160077e+01 2.5095194232570762e+01 1.1395942836269104e+01 0 0 1
3969 1 2.5503992384824443e+01 2.3708014812534238e+01 1.2334952414310928e+01 -2 1 0
692 1 1.9870173151580264e+01 2.4281172438876709e+01 1.1758118030736291e+01 1 1 2
2307 1 2.2009759747094805e+01 2.4640166084545388e+01 1.0430344930435581e+01 1 -1 -1
63 1 1.5265409075592087e+00 2.8360680293476550e+00 1.4359273176144335e+01 1 2 2
3756 1 3.2465443489607582e-01 2.3101889617951441e+00 1.2052362855337710e+01 -1 1 -2
1390 1 1.2217934387270967e+01 1.6624996234056287e+01 2.2887266410002652e-01 -1 1 1
2269 1 4.1766738871847569e+00 3.0674292305956685e+00 1.4902879838707232e+01 -1 0 -1
1837 1 7.5760610687582162e+00 1.0012952801364192e+00 1.4914176319943515e+01 1 1 1
1386 1 1.6214159869807681e+01 2.0636791272223658e+01 1.5813821418184061e+01 0 2 4
1235 1 1.3774689193315080e+01 1.8990958345626776e+00 1.4155269857069959e+01 1 2 -1
1314 1 1.5946474155315592e+01 9.5396132324794103e-01 1.5592800701950983e+01 1 -1 1
2444 1 2.0939110305437321e+01 1.9761937031170117e+01 5.4201795671212816e-01 1 1 2
2254 1 2.1853621861543886e+01 2.1456764586813031e+00 1.4924769016652945e+01 0 0 1
3584 1 1.1394651604124686e+00 2.0288145392543775e+01 1.6166689543287788e+01 4 -2 0
3668 1 8.3942483565041535e+00 1.3878853022353796e+01 1.6674392657099109e+01 2 3 2
1055 1 8.4033085315788245e+00 5.8584207693609160e+00 1.5580263141464654e+01 0 1 3
162 1 1.2075005623484380e+01 3.3968534657425340e+00 1.5540789201164657e+01 0 0 -1
1910 1 1.0092756785821171e+01 4.7530597134645207e+00 1.4141125348443392e+01 0 2 1
1987 1 2.4926452767991290e+01 1.7401669486274729e+00 7.4571479440761683e+00 0 0 1
216 1 1.8077496259478607e+01 4.6686303417878543e+00 1.5339332575717430e+01 -2 1 -2
1339 1 1.9525235108520640e+01 6.5561914669325079e+00 1.6155552018742920e+01 -1 0 1
490 1 8.7519608968429612e+00 2.2914612788847240e+01 1.6789645891891681e+01 0 -1 -1
357 1 2.3196892894904316e+01 4.2530292222503743e+00 1.5901051447454472e+01 1 -1 0
613 1 2.9216931294396313e+00 9.3292716496000825e+00 1.4350214211483660e+01 0 0 1
3936 1 4.9317599581579490e+00 8.1518167444293610e+00 1.5643266926734059e+01 2 2 1
3635 1 1.5967614617129930e+01 2.5663722611316924e+01 1.4970596198861429e+01 -2 0 -3
3114 1 6.4946738711072900e+00 6.6725912053585592e+00 1.3992963275430451e+01 2 0 -2
2880 1 1.0768857129480903e+01 9.0728728529012219e+00 1.5528686877372039e+01 1 -1 3
973 1 1.4530876595054762e+01 7.0693422731308448e+00 1.5365371083333256e+01 -2 0 -1
2151 1 1.5761172783909865e+01 9.3285687304043332e+00 1.6611647588849159e+01 1 -1 1
228 1 1.9820834405434997e+01 8.1940630528557712e+00 1.4143854577974649e+01 -1 -2 1
1452 1 5.6484365197291198e-01 1.9681087453163254e+01 7.2165364208779961e+00 -1 0 -2
815 1 1.3015511877624322e+00 1.0487494267977780e+01 1.6129214194176825e+01 -1 -2 1
2490 1 2.5397655326564685e+01 1.2548154586043081e+01 6.9420881844600324e-01 0 2 1
1252 1 7.2122453917759275e+00 1.1809219172682647e+01 1.5255454740748384e+01 -1 -3 2
2465 1 1.2120452787665910e+01 1.8567611697002562e+01 1.6721904274958476e+01 0 -2 2
941 1 1.6302709843779873e+01 1.0680729603549766e+01 1.4270469531617398e+01 0 -2 1
3394 1 7.7941018566422953e+00 2.1789297260110484e+01 1.4554466829591174e+01 2 2 -1
3306 1 2.1285701973295229e+01 1.0119256793170202e+01 1.5918689881885063e+01 -2 0 1
241 1 2.2552156944438366e+01 1.1931967197174862e+01 1.4496809780917584e+01 0 1 2
3005 1 2.5134796813554836e+01 1.0848859428870018e+01 1.3774566873244959e+01 1 -1 -2
1312 1 1.7503328017479007e+00 1.4947682390990337e+01 1.3970572586349657e+01 1 3 -1
3597 1 5.2397759132647854e+00 1.3019031712280418e+01 1.3651140837180540e+01 1 2 0
2796 1 3.8538767750814036e+00 1.4401097647713467e+01 1.5879139632546989e+01 0 0 2
1582 1 1.6597063384758346e+01 3.0340927353387763e+00 1.7138313216377195e+01 1 0 0
2456 1 1.0023896689164898e+01 1.5127113952383132e+01 1.4876697965890694e+01 2 -3 0
442 1 1.2382305777897660e+01 1.3524522788926955e+01 1.5331314436256701e+01 -1 1 1
94 1 1.4278501214008324e+01 1.5076519696394024e+01 1.5995480856812247e+01 1 -1 -1
3477 1 1.7909156712810532e+01 1.2975960180678115e+01 1.5858102721432143e+01 0 0 -1
724 1 1.9839922419930833e+01 1.4868048005566520e+01 1.5118000886929014e+01 2 -1 -1
3497 1 2.5426494821929957e+01 1.9085721611634384e+01 1.1087775616675698e+01 -1 1 0
3365 1 2.2173157326700267e+01 1.4154571320888552e+01 1.6041741470183890e+01 0 1 0
1326 1 1.9607912378143677e+01 1.7811079172781813e+01 1.5327706414572543e+01 0 0 1
619 1 4.2752630806011469e+00 1.8376721273184717e+01 1.4333869034446161e+01 -2 1 -1
1550 1 9.5503104099138039e+00 1.8008576695854615e+01 1.5642042032943070e+01 -4 -1 1
640 1 2.2225732275421390e+01 1.8568170374997351e+01 1.4719819455218914e+01 -1 -1 0
279 1 1.3888941332519309e+01 1.9337445213521388e+01 1.4712914398049488e+01 -2 -1 1
806 1 4.9123385080211639e+00 2.1931835762085036e+01 1.4070566487713222e+01 -1 0 1
2084 1 8.9251745152622526e+00 1.8926058908483011e+01 4.1946981523316085e-01 1 1 -1
3895 1 2.5357352709940276e+01 1.3956108821976811e+00 1.2099009668852315e+01 1 1 -1
2085 1 2.0636627858952934e+01 6.6341402294211560e-01 3.0793943351782036e+00 0 1 -1
884 1 1.0710354537486531e+01 1.5850305697341665e+00 1.6996875597005541e+01 -1 0 1
160 1 4.3232931134408767e+00 1.6767268691110917e+01 1.6841689348272102e+01 -2 0 1
3063 1 2.3735281167144208e+01 2.3825430791403672e+01 4.5476789691880171e-01 1 -3 0
1 1 2.0848768211630649e+01 8.5359711949599903e-01 1.7130377368788391e+01 2 1 -1
1529 1 1.8108043338895666e+01 1.8924497877114550e+01 1.7109345632282178e+01 -2 0 0