LAMMPS data file via write_data, version 7 Aug 2019, timestep = 200000

4083 atoms
1 atom types

2.6214679844343536e-01 5.1157853201555064e+01 xlo xhi
2.6214679844343536e-01 5.1157853201555064e+01 ylo yhi
2.6214679844343536e-01 5.1157853201555064e+01 zlo zhi

Masses

1 18.15

Atoms # atomic

1450 1 1.8296820226020878e+00 2.6017270191650455e+00 2.7463914591197982e+00 0 1 1
177 1 4.6641789823862831e+00 3.3968749401376295e+00 2.5170845082618349e+00 0 0 0
375 1 7.2907174845195168e+00 2.4919416665413254e+00 1.4490927125343793e+00 0 0 0
1577 1 1.1359681111002827e+01 2.8351096637113637e+00 2.0315736477754669e+00 0 1 0
3452 1 1.4615718576886627e+01 2.6097228228359479e+00 2.6543052282853168e+00 1 1 0
867 1 1.8012461685141492e+01 2.6611861100750578e-01 3.0201219683356157e+00 0 0 1
828 1 1.8797543627451159e+01 7.1460828423416944e-01 3.0393533014729762e-01 0 0 1
4073 1 2.8167252539193806e+00 5.8227770963246366e+00 3.1002993508865453e+00 1 0 1
2185 1 9.2506531829885290e+00 4.2215568453028975e+00 1.9902856988649449e+00 1 0 0
3874 1 1.7420971791263714e+01 4.3360226575379848e+00 8.5394935009397843e-01 1 1 1
3375 1 1.7701653140394665e+01 6.4448979328055733e+00 2.7762274226936117e+00 1 1 0
297 1 2.1090969774265968e+01 4.2337806897345001e+00 1.7748158272434851e+00 0 0 0
3722 1 2.3481909875243002e+01 5.5590804607903461e+00 1.4557650416897747e+00 0 1 0
2008 1 2.5672156075653316e+01 4.0234124960778548e+00 3.3167732935475236e-01 0 1 1
1153 1 6.0105001000602942e-01 7.6184711704176982e+00 2.2218688519311121e+00 0 1 0
1327 1 5.6554734415251451e+00 6.8804572702236344e+00 1.7984837750238387e+00 0 1 0
4052 1 8.2379193691445511e+00 6.7286003641342100e+00 2.2815537379659427e+00 0 1 0
1531 1 1.2901250807248269e+01 6.6477282206513557e+00 1.3209400084681222e+00 0 1 1
400 1 1.0361715606834039e+01 7.9743537872260575e+00 7.8416497050076039e-01 0 0 1
409 1 1.4240301911884828e+01 8.9075601009733596e+00 2.3733194460435136e+00 1 0 0
1333 1 1.8311653809143401e+01 8.9595086340147372e+00 6.8279784412402444e-01 0 0 0
293 1 2.1431939135158437e+01 8.8499328142779650e+00 8.7213963900401359e-01 0 0 0
3450 1 2.0168116450659003e+01 7.1615787323754088e+00 3.2659133371195401e+00 0 0 0
2631 1 2.0238934237682944e+00 1.2333635357210079e+01 1.5146061110692295e+00 1 0 0
1782 1 5.1313973833400812e+00 9.8122098948950356e+00 3.3707588389497127e+00 0 1 0
2368 1 3.8397962399952892e+00 1.1925941389741693e+01 3.6421367106118883e+00 1 0 0
248 1 7.7880805242444797e+00 1.2936301984029109e+01 2.2926644672313836e+00 0 0 0
1619 1 1.1035390568872447e+01 1.1099379014255440e+01 1.0838039715212806e+00 0 1 1
595 1 1.6583073853543315e+01 1.2968106412756796e+01 2.9202050627492251e+00 1 0 1
3698 1 1.8321306855918024e+01 1.1719154722817532e+01 1.5460908513962965e+00 0 0 1
694 1 2.0422056162597617e+01 1.1443208748681631e+01 3.3909833080867609e+00 0 0 1
2377 1 2.2932274547998325e+01 1.0804022575603176e+01 2.4473962611750228e+00 0 0 0
887 1 2.3562579912558206e+01 1.2382434397284717e+01 4.1789221747235988e-01 0 0 1
55 1 1.9009059183624848e+00 1.6081233726999681e+01 9.5770505475735968e-01 0 0 0
42 1 3.2370202835358886e-01 1.4163451094966641e+01 8.4289143123636945e-01 0 0 0
2469 1 5.6300667888671319e+00 1.3933392347022828e+01 3.5991314842268385e+00 1 0 0
3500 1 9.9246536263499046e+00 1.3998615791750455e+01 1.3321764669702185e+00 0 0 0
1873 1 1.4804733943150286e+01 1.4057679938029992e+01 1.0818881939607223e+00 0 0 1
3898 1 1.3062610371929550e+01 1.5302792597707654e+01 3.0204413030311037e+00 0 0 1
3576 1 2.1929289358217282e+01 1.5833163623170439e+01 3.1521799084012474e+00 0 1 1
1884 1 2.4144368206871537e+01 1.4646617999284663e+01 2.0602484692031968e+00 0 0 1
2781 1 1.9959181009441682e+00 1.7146454790968374e+01 3.5457562004668075e+00 0 0 1
3820 1 6.6019192098428565e+00 1.6486245050892752e+01 1.5538101606968515e+00 0 0 1
3498 1 9.0762637029333604e+00 1.6496982260331922e+01 7.9933160670483105e-01 1 0 0
1206 1 1.1007506344610345e+01 1.8579122028927511e+01 1.1109022979597107e+00 0 0 0
156 1 1.3114522930974649e+01 1.8226248602730038e+01 2.2917548984907268e+00 0 0 0
560 1 1.5675531709230111e+01 1.8363348614983984e+01 1.2753499711789873e+00 0 0 1
3131 1 1.8307301194493526e+01 1.7865927407370787e+01 2.3437590579138803e+00 0 0 0
3042 1 2.0405689371614070e+01 1.6515680445329256e+01 9.9861810218102720e-01 0 -1 1
36 1 2.4784101552767939e+00 1.9740017755548926e+01 2.3548933824676004e+00 0 0 0
1335 1 1.4097000954372743e+00 2.2051543671700237e+01 3.5920958958755218e+00 0 1 0
210 1 8.0349679530862197e+00 2.1307418720610233e+01 1.2175641023557759e+00 0 0 0
1112 1 6.6526201146118362e+00 2.2190944178500818e+01 3.2647236476898307e+00 0 0 0
1275 1 1.0319630799640796e+01 2.0976319436816020e+01 2.8406751313728353e+00 0 0 0
676 1 1.2290629983913428e+01 2.1870004313536693e+01 1.2556246825601471e+00 0 -1 1
2553 1 1.4628379581007289e+01 2.2075258275568896e+01 2.4558754370636446e+00 0 0 0
291 1 1.9145051676263744e+01 2.0764167946788582e+01 1.8550903370403562e+00 0 0 0
2888 1 1.6484943633774307e+01 2.0785849727366312e+01 8.6965064976720563e-01 0 0 1
4033 1 2.2490289016669962e+01 2.0051783930966458e+01 1.6717789521405342e+00 0 0 1
3211 1 2.7725348439834629e+00 2.3544497119511732e+01 1.7564152086406686e+00 0 0 0
711 1 5.1367080424752860e+00 2.4269385024274349e+01 2.4017741016661560e+00 0 0 1
996 1 1.0725059210723527e+01 2.5143858178260651e+01 2.0581407786402535e+00 0 0 1
1117 1 1.5042958075518200e+01 2.4574801036276703e+01 1.9420147636043479e+00 0 0 0
2059 1 1.9088905592870343e+01 2.5578933180317808e+01 1.7561229873797597e+00 0 0 1
3295 1 2.1466582715832729e+01 2.4314015422540137e+01 3.6203436713424133e+00 0 0 0
3344 1 2.1176811078596444e+01 2.2760996579227299e+01 1.0824334474002337e+00 0 0 0
3263 1 2.4129561853277700e+01 2.4019840387155632e+01 6.7809380393091945e-01 0 0 0
73 1 2.4308445090085272e+01 2.4456747268252020e+01 3.4092145378868874e+00 0 0 0
3379 1 2.1866780536757249e+00 4.8022920333882546e-01 6.8104193429118984e+00 1 1 0
3802 1 6.0070596742441618e-01 3.3604924644586009e-01 4.4836864808487293e+00 1 1 1
566 1 5.0994847109542976e+00 1.0129418421575842e+00 5.8742000402912877e+00 0 0 1
2815 1 8.4305779979529820e+00 3.3803448178155584e+00 4.6803209600112181e+00 0 0 1
242 1 9.3608562557806074e+00 6.9004694134276334e-01 4.9302308091757503e+00 0 0 0
1830 1 1.1693259945327883e+01 7.5364222719114315e-01 6.2908306386500232e+00 0 1 1
1102 1 1.2512208992295587e+01 3.2959006556901111e+00 6.2184485599208621e+00 0 1 1
1360 1 1.3902520840756464e+01 6.8762228163401806e-01 4.4296415578443833e+00 0 1 0
480 1 1.7453274233821471e+01 3.3320661276432499e+00 3.7401666946851986e+00 0 0 0
3066 1 1.9102695254996963e+01 2.9762876691088858e+00 6.4358202480739273e+00 1 0 1
1059 1 2.2365102286925836e+01 2.5417565489176401e+00 3.7652873663211146e+00 0 1 0
3880 1 2.1151482435083956e+01 1.3860489554486632e+00 5.9277165904271323e+00 1 0 1
1656 1 1.2087564394583161e+00 3.9999023495529755e+00 5.1955991289979648e+00 0 1 0
3323 1 5.8297725102356290e+00 3.4597368727137070e+00 4.9246267160649637e+00 1 0 0
359 1 5.4685944446233776e+00 5.7447519414891914e+00 6.6014203870698900e+00 0 0 0
215 1 9.9931389769477086e+00 4.7858419657362878e+00 6.4080764461652420e+00 0 0 0
1219 1 1.2467299180032915e+01 4.8572054746833180e+00 3.7451049333186273e+00 0 1 1
4062 1 1.5410151530309898e+01 4.7316742434534564e+00 5.1365679578405112e+00 0 1 1
127 1 2.2525971151924001e+01 5.5522785050635619e+00 6.7133135342641266e+00 0 0 0
1668 1 1.9637156769298684e+01 6.0634381510531199e+00 6.1581803472268621e+00 0 0 1
1282 1 2.4432498942911703e+01 3.6029406425567054e+00 4.9254483676703487e+00 0 0 0
189 1 1.9497107010071821e+00 8.2982148173902441e+00 6.2160444571155944e+00 0 0 0
1930 1 3.9882201012115570e+00 7.5813399992712993e+00 4.8767251960296383e+00 0 1 1
2052 1 9.1509807111138013e+00 8.5230878971681836e+00 4.1705783943510806e+00 0 1 1
3744 1 9.4525174939311540e+00 7.3618115579334811e+00 6.8335533785974771e+00 0 1 0
126 1 1.2663049380274442e+01 7.3368726384858816e+00 5.3303181523364982e+00 0 0 0
3463 1 1.1628701546587692e+01 9.5854367727565357e+00 3.7396879510598509e+00 1 0 0
72 1 1.5858950063134431e+01 7.6274843419249390e+00 4.6107029900384937e+00 0 0 0
1404 1 1.7649488620102943e+01 9.5620853012450624e+00 5.9651784175453386e+00 0 0 0
976 1 2.0067748710670891e+01 9.2567287029507188e+00 5.0779949790785679e+00 0 0 1
2530 1 2.2703016076090172e+01 6.7029169111572875e+00 3.9463986002203004e+00 0 0 0
2931 1 2.4325375449401115e+01 9.0046447382948624e+00 4.4653650272694865e+00 0 0 1
128 1 2.3607872209292324e+01 9.3482771409323622e+00 6.9781060286903287e+00 0 0 0
2201 1 1.4884027870206482e+00 1.1489154196937694e+01 5.5871904581156686e+00 1 0 0
3437 1 7.5304199847721156e+00 1.0714177374757888e+01 4.0848827103749050e+00 1 0 1
336 1 7.6379344243541896e+00 1.1729705555415851e+01 6.5959878442732451e+00 0 0 0
1970 1 1.1465393962419652e+01 1.1682006909482880e+01 5.5198820711491328e+00 0 1 1
500 1 1.5438318062346687e+01 1.0838742815275236e+01 4.2467391617374384e+00 0 0 0
3226 1 1.3879677834210186e+01 1.1156345336694345e+01 6.5112451256226880e+00 0 0 0
416 1 2.1382437650673204e+01 1.0637134059311345e+01 6.9812005655305907e+00 0 0 0
2438 1 2.4308821725060874e+01 1.2812532067309316e+01 4.1299340812703758e+00 0 0 0
1810 1 9.3571193327274003e+00 1.5623508979765115e+01 5.6853617249891917e+00 1 0 1
1942 1 6.8252085320571663e+00 1.4078509283349524e+01 6.0525930229678746e+00 0 0 1
4014 1 1.0776612866231206e+01 1.3963346265124859e+01 4.0003252077406479e+00 1 0 1
3563 1 1.4633685244642081e+01 1.5469798078425193e+01 5.3214560184996795e+00 1 0 0
98 1 1.8552527064068812e+01 1.4829935997719874e+01 6.9362843561666399e+00 0 0 0
2391 1 1.7516149271530459e+01 1.5299571527246918e+01 4.0137358281232576e+00 1 0 0
2105 1 2.0460690313170375e+01 1.3949835451364018e+01 4.4121470339579467e+00 0 0 1
3981 1 2.2671080315671968e+01 1.3078984077069213e+01 6.4269360819746373e+00 0 0 1
2074 1 4.2687063821251527e+00 1.6268772098157491e+01 4.6440771860345329e+00 0 1 1
2973 1 6.2929227772922953e+00 1.7935537064743112e+01 4.0116868212694428e+00 1 0 1
3982 1 8.3334210439463323e+00 1.8061965106208014e+01 5.8153048174691238e+00 1 0 1
300 1 1.2583408703230019e+01 1.9339751862277218e+01 4.6955723628712764e+00 0 0 0
345 1 1.4014321580476603e+01 1.7586756863441991e+01 6.4974858711494061e+00 0 0 0
3254 1 1.9149133412611580e+01 1.8576518670683118e+01 5.2043857037160617e+00 0 0 0
1889 1 2.1612764574861973e+01 1.7616951344354312e+01 5.3536892794148052e+00 0 0 1
3778 1 2.3900468581534497e+01 1.9178457377288975e+01 4.4281543948876347e+00 0 0 1
2331 1 2.5668885945475566e+01 1.8906234095526603e+01 6.6304483204257831e+00 0 0 0
2873 1 1.9957609392176527e+00 2.2459810327169304e+01 6.4307930547127068e+00 1 0 1
2180 1 4.9842986598428807e+00 2.0260431099150733e+01 3.9844517367430563e+00 1 0 0
894 1 4.2328696295176407e+00 2.0766910384518976e+01 6.3140442137471338e+00 0 0 0
289 1 6.3806051242689712e+00 2.2490303069019269e+01 6.9102414209188172e+00 0 0 0
2911 1 8.6186547733785162e+00 2.2233482247219840e+01 5.2027576511852800e+00 1 0 1
197 1 1.0408411962608811e+01 1.9922482452825868e+01 5.8979513293379835e+00 0 0 0
1425 1 1.3917104383529953e+01 2.1713766650116913e+01 5.4078870417963136e+00 0 0 0
2015 1 1.8742893249470974e+01 2.1152952563919960e+01 4.4009396685501168e+00 0 0 1
2362 1 2.3593313676424440e+01 2.2055668312828018e+01 5.1549233728107877e+00 0 0 0
3121 1 4.6795018907950903e+00 2.4629267376588309e+01 6.7766389689671342e+00 0 0 0
405 1 9.7365143190042645e+00 2.4843750001377561e+01 4.4874701319934553e+00 0 0 1
3957 1 1.1843125697684300e+01 2.3725144932564749e+01 5.8746042508380238e+00 1 0 1
2431 1 1.6886267665553721e+01 2.5186394576978991e+01 3.7675065003265660e+00 1 0 0
2771 1 1.6694827960415253e+01 2.2539575172760312e+01 4.8405024753336949e+00 0 0 1
202 1 2.0886101491438861e+01 2.2588416982886372e+01 5.5662688185300624e+00 0 0 0
3036 1 3.1053229031796374e+00 2.9661262235468486e+00 7.5715174475803790e+00 1 0 1
2340 1 1.6734794416627752e+00 2.9806830160877178e+00 1.0141704011356484e+01 1 0 0
3456 1 7.2173229050315753e+00 2.8861770733494629e+00 9.7950356632596876e+00 1 1 0
124 1 1.1271731932375507e+01 1.8279445569686819e+00 1.0149772372269924e+01 0 0 0
2625 1 1.3423878210210507e+01 3.2381967151738076e+00 1.0310210349121231e+01 1 0 1
776 1 1.7056977815885432e+01 1.5826286146662005e+00 7.4658473480429688e+00 0 0 1
1253 1 2.3213115833371344e+01 4.0134585397188416e-01 1.0302943800905688e+01 0 1 0
2186 1 2.3725073210075855e+01 3.0801477650800275e+00 8.3316366565934725e+00 0 0 0
1950 1 4.1393349847844202e-01 6.3639270584239780e+00 7.2840035564189547e+00 0 0 0
3255 1 1.3349765124716604e+00 5.5110940416793177e+00 9.7543477042539344e+00 1 0 0
1418 1 4.8947649445916070e+00 4.2135409365287941e+00 9.3952446342699432e+00 0 0 0
2272 1 9.8250319948011917e+00 3.9533308546167998e+00 8.8970950714088488e+00 1 0 0
1384 1 1.4985710481312502e+01 3.6590511756504385e+00 7.7223263374547084e+00 0 1 0
936 1 1.6617938661622535e+01 5.1845153287255394e+00 9.9230326668253568e+00 0 0 1
3723 1 2.0575394531346259e+01 3.9001819960619981e+00 8.7894515522658878e+00 0 1 0
1009 1 2.5159327148642625e+01 6.4696376497444126e+00 9.7074987540382018e+00 0 0 1
2398 1 2.9159954108975450e+00 9.3509810718095370e+00 8.4541008510739495e+00 1 0 0
2456 1 3.6557930305888600e+00 6.7207790082576793e+00 9.9640254139785025e+00 1 0 0
2109 1 7.2152881355114378e+00 7.6081874538133736e+00 8.3792602024653533e+00 0 0 0
2141 1 1.1023340481360167e+01 8.4260303040436817e+00 9.1802173762935748e+00 1 0 0
2122 1 1.3390548763749569e+01 8.6890825043787281e+00 8.0287699825248762e+00 1 0 0
919 1 1.5420603692871538e+01 7.6317189737131548e+00 9.9381389036078289e+00 0 0 1
1239 1 1.8565140337879726e+01 6.6448367467762175e+00 8.5934564609510886e+00 0 1 0
2724 1 1.7505093258461383e+01 9.2504792475744786e+00 8.4046158411673080e+00 1 0 0
332 1 2.2995620545423733e+01 7.2852133866551840e+00 8.5887172549143429e+00 0 0 0
1895 1 1.7971293976239517e+00 1.2232035875840902e+01 8.2643437136500246e+00 0 0 1
1452 1 2.9909806225023872e-01 1.0416164294801302e+01 9.7382576223165920e+00 0 1 0
811 1 5.7863970014488730e+00 1.0117676517313962e+01 8.0166835286122016e+00 1 0 1
757 1 9.8916664507417327e+00 1.1906029058904126e+01 7.8058908574958563e+00 0 0 0
901 1 1.3716834562843797e+01 1.1518726597883649e+01 9.7939581466325603e+00 0 0 1
3272 1 1.6950386046663674e+01 1.1249456834986981e+01 1.0248922791962071e+01 0 0 0
9 1 2.0410097851088921e+01 1.0014263491728107e+01 9.3363583527920575e+00 0 0 0
1844 1 2.5512753280587543e+01 1.0421082265749506e+01 8.5807283270216832e+00 0 1 1
1236 1 6.1983523752345038e-01 1.4826373721033537e+01 9.5920725056313376e+00 0 1 0
390 1 3.8511574817856178e+00 1.3251974019855675e+01 9.8582522499905334e+00 0 0 0
1177 1 5.5280019615451153e+00 1.4767881692461685e+01 8.1509210288511262e+00 0 1 0
1671 1 7.9343344933633215e+00 1.3346541341669163e+01 1.0118828864463355e+01 0 0 0
3016 1 1.0404532977401136e+01 1.4619369168900260e+01 8.0973474043699873e+00 0 0 1
2184 1 1.2962661390907646e+01 1.5440109560070995e+01 8.8712280911114050e+00 1 0 0
2178 1 1.4488520119975801e+01 1.3540380756172418e+01 7.6750136029414397e+00 0 0 0
71 1 1.6786682857040137e+01 1.4012826678908988e+01 9.0189474345344660e+00 0 0 0
388 1 2.1114185432087236e+01 1.4404976061856088e+01 8.2553944810532922e+00 0 0 0
3883 1 2.4655381081400108e+01 1.3163287049515281e+01 8.1322655752705444e+00 0 0 1
3332 1 1.3733847903463532e+00 1.6514368113008462e+01 7.5977532166347297e+00 1 0 0
1293 1 7.1450438169068042e-01 1.8860859919969165e+01 8.7950722490901079e+00 0 0 0
271 1 4.0907664874838225e+00 1.6767261541822666e+01 7.4058466315487577e+00 0 0 0
2139 1 4.9165876231876382e+00 1.8949482183151474e+01 8.0236609342126926e+00 1 0 0
115 1 7.4474679334943374e+00 1.6459050101788105e+01 9.6168508877194494e+00 0 0 0
3090 1 7.5405841581445161e+00 1.8849441981470154e+01 8.2314132496915384e+00 1 0 1
3603 1 1.1145287127519854e+01 1.8586108880121376e+01 1.0438811357649287e+01 1 0 1
2154 1 1.3585965620103069e+01 1.8679682946369706e+01 9.2878641359045755e+00 0 0 0
3084 1 1.7626487352191734e+01 1.7809543976981793e+01 7.0741465973207598e+00 0 0 1
2221 1 1.9121279312499933e+01 1.8583205414865940e+01 9.0509483812004348e+00 1 0 0
2950 1 2.1719973965386121e+01 1.6824145392955057e+01 7.8790130996263592e+00 0 0 1
3123 1 2.4505455985149645e+01 1.6788783486145725e+01 7.9206365837250834e+00 0 0 0
374 1 2.3515103337414722e+01 1.8933134787550507e+01 1.0265800925541773e+01 0 0 0
279 1 3.0944163840059002e+00 1.9420117739303631e+01 1.0106406515653306e+01 0 0 1
1125 1 9.0552839928778699e+00 2.0510847398952649e+01 9.8804280562911373e+00 0 0 0
346 1 1.0790202502952253e+01 2.2070391732212340e+01 7.9543623688345182e+00 0 0 0
891 1 1.5740540683977853e+01 2.0345830686526263e+01 7.4092040790430422e+00 0 0 1
368 1 1.3203238714897505e+01 2.1774804943138992e+01 9.2040161864511685e+00 0 0 0
3259 1 1.6289208110201905e+01 2.2042862431982318e+01 1.0022079380603339e+01 0 0 0
1426 1 2.1322936580007923e+01 2.0534601831467352e+01 9.6294678669586471e+00 0 0 0
2832 1 2.5582774765626748e+01 2.0326383687350113e+01 8.7015828551980992e+00 0 0 1
3420 1 2.4817507946900413e+01 2.2431115223124237e+01 7.6471893911173403e+00 0 0 0
1597 1 2.5897052239886902e+00 2.4643114930625277e+01 8.9097541024923750e+00 0 0 0
392 1 7.2207025319569986e+00 2.2642153764357928e+01 9.4920136149032093e+00 0 0 0
860 1 9.5904903774560566e+00 2.4202861117690908e+01 9.6567945046747887e+00 0 0 1
2301 1 1.4587218668756206e+01 2.4576993151445095e+01 8.6578277969460249e+00 1 0 0
912 1 1.7315488273526746e+01 2.3633021282023506e+01 7.3081333749558208e+00 0 0 1
3025 1 1.9034879695584326e+01 2.3568928196334106e+01 1.0217430066381159e+01 0 0 1
1149 1 2.0835546020671458e+01 2.3770632683254718e+01 8.0104291418537592e+00 0 0 0
149 1 2.2876904785176428e+01 2.2726384867654943e+01 9.1747262674129360e+00 0 0 0
1184 1 2.3422488116656918e+01 2.5693089089761010e+01 9.7086123618578952e+00 0 1 0
4065 1 2.6193120562312489e+00 2.7070181449000894e+00 1.2704391900771434e+01 1 1 1
3741 1 9.7561618406216795e+00 1.2921901387644557e+00 1.2337500307888615e+01 1 1 0
527 1 7.5228376159084576e+00 2.9289139029378504e+00 1.2630032942628855e+01 0 0 0
1383 1 1.5429425270824959e+01 1.8130242073395659e+00 1.1723281503372290e+01 0 1 0
2259 1 1.7759885232890191e+01 3.0099900032470290e+00 1.2391067973317108e+01 0 0 0
3540 1 1.9897012274229589e+01 1.9663747809950911e+00 1.0832671730839566e+01 0 1 0
427 1 2.2590300078038464e+01 2.7093322475054720e+00 1.1691107083532495e+01 0 1 0
1176 1 6.3268386808911181e-01 6.5454973008269235e+00 1.2394951321549390e+01 1 1 0
3041 1 4.9905213815268157e+00 4.3472225482532947e+00 1.2496379128152387e+01 1 0 1
163 1 8.9355819665189156e+00 5.3887040729718372e+00 1.2500926247501072e+01 0 0 0
987 1 1.1068384564892167e+01 6.0295931241936911e+00 1.0681291826858150e+01 0 0 1
2672 1 1.3665786961442578e+01 5.7634014132509916e+00 1.1534090548827070e+01 0 0 1
3435 1 1.8224699465277588e+01 5.9644471079881942e+00 1.2961886858402247e+01 0 1 0
1296 1 2.0268752989869547e+01 5.4108728962609964e+00 1.1212143652456248e+01 0 1 0
320 1 2.5116023518052128e+01 4.2071601063930775e+00 1.0936029141449648e+01 1 0 0
3002 1 2.5665394240350579e+01 5.2314351972289526e+00 1.3385020522972809e+01 0 0 1
464 1 3.5350809395241316e+00 7.9765848139302920e+00 1.2475085727730974e+01 0 0 0
1302 1 6.9229621549081406e+00 6.6612259839386674e+00 1.1064155134800927e+01 0 0 0
1943 1 7.2573451057103995e+00 9.2501366737369626e+00 1.2189212380810018e+01 0 0 1
2586 1 1.5434970549202083e+01 9.2718343303008393e+00 1.1964915825895863e+01 0 0 0
2001 1 1.7956078426295139e+01 9.1215880062843766e+00 1.3252397150390911e+01 0 1 1
342 1 2.1310835796392812e+01 7.6331147861744482e+00 1.0488870972879621e+01 0 0 0
1475 1 2.2200406381407049e+01 7.6968652258553609e+00 1.3442182438286357e+01 0 1 0
2419 1 2.4499870350714954e+01 7.8854034283918777e+00 1.2071729427527707e+01 0 0 0
3100 1 3.0313285870388157e-01 1.2413758079109908e+01 1.3060560637983482e+01 1 0 1
1734 1 1.1548984816747789e+00 9.8261760771046571e+00 1.2370760377217570e+01 0 1 0
1308 1 5.8490053770414514e+00 1.1437612863660998e+01 1.0441474337118143e+01 0 1 0
290 1 4.2171184436681184e+00 1.0760109637525716e+01 1.2595043063217085e+01 0 0 0
370 1 9.6193171924002900e+00 1.0613472105600456e+01 1.2606437495734101e+01 0 0 0
148 1 1.0865997919617831e+01 1.1079015169523734e+01 1.0476084558115673e+01 0 1 0
1702 1 1.3611537879333909e+01 1.2496855910951473e+01 1.2473260754794264e+01 0 0 0
2725 1 1.9490258221275063e+01 1.1103165339525084e+01 1.1897198880142325e+01 1 0 0
2101 1 2.5519153532213696e+01 1.0463368118002933e+01 1.1105896998573483e+01 0 0 0
852 1 1.1496674036201613e+00 1.5211845072752510e+01 1.2597093280946298e+01 0 -1 1
1355 1 3.9192786919998848e+00 1.4397102295896682e+01 1.2341852083276313e+01 0 0 0
2480 1 8.8011960884987559e+00 1.3384833999439163e+01 1.2643930318633078e+01 1 0 0
924 1 1.1100423811693862e+01 1.4521049416262393e+01 1.3003810467502227e+01 0 0 1
2917 1 1.3408206326833881e+01 1.5086800196988841e+01 1.1852883025147086e+01 0 0 1
454 1 1.7750104234505173e+01 1.5147788547114217e+01 1.1268191748572931e+01 0 0 0
4 1 1.6279145270233563e+01 1.3232204337946344e+01 1.2798074977509224e+01 0 0 0
789 1 2.1144938359328439e+01 1.3216713553911124e+01 1.3627930890333424e+01 0 0 0
2338 1 2.1607813818023196e+01 1.4409127646653547e+01 1.1095161540299479e+01 0 0 0
3840 1 2.5622740647512355e+01 1.4288972000952928e+01 1.0663895653332709e+01 0 1 0
231 1 2.3964143496414284e+01 1.5296453965828789e+01 1.2378272023029488e+01 0 0 0
829 1 2.6292449836604730e+00 1.7685144588009990e+01 1.3540892108980772e+01 0 0 0
80 1 5.9372282015710818e+00 1.6330074924709834e+01 1.1907569564193373e+01 0 0 0
467 1 4.6211750157435860e+00 1.8815042302656718e+01 1.1979914899058267e+01 0 0 0
1343 1 1.0154645531005698e+01 1.6219597088073400e+01 1.0702271665977522e+01 0 0 0
334 1 1.1824988187901898e+01 1.9250453844577571e+01 1.3290117611735715e+01 0 0 0
2656 1 1.5315470462233847e+01 1.7377870339281184e+01 1.1093635834338089e+01 1 0 0
377 1 1.7034524400753643e+01 1.9335730164513393e+01 1.0803517860907341e+01 0 0 0
2287 1 2.0005499918533662e+01 1.6706655101201218e+01 1.1131215751697761e+01 1 0 0
225 1 2.0341765875082075e+01 1.7654085269491922e+01 1.3631322261883591e+01 0 0 0
3107 1 2.4601317118775754e+01 1.8087826866182262e+01 1.2530973461466857e+01 1 0 1
918 1 1.2052525544281520e+00 2.2261746449473232e+01 1.2272647932057030e+01 0 0 1
611 1 3.0414108491849241e+00 2.2084530065773855e+01 1.0540640498664075e+01 0 0 0
167 1 7.8896451190833683e-01 1.9803464357677932e+01 1.3592556281906790e+01 0 0 0
1670 1 5.8144339870629516e+00 2.1429038072422845e+01 1.3038456812597655e+01 0 0 0
2188 1 8.4165008384529241e+00 2.0232262792548081e+01 1.2958916147185404e+01 1 0 0
1291 1 1.2538400137604473e+01 2.1768076157314084e+01 1.1956218164370620e+01 0 0 0
1012 1 1.4529873234749722e+01 2.1772142433126493e+01 1.3701504535374607e+01 0 0 1
1276 1 1.8455585526101689e+01 1.9583940268068183e+01 1.3125837216532714e+01 0 0 0
1749 1 2.0083277469358062e+01 2.1318182735656624e+01 1.1950099547181807e+01 0 1 0
3246 1 2.4434323660478640e+01 2.1391742041021931e+01 1.1863142385004542e+01 0 1 0
219 1 5.3078308787920454e+00 2.3034857784075086e+01 1.1236516379019404e+01 0 0 0
563 1 5.4642776009653566e+00 2.5263333171607503e+01 1.2963022873896829e+01 0 0 0
2579 1 1.0758204570735755e+01 2.3706958431733483e+01 1.1990595113377639e+01 1 0 0
837 1 1.6135007735319455e+01 2.3729822274625068e+01 1.2505476752606359e+01 0 0 1
2263 1 2.1825132212013717e+01 2.5421635969664941e+01 1.2099578094279215e+01 1 0 0
3657 1 2.2167906255090465e+01 2.2619324093260701e+01 1.3075766129941657e+01 0 0 0
3637 1 9.8815648318565419e-01 1.9763811634379165e+00 1.6729779513850360e+01 1 1 0
1570 1 4.4957851895723708e+00 1.9672453146899791e+00 1.5186173362838185e+01 0 1 0
3361 1 7.3092732632423942e+00 2.4476081936343719e+00 1.5392525278287673e+01 1 1 0
1262 1 1.0288518085825359e+01 1.5860710444115709e+00 1.6286567808673638e+01 0 1 0
966 1 1.1327151516587399e+01 2.6739254391177449e+00 1.3950259897660549e+01 0 0 1
2642 1 1.5084800652812094e+01 3.0275907129291340e+00 1.5803342564703234e+01 1 0 0
230 1 1.3779972230781432e+01 1.3890661711629755e+00 1.4126477970420177e+01 0 0 0
361 1 1.7447750506246972e+01 1.5429003212432069e+00 1.6991116523461717e+01 0 0 0
2686 1 1.8991334412836352e+01 1.2987818454073536e+00 1.4405979349603964e+01 0 0 0
2077 1 2.1922587807801879e+01 2.4306675607339261e+00 1.4170951029687782e+01 0 1 0
720 1 2.4313852804847876e+01 2.9412705800819419e+00 1.5846278245713348e+01 0 0 1
2504 1 8.6162872973675642e-01 3.4762094799571930e+00 1.4485094876403259e+01 1 0 0
475 1 2.0636538640600897e+00 5.6281149746205834e+00 1.5603997936684875e+01 1 0 0
212 1 3.4275996438924725e+00 3.6020692820504370e+00 1.7224309381208997e+01 0 0 0
35 1 4.5887915101334720e+00 6.2916710445648318e+00 1.4580660721092897e+01 0 0 0
2476 1 8.8227093086162860e+00 6.4764117036509896e+00 1.5169977028967430e+01 1 0 0
3406 1 7.0090034069690157e+00 4.6919173602130293e+00 1.6536104836106908e+01 1 1 0
841 1 1.1374430467396181e+01 5.2011147744431172e+00 1.4867366978442965e+01 0 0 1
2113 1 1.5710005785215721e+01 5.6707306365006245e+00 1.5409442134921864e+01 1 0 0
309 1 1.8624273777473849e+01 5.5418885726487028e+00 1.6174123804502788e+01 0 0 0
678 1 2.0907119931088548e+01 5.2418004431235357e+00 1.4326899035157222e+01 0 0 0
1983 1 2.2325059657276846e+01 6.5594564703379330e+00 1.6591134834122627e+01 0 1 1
134 1 2.4603097496087930e+01 5.3543658989294567e+00 1.5984419504062435e+01 0 0 0
1058 1 6.5385166080221406e+00 8.2531765798724237e+00 1.4797340419963195e+01 0 0 0
486 1 1.2938064474689970e+01 9.5585381726331651e+00 1.3989145083261398e+01 0 0 0
1433 1 1.0245042427150016e+01 8.3879776954054659e+00 1.6837231608283115e+01 0 1 0
3486 1 1.3622726120112226e+01 6.7969002891582120e+00 1.4081817409662786e+01 1 1 0
760 1 2.2862760616857379e+01 8.9967863713007148e+00 1.6958109013186835e+01 0 0 0
3438 1 1.3909417557015429e+00 1.2021649279388956e+01 1.6036972988804848e+01 1 1 0
522 1 3.5531088766927801e+00 1.0783200915335977e+01 1.5238302530401585e+01 0 0 1
2329 1 7.2473140257369213e+00 1.0452378100498557e+01 1.6139964950607336e+01 1 0 0
488 1 9.9479944114152516e+00 1.0933693177106337e+01 1.5624776392210991e+01 0 0 0
889 1 1.2370722650281831e+01 1.2672910707200760e+01 1.5384597090426764e+01 0 0 1
1334 1 1.4446398885039766e+01 1.0434866492237425e+01 1.6261464233789425e+01 0 1 0
257 1 1.8694040447867589e+01 1.2888005743361434e+01 1.4775611111882396e+01 0 0 0
2441 1 1.7296927721652871e+01 1.0125516760912705e+01 1.5539340610141927e+01 0 0 0
3341 1 2.1186127108566168e+01 9.9448961559733906e+00 1.3949359475574861e+01 0 0 0
2225 1 2.0157623167182180e+01 9.9381307618291572e+00 1.6647043210019081e+01 0 0 0
2889 1 2.3732918221810586e+01 1.1496568919423703e+01 1.3838625906962450e+01 0 0 1
2412 1 2.5094996895312089e+01 1.0285295229047680e+01 1.5674897554928606e+01 1 0 0
3610 1 3.8642520273589720e+00 1.4561471603100058e+01 1.6677255797164936e+01 1 0 0
2509 1 4.9403842065046417e+00 1.3260274213534588e+01 1.4794862274436921e+01 1 0 0
2172 1 7.8274670945491707e+00 1.3253112026598059e+01 1.5100146673749574e+01 1 0 0
1985 1 1.6131910917822573e+01 1.5351738251812192e+01 1.4562071997090364e+01 0 1 1
1564 1 1.4040181226673957e+01 1.4412214143038835e+01 1.6563333414887616e+01 0 1 0
2407 1 2.2340713012213982e+01 1.5197818143659520e+01 1.5534350898381009e+01 0 0 0
2452 1 2.5367349148081381e+01 1.3859129505484225e+01 1.4514682365671609e+01 0 0 0
131 1 2.5322743176625289e+00 1.6711128817144207e+01 1.6206665856783268e+01 0 0 0
3009 1 6.4164788770973038e+00 1.8572898016721510e+01 1.6620404144049193e+01 1 0 1
2356 1 3.7207207360597780e+00 1.9330879422468048e+01 1.6824379067279864e+01 1 0 0
3023 1 7.3115925403230619e+00 1.7906530090862212e+01 1.4018190291589313e+01 1 0 0
1339 1 1.0425852719817248e+01 1.7136447040448616e+01 1.6766850632375764e+01 0 0 0
340 1 9.8105439222619584e+00 1.7119448854744196e+01 1.4106262603041051e+01 0 0 0
2802 1 1.3248169666346136e+01 1.7151176091294399e+01 1.6265458404882221e+01 0 0 1
2349 1 1.4191407599797540e+01 1.7795375288554748e+01 1.3923091547320452e+01 0 0 0
399 1 1.8630405549406653e+01 1.6170672445618408e+01 1.5593732171878363e+01 0 0 0
91 1 1.7049879399803174e+01 1.8701392842807056e+01 1.6915874003234965e+01 0 0 0
2145 1 2.2991013865018893e+01 1.7871300166755454e+01 1.4839855814363782e+01 0 0 0
347 1 3.3566736567138498e+00 2.1008641320965555e+01 1.4870463279982259e+01 1 0 0
3284 1 7.0265585353704205e+00 2.2427946180080941e+01 1.5237056713504225e+01 1 0 0
1065 1 1.0510566961327447e+01 2.0582676614684381e+01 1.5159226675777024e+01 0 0 0
3954 1 1.6150321736583436e+01 1.9554474332062469e+01 1.4626784510210769e+01 0 0 1
727 1 9.9385439127196284e-01 2.4229487582816354e+01 1.4504136283593432e+01 0 0 0
1354 1 2.8889485670514148e+00 2.3505045917931238e+01 1.6124812754631847e+01 0 0 0
2825 1 5.5284874138117894e+00 2.4808022532660711e+01 1.5781729950997963e+01 1 0 0
479 1 9.5838961363110275e+00 2.3340816439016489e+01 1.4794307838203157e+01 0 -1 0
2164 1 1.2779616560052400e+01 2.2834325237799867e+01 1.5657381562322440e+01 0 0 0
444 1 1.4021902639539038e+01 2.5623306534350871e+01 1.6010037231128997e+01 0 -1 0
2592 1 1.6772049268524537e+01 2.4629546532805030e+01 1.4887679864473062e+01 0 1 0
1584 1 3.9303892300733074e+00 1.8132466045692395e+00 1.9399926778070718e+01 0 1 0
2373 1 6.6090909760864776e+00 1.6088622501332719e+00 2.0338805083209092e+01 0 0 0
2905 1 8.9930988248633295e+00 2.3154182660279261e+00 1.9593858494688273e+01 0 0 1
1464 1 1.1612488669849389e+01 1.0888845189697007e+00 1.9455881852068092e+01 0 1 0
1599 1 1.2679117291468224e+01 3.1213315906483512e+00 1.7686276044564817e+01 0 1 0
3502 1 2.0915268332542205e+01 2.7981597801670257e+00 1.9096990177450220e+01 0 1 0
4056 1 2.4114294974825533e+01 2.7895753889227559e+00 1.8516333845764432e+01 0 1 1
2679 1 5.1326602458568997e+00 5.6637579349745311e+00 1.8454560026511611e+01 1 1 0
3667 1 9.0023070514025854e+00 4.9691655906960239e+00 1.8585356105693386e+01 1 1 0