
# Create simulation box and atoms
lattice		    sc 1
Lattice spacing in x,y,z = 1 1 1
region 		    all block 0 51.42 0 51.42 0 51.42 units box
create_box 	    1 all
Created orthogonal box = (0 0 0) to (51.42 51.42 51.42)
  2 by 2 by 3 MPI processor grid

create_atoms	1 random 4457 ${SEED} all
create_atoms	1 random 4457 20833 all
Created 4457 atoms
  create_atoms CPU = 0.000684261 secs

mass		    1 18.15

# Define potential

pair_style 	    sw
pair_coeff	    * * mW_real.sw mW
Reading potential file mW_real.sw with DATE: 2019-02-27

# Run minimization

minimize 	    1.0e-8 1.0e-8 10000 1000
WARNING: Using 'neigh_modify every 1 delay 0 check yes' setting during minimization (../min.cpp:168)
Neighbor list info ...
  update every 1 steps, delay 0 steps, check yes
  max neighbors/atom: 2000, page size: 100000
  master list distance cutoff = 6.3065
  ghost atom cutoff = 6.3065
  binsize = 3.15325, bins = 17 17 17
  1 neighbor lists, perpetual/occasional/extra = 1 0 0
  (1) pair sw, perpetual
      attributes: full, newton on
      pair build: full/bin/atomonly
      stencil: full/bin/3d
      bin: standard
Per MPI rank memory allocation (min/avg/max) = 4.225 | 4.227 | 4.229 Mbytes
Step Temp E_pair E_mol TotEng Press 
       0            0     21211544            0     21211544     14426488 
     715            0   -50141.117            0   -50141.117   -1376.5343 
Loop time of 1.96068 on 12 procs for 715 steps with 4457 atoms

99.6% CPU use with 12 MPI tasks x no OpenMP threads

Minimization stats:
  Stopping criterion = max force evaluations
  Energy initial, next-to-last, final = 
         21211544.1255     -50140.5555475        -50141.1175
  Force two-norm initial, final = 1.38251e+09 5.29
  Force max component initial, final = 7.42018e+08 0.861321
  Final line search alpha, max atom move = 0.0440507 0.0379418
  Iterations, force evaluations = 715 1000

MPI task timing breakdown:
Section |  min time  |  avg time  |  max time  |%varavg| %total
---------------------------------------------------------------
Pair    | 1.3487     | 1.6442     | 1.8517     |  11.6 | 83.86
Neigh   | 0.023566   | 0.025897   | 0.027328   |   0.8 |  1.32
Comm    | 0.057296   | 0.26565    | 0.56346    |  29.1 | 13.55
Output  | 0          | 0          | 0          |   0.0 |  0.00
Modify  | 0          | 0          | 0          |   0.0 |  0.00
Other   |            | 0.02495    |            |       |  1.27

Nlocal:    371.417 ave 391 max 348 min
Histogram: 1 0 0 4 1 0 3 1 0 2
Nghost:    1065.42 ave 1090 max 1030 min
Histogram: 1 0 0 0 2 2 3 2 1 1
Neighs:    0 ave 0 max 0 min
Histogram: 12 0 0 0 0 0 0 0 0 0
FullNghs:  12009.8 ave 13042 max 10923 min
Histogram: 1 0 2 2 1 0 3 1 1 1

Total # of neighbors = 144118
Ave neighs/atom = 32.3352
Neighbor list builds = 39
Dangerous builds = 0

# Create Cavity with Hard sphere "indent" potential

region		    cavity sphere 25.71 25.71 25.71 13.8 side in
delete_atoms	    region cavity
Deleted 374 atoms, new total = 4083
fix 		    5 all indent 10.0 sphere 25.71 25.71 25.71 13.8

# Equilibration of molecular water

# Add velocity/set timestep

velocity	    all create ${TEMP} ${SEED} rot yes dist gaussian
velocity	    all create 215 ${SEED} rot yes dist gaussian
velocity	    all create 215 20833 rot yes dist gaussian
timestep	    5.0

# Define output

compute			1 all msd
thermo	    	50
thermo_style	custom step temp press vol etotal ke pe c_1[4]

# Neighbor lists

neigh_modify    delay 0 every 1 check yes

# Set fixes

fix             1 all momentum 10 linear 1 1 1 rescale
fix             2 all nve
fix             3 all temp/csvr ${TEMP} ${TEMP} 500.0 ${SEED}
fix             3 all temp/csvr 215 ${TEMP} 500.0 ${SEED}
fix             3 all temp/csvr 215 215 500.0 ${SEED}
fix             3 all temp/csvr 215 215 500.0 20833
fix             4 all press/berendsen iso ${PRES} ${PRES} 1000.0 modulus 20000
fix             4 all press/berendsen iso 1.0 ${PRES} 1000.0 modulus 20000
fix             4 all press/berendsen iso 1.0 1.0 1000.0 modulus 20000

# Run 1 ns equilibration

dump		    1 all atom 2000 ${DIR}/eq.${NAME}-${TEMP}.dump
dump		    1 all atom 2000 run_8/eq.${NAME}-${TEMP}.dump
dump		    1 all atom 2000 run_8/eq.hardcavity_freeze_8-${TEMP}.dump
dump		    1 all atom 2000 run_8/eq.hardcavity_freeze_8-215.dump

reset_timestep  0

run	            200000
Per MPI rank memory allocation (min/avg/max) = 4.489 | 4.492 | 4.494 Mbytes
Step Temp Press Volume TotEng KinEng PotEng c_1[4] 
       0          215   -631.48226    135955.32   -42727.651    2616.0483   -45343.699 1.3313115e-33 
      50    138.83119   -203.47717    135819.67   -42142.689    1689.2516   -43831.941   0.21975643 
     100    155.46647   -121.78283    135685.06   -41686.063    1891.6642   -43577.727   0.41029579 
     150    169.89595   -212.34153     135469.4   -41379.471    2067.2373   -43446.708   0.61982047 
     200    179.45677   -66.905492    135126.52   -41148.235    2183.5701   -43331.805   0.83617153 
     250    184.30932   -85.743837    134843.21     -40972.4    2242.6144   -43215.015    1.0315455 
     300    191.70468   -104.26075    134645.64   -40891.161    2332.5986    -43223.76    1.1713352 
     350    195.71256   -136.36391    134507.32   -40798.191    2381.3651   -43179.556    1.3418489 
     400    199.04715   -23.914745    134386.78   -40713.703    2421.9394   -43135.643    1.5078352 
     450    206.01821   -233.44759    134304.89   -40603.372     2506.761   -43110.133    1.6594751 
     500    205.69799   -286.60947    133948.31   -40537.836    2502.8645     -43040.7    1.8801864 
     550    207.82796     -173.223    133752.92   -40492.472    2528.7813   -43021.253    2.1280237 
     600    210.02684   -139.84245    133571.53   -40476.828    2555.5366   -43032.365    2.3133124 
     650    209.89151   -157.15732    133269.13   -40451.102    2553.8899   -43004.992    2.4919395 
     700    210.39886    5.5298769    133062.26   -40430.148    2560.0631   -42990.211    2.6500284 
     750    210.93178     -46.5254    133077.52    -40378.57    2566.5475   -42945.118    2.8562858 
     800    210.89768   -170.31479    132885.11   -40398.023    2566.1327   -42964.156    3.0491257 
     850    211.24202    -10.23126    132746.49   -40384.113    2570.3224   -42954.435    3.2365104 
     900    215.01292   -76.802015    132448.55   -40415.129    2616.2056   -43031.335    3.5249687 
     950    212.31704   -157.26684     132356.9   -40441.729    2583.4029   -43025.132    3.7390814 
    1000    215.95553   -121.94781    132178.53   -40411.212    2627.6749   -43038.887    3.9055046 
    1050    213.66527   -70.735905    132057.11   -40410.196    2599.8078   -43010.004    4.1244708 
    1100    213.72354   -59.302396    132032.01   -40413.562    2600.5168   -43014.079    4.2225496 
    1150    210.98529   -40.934382    131969.47   -40474.608    2567.1986   -43041.807    4.3768759 
    1200    212.75045    66.577125    132038.92   -40510.337    2588.6765   -43099.014    4.5837878 
    1250    216.45157    128.79327    132119.68   -40482.639    2633.7106    -43116.35    4.7815888 
    1300    210.02789    60.651328    132308.72   -40508.591    2555.5493    -43064.14    4.9994158 
    1350    213.80682   -31.044716    132290.75   -40520.906    2601.5301   -43122.436    5.1525167 
    1400    212.75626   -35.141507    132326.38   -40512.972    2588.7473   -43101.719    5.3876624 
    1450    212.55327   -127.10135    132172.64   -40504.972    2586.2774   -43091.249    5.5261309 
    1500    213.48149    47.356431    132139.29   -40511.929    2597.5717     -43109.5     5.664068 
    1550    214.21203    86.117533    132378.95   -40525.131    2606.4606   -43131.591    5.8472428 
    1600    212.98123     59.72717    132347.04   -40450.685    2591.4846    -43042.17    5.9893044 
    1650    220.39103   -4.1000935    132319.73   -40422.186    2681.6446   -43103.831    6.1491478 
    1700    220.34446    80.218942     132336.3   -40410.131     2681.078   -43091.209    6.3444851 
    1750     213.6883    -50.87651    132449.14   -40442.604     2600.088   -43042.692    6.4442424 
    1800    215.29862    37.123055    132370.41    -40472.61    2619.6819   -43092.292    6.6185267 
    1850    214.32986   -46.263744    132202.61   -40483.365    2607.8942    -43091.26    6.8159852 
    1900    219.90213     40.31927    132187.29   -40467.468    2675.6958   -43143.163    7.0184493 
    1950    218.60998    75.149887    132179.39   -40484.639    2659.9734   -43144.613    7.2489178 
    2000     215.2161    57.111447    132227.45    -40484.29    2618.6778   -43102.968    7.4959447 
    2050    217.24557    53.158513    132238.62   -40470.373    2643.3717   -43113.744    7.6190662 
    2100    217.14358   -71.770637    132141.36   -40506.397    2642.1307   -43148.528    7.7290429 
    2150    217.97003   -247.72353     131919.4   -40517.915    2652.1867   -43170.102    7.9867244 
    2200    213.87406    19.856557    131863.42    -40459.57    2602.3483   -43061.918    8.1394903 
    2250     218.5489   -71.443676    131751.63   -40504.619    2659.2302   -43163.849    8.2882053 
    2300    217.56918    110.39479    131835.09   -40481.414    2647.3093   -43128.723    8.4340178 
    2350    218.14818    30.815985    131924.44    -40479.22    2654.3543   -43133.574    8.5128065 
    2400    218.43486   -154.25201     132101.3   -40497.474    2657.8425   -43155.316    8.6615762 
    2450    215.83022    99.390423    132082.41   -40487.012    2626.1502   -43113.162    8.9353583 
    2500    219.52721   -109.54029     132028.7   -40510.345    2671.1339   -43181.479     9.061714 
    2550    216.77826    55.721015     131954.6    -40559.76    2637.6856   -43197.445    9.1925579 
    2600    216.16938    95.289072    131953.46   -40581.278    2630.2769   -43211.555    9.4186731 
    2650    211.25113   -11.628495    131929.22   -40581.715    2570.4333   -43152.149    9.6039073 
    2700    215.43728   -1.7106258    131814.79   -40596.364    2621.3689   -43217.733     9.809636 
    2750    213.43462   -115.30616    131858.27   -40605.504    2597.0012   -43202.505    9.9892998 
    2800     218.7521    -104.3402     131840.8    -40574.48    2661.7026   -43236.182    10.089773 
    2850    214.43336    20.106781    131641.28   -40566.455    2609.1537   -43175.608    10.181699 
    2900    216.25541    50.220186    131702.48   -40584.034    2631.3237   -43215.357    10.260075 
    2950     218.2353   -154.16142    131655.16   -40609.216    2655.4143    -43264.63    10.388674 
    3000    216.17334   -12.432315       131758   -40594.095    2630.3252    -43224.42    10.457501 
    3050      216.341    80.648943    131795.24   -40573.315    2632.3652    -43205.68    10.514664 
    3100    218.63305    -195.5973    131730.95   -40522.657    2660.2541   -43182.911    10.643927 
    3150    215.29938   -158.37358    131595.33   -40586.904    2619.6911   -43206.595    10.858115 
    3200    216.22585    -51.90295    131476.11   -40603.329     2630.964   -43234.293    11.030968 
    3250    219.25247    31.193401    131371.69   -40577.967     2667.791   -43245.758    11.154816 
    3300     213.6414   -18.976574    131402.55   -40529.495    2599.5174   -43129.012     11.21542 
    3350    216.50407     88.22055    131515.02   -40555.619    2634.3493   -43189.968    11.320215 
    3400    217.48189    132.51774    131679.97   -40549.296    2646.2471   -43195.543    11.455013 
    3450    214.90363     146.0311    131660.62   -40587.733    2614.8757   -43202.609    11.701769 
    3500    216.27772   -144.26807    131729.77   -40615.941    2631.5953   -43247.536    11.925771 
    3550    213.62322    82.602202    131775.16   -40582.382    2599.2962   -43181.679    12.070152 
    3600    211.39292    65.817265    131832.77   -40629.051    2572.1586    -43201.21      12.2247 
    3650    216.59775    167.70135    131901.81   -40570.691    2635.4893    -43206.18     12.28691 
    3700    215.84384   -36.931557    131938.82   -40559.856    2626.3159   -43186.171    12.349841 
    3750    218.12689    267.91379    132030.41   -40540.042    2654.0952   -43194.137    12.524617 
    3800    216.01483    51.403153    132268.84   -40547.318    2628.3965   -43175.715    12.644015 
    3850    224.01175   -36.293691    132298.99    -40482.58    2725.7003    -43208.28    12.850204 
    3900    219.38402   -208.31477     132124.4   -40545.247    2669.3917   -43214.639    12.960002 
    3950    219.48375   -89.285254    131972.74   -40536.458     2670.605   -43207.063    13.082468 
    4000    215.18345   -73.252567     132063.6   -40552.922    2618.2805   -43171.203    13.227853 
    4050    215.70807    -42.41247     132036.1   -40619.138    2624.6639   -43243.802    13.268961 
    4100    212.80552   -17.473598    132021.05   -40613.195    2589.3466   -43202.542    13.405124 
    4150    215.01571   -68.240953    131985.63   -40607.312    2616.2395   -43223.552    13.549356 
    4200    213.35443   -243.62107    131813.39    -40654.91    2596.0256   -43250.936    13.842711 
    4250     213.4819   -138.98604    131624.43    -40705.76    2597.5765   -43303.336    14.026857 
    4300    213.87865    -114.8845    131565.66    -40722.33    2602.4041   -43324.734    14.168063 
    4350    210.21331   -20.077455    131506.92   -40706.902    2557.8054   -43264.707    14.132922 
    4400    213.06371    58.211931    131478.28    -40664.85    2592.4881   -43257.338    14.250809 
    4450    211.10194    68.876857    131526.42   -40660.715     2568.618   -43229.333    14.299496 
    4500    214.40482   -1.0268984    131545.22   -40661.104    2608.8064    -43269.91    14.436961 
    4550    216.34659    72.039607    131702.36   -40599.895    2632.4332   -43232.328    14.669777 
    4600    213.38972   -27.574995    131704.36   -40590.238     2596.455   -43186.693    14.830296 
    4650    211.64643     49.06186    131608.67   -40582.867    2575.2432    -43158.11    14.987459 
    4700    218.46526   -2.9879824    131615.19   -40587.541    2658.2125   -43245.753    15.084631 
    4750    216.24874    149.30028    131673.68   -40630.396    2631.2425   -43261.639    15.068834 
    4800    216.34985   -16.127417    131827.32   -40604.851    2632.4729   -43237.324    15.191966 
    4850    217.43259    12.261623    131826.87   -40535.826    2645.6473   -43181.473    15.372347 
    4900    215.72889   -7.6409562    131913.83   -40530.427    2624.9172   -43155.344    15.444476 
    4950    216.12022 -0.046888003    131907.04   -40518.288    2629.6788   -43147.967    15.529735 
    5000    216.33706     77.28942    131896.88   -40544.951    2632.3173   -43177.268    15.563502 
    5050    215.82203    87.125862    131857.49   -40571.178    2626.0505   -43197.228     15.63786 
    5100    211.56129   -91.562819    131687.68   -40623.516    2574.2072   -43197.723     15.84427 
    5150    215.79817   -55.507971    131559.57   -40586.252    2625.7602   -43212.012    15.988266 
    5200    215.00953    122.01969    131566.01   -40614.896    2616.1643    -43231.06    16.169552 
    5250    212.42204   -208.49256    131360.78   -40637.622    2584.6806   -43222.302    16.399408 
    5300     215.4662    106.64947    131395.55   -40608.493    2621.7209   -43230.214    16.513243 
    5350    217.38525   -67.444709    131317.75   -40607.557    2645.0713   -43252.628    16.648884 
    5400    211.87211   -99.306109    131330.36    -40582.75    2577.9891   -43160.739    16.840979 
    5450    215.21979    9.3080161    131300.43   -40574.718    2618.7226   -43193.441    16.920182 
    5500    217.11417   -73.174976    131319.52   -40538.197    2641.7728    -43179.97    17.009944 
    5550    215.70659    188.06752    131287.72   -40540.516    2624.6459   -43165.162     17.20115 
    5600    214.71751    129.92163    131384.07   -40526.696     2612.611   -43139.307    17.311831 
    5650    215.22448    26.408962    131526.63   -40559.139    2618.7798   -43177.919    17.476604 
    5700    213.99006   -42.393619    131542.14   -40594.138    2603.7597   -43197.897    17.634802 
    5750    214.36495   -44.626055    131462.41   -40594.976    2608.3212   -43203.297    17.691528 
    5800    207.08714   -187.63379    131348.28   -40654.345    2519.7673   -43174.112     17.85597 
    5850    210.62914    74.295939     131343.9   -40678.471    2562.8652   -43241.336    18.006718 
    5900    212.96634    220.63806    131415.53   -40646.778    2591.3034   -43238.082     18.17633 
    5950    214.27735    95.853323     131634.2   -40621.663    2607.2553   -43228.918    18.462465 
    6000    216.52537   -24.731758    131679.06   -40601.803    2634.6085   -43236.411    18.653271 
    6050    212.67706   -46.057674    131466.24   -40612.358    2587.7835   -43200.142    18.754978 
    6100    214.83679    31.020473    131453.53   -40617.681    2614.0624   -43231.743    18.964517 
    6150    210.47858    24.971712    131506.13   -40619.771    2561.0332   -43180.804    19.210303 
    6200     212.1015   -13.611024    131533.06   -40595.277    2580.7803   -43176.057    19.393637 
    6250     213.6967  -0.55915732    131444.28   -40559.092    2600.1902   -43159.282    19.467833 
    6300    216.37962    20.787459    131465.56   -40586.401     2632.835   -43219.236     19.71469 
    6350    216.53026    8.7763467    131535.31   -40552.054     2634.668   -43186.722    19.996436 
    6400    212.97231   -62.316585     131635.3   -40565.493    2591.3761   -43156.869    19.973933 
    6450    212.95407   0.72320384    131589.73   -40642.922    2591.1541   -43234.076    20.045769 
    6500    215.52901   -5.4411805    131568.27   -40636.511    2622.4851   -43258.996    20.257859 
    6550    213.90352    -1.529268    131554.57   -40619.938    2602.7067   -43222.645    20.379228 
    6600    212.78809    76.992397    131616.21    -40612.22    2589.1346   -43201.355    20.372277 
    6650    215.46558   -18.014941    131623.54   -40624.157    2621.7134   -43245.871     20.45411 
    6700    212.05293   -182.53774    131492.53   -40622.701    2580.1893    -43202.89    20.535321 
    6750    215.67713    88.380385    131399.43   -40601.299    2624.2875   -43225.586    20.515897 
    6800    214.53368   -1.9690732     131464.1   -40564.641    2610.3743   -43175.015     20.59446 
    6850    213.80967    42.691433     131511.3   -40528.017    2601.5648   -43129.582    20.850971 
    6900    217.00282    35.590774    131593.27   -40553.804     2640.418   -43194.222    20.981863 
    6950    215.32872   -50.550675    131593.42     -40549.9    2620.0481   -43169.949    21.173237 
    7000    208.44492   -86.001828    131599.81   -40558.763    2536.2882   -43095.051    21.338518 
    7050    216.04877    59.816278    131606.33   -40531.165    2628.8094   -43159.974    21.499006 
    7100    217.13122   -144.66939    131590.98   -40558.435    2641.9803   -43200.416     21.72007 
    7150    209.18576    -74.65691    131546.53    -40600.73    2545.3026   -43146.032    21.941264 
    7200    215.42855    84.240164    131312.12   -40572.454    2621.2628   -43193.716    22.113711 
    7250      216.868    51.319763    131499.38   -40499.116    2638.7775   -43137.893    22.204168 
    7300    214.96524    141.67278     131639.7   -40544.684    2615.6254    -43160.31    22.359684 
    7350    216.39035    96.390819     131796.7   -40547.965    2632.9656   -43180.931    22.555376 
    7400     211.2667    102.71111    131880.67   -40563.497    2570.6228    -43134.12     22.68219 
    7450    214.40502    212.41706    131968.91   -40583.649    2608.8087   -43192.458    22.728755 
    7500    214.75284    26.617094    132034.85   -40558.549     2613.041    -43171.59    22.913904 
    7550    216.04832    31.585555    131924.82   -40552.441    2628.8039   -43181.245    23.029558 
    7600    214.85677   -201.70621    131800.98    -40560.29    2614.3055   -43174.595    23.151797 
    7650     209.9859   -99.850818    131588.64   -40579.624    2555.0384   -43134.662    23.317341 
    7700    218.94479    69.004643    131611.95   -40551.369    2664.0472   -43215.416    23.548862 
    7750    214.65245    98.899936       131776   -40547.139    2611.8194   -43158.959    23.597104 
    7800     215.1286   -32.399052    131693.35   -40575.884     2617.613   -43193.497    23.690401 
    7850     214.3212   -158.86404    131611.46   -40537.933    2607.7889   -43145.722     23.88758 
    7900     215.4692   -144.23358    131548.62   -40508.708    2621.7574   -43130.465    24.020209 
    7950    210.32645    123.06482    131636.62   -40506.063    2559.1821   -43065.245    24.347568 
    8000    215.38684    64.047396    131665.22   -40538.495    2620.7553    -43159.25     24.44225 
    8050    213.02792    17.342513    131747.57   -40517.139    2592.0527   -43109.192    24.525451 
    8100    215.63355    78.276758    131704.91   -40525.914    2623.7571   -43149.671    24.643766 
    8150    214.17019     3.480037    131763.99   -40536.095    2605.9514   -43142.047    24.887855 
    8200    217.41518   -67.311569    131791.23   -40521.313    2645.4354   -43166.748    25.123487 
    8250    209.76118    83.974968    131764.79   -40560.183    2552.3042   -43112.487     25.31655 
    8300    215.46714    126.36508    131849.27   -40487.913    2621.7323   -43109.646     25.60396 
    8350    217.11606   -124.04756    131790.44   -40497.709    2641.7958   -43139.504    25.773383 
    8400    214.13349   -161.39891    131733.08   -40557.463     2605.505   -43162.968    26.124017 
    8450    215.36701    86.345702    131776.18   -40505.692     2620.514   -43126.206     26.41437 
    8500    218.19588    -27.73312    131749.73   -40501.132    2654.9347   -43156.066    26.479615 
    8550    212.07778    70.943281    131824.76   -40562.709    2580.4917     -43143.2    26.730657 
    8600    217.35581    92.284665    131830.05   -40539.171    2644.7131   -43183.885    27.045855 
    8650    216.02376   -285.20139    131655.82   -40573.582    2628.5051   -43202.087    27.274057 
    8700    216.21296   -54.526377    131452.26   -40538.744    2630.8072   -43169.551    27.468618 
    8750     216.3442   -120.88604    131355.02   -40526.677    2632.4041   -43159.081    27.513253 
    8800    213.61822     -143.648    131390.75    -40529.93    2599.2352   -43129.166     27.73486 
    8850    218.86595    73.714335    131427.69   -40502.016    2663.0879   -43165.104    27.913453 
    8900    212.10704   -74.966269    131493.98   -40507.427    2580.8477   -43088.274    28.217688 
    8950    220.62273     21.86899    131485.64   -40539.919    2684.4639   -43224.383    28.512244 
    9000    214.54497    17.215059     131445.2   -40527.916    2610.5116   -43138.428    28.727914 
    9050    216.26959    39.037259    131539.13   -40531.044    2631.4963    -43162.54    28.981449 
    9100     217.5402    127.66359       131562   -40512.767    2646.9566   -43159.724    29.186808 
    9150    218.16789    100.61656    131815.68   -40482.589    2654.5942   -43137.183    29.383481 
    9200     216.4871   -124.83993    131735.34   -40500.205    2634.1428   -43134.348    29.516504 
    9250    217.04576    95.172848    131811.91   -40499.513    2640.9405   -43140.453    29.739581 
    9300     215.7378      37.9171    131769.98   -40499.088    2625.0256   -43124.114    29.806403 
    9350    221.61559   -67.410515    131820.38    -40512.49    2696.5446   -43209.035    29.857194 
    9400    216.03862   -72.424039    131671.44   -40560.633    2628.6859   -43189.319    29.946394 
    9450    210.10514   -28.796318    131542.24    -40558.94    2556.4892   -43115.429    30.020852 
    9500    212.70499    25.548311    131611.99   -40568.718    2588.1235   -43156.842    30.305369 
    9550    215.40647   -49.754621    131585.09   -40626.802    2620.9942   -43247.797    30.537281 
    9600    219.65244   -13.380219    131730.25   -40581.096    2672.6577   -43253.753    30.610349 
    9650    214.32111   -58.896951    131754.99   -40639.902    2607.7878   -43247.689    30.827531 
    9700    214.74405   -7.4810927    131651.86   -40628.861     2612.934   -43241.795    30.938966 
    9750    217.22791    46.223338    131540.71   -40592.075    2643.1567   -43235.232    31.161073 
    9800    215.27309    109.35885    131749.69   -40604.493    2619.3712   -43223.865    31.349805 
    9850    212.10627   -115.68507    131655.76   -40623.042    2580.8384    -43203.88    31.513779 
    9900    212.11421    2.9045304    131599.44   -40615.356    2580.9349   -43196.291    31.692313 
    9950    214.04052    15.784523    131684.48   -40619.188    2604.3737   -43223.561    31.813295 
   10000    213.33487   -47.380467    131665.58   -40637.126    2595.7876   -43232.914    31.974431 
   10050     214.2202   -137.97765    131688.96   -40635.773      2606.56   -43242.333    32.146293 
   10100    214.10013    129.51199    131797.22   -40604.538     2605.099   -43209.637    32.255288 
   10150    216.30758   -199.13175    131846.29   -40589.227    2631.9585   -43221.186    32.485349 
   10200     218.1481   -42.239576     131683.9   -40581.242    2654.3534   -43235.595    32.580783 
   10250    212.93491   -91.991778    131756.18    -40601.96    2590.9211   -43192.882    32.646995 
   10300    214.91167    96.920296    131759.85   -40640.856    2614.9736    -43255.83    32.719451 
   10350    214.82392   -16.977097    131858.05   -40627.069    2613.9058   -43240.975    32.730148 
   10400    212.99545     -93.7014    131743.08   -40668.405    2591.6576   -43260.063    32.684158 
   10450     214.7048   -66.229223    131797.65   -40642.351    2612.4564   -43254.807     32.87968 
   10500    213.57444   -32.377387    131716.05   -40722.984    2598.7026   -43321.687    33.007264 
   10550    212.44827   -29.513754    131638.87   -40694.893    2584.9997   -43279.892    33.111265 
   10600    214.52545   -84.484646    131701.04    -40713.21    2610.2742   -43323.484    33.107111 
   10650     208.2132   -3.4279038    131647.06   -40791.541    2533.4688   -43325.009    33.386232 
   10700     210.6718   -71.105681    131712.23   -40772.343    2563.3843   -43335.727    33.498169 
   10750    208.83369    21.390433    131806.16   -40727.806    2541.0187   -43268.825    33.478166 
   10800    213.96794    118.64325    131872.99   -40662.705    2603.4906   -43266.195     33.53614 
   10850    212.82291   -71.154686    131785.67   -40677.604    2589.5582   -43267.162    33.789682 
   10900    218.33122    75.881649    131759.64   -40639.724    2656.5814   -43296.305    33.975492 
   10950    214.49184   -85.606992     131709.6   -40624.313    2609.8651   -43234.178    34.262175 
   11000    215.36078     49.07797     131822.5   -40613.312    2620.4382    -43233.75    34.492915 
   11050    211.93732    76.426277    131808.97   -40611.183    2578.7827   -43189.965    34.740615 
   11100    217.27108    1.9910371    131849.03   -40582.038    2643.6821    -43225.72    34.850375 
   11150    214.44478   -6.0471291    131872.96   -40624.808    2609.2926   -43234.101    35.018249 
   11200     216.6332   -13.696588     131992.1   -40591.881    2635.9205   -43227.801    35.185909 
   11250    216.15166   -37.992387    131987.17   -40566.438    2630.0613   -43196.499    35.460155 
   11300    214.93423   -11.936702    131792.75   -40567.948     2615.248   -43183.196    35.571992 
   11350    212.54795   -63.538965    131664.43   -40639.808    2586.2126   -43226.021      35.6831 
   11400    212.65535     47.86076    131800.75   -40660.493    2587.5194   -43248.013    35.953061 
   11450    213.91968   -138.99017    131728.83   -40676.812    2602.9034   -43279.715    36.185578 
   11500    209.26995    91.769904     131738.2   -40652.545     2546.327   -43198.872    36.541405 
   11550    211.86575    157.33535    131855.56    -40656.61    2577.9118   -43234.521    36.690288 
   11600    214.39373    9.0907052    132009.98   -40629.051    2608.6714   -43237.722    36.823318 
   11650    214.23531    9.8039777    132007.99   -40615.567    2606.7438   -43222.311    36.965101 
   11700    214.74992   -29.052244    131896.19   -40587.062    2613.0054   -43200.067    37.182803 
   11750    214.23211   -43.843563    131872.86   -40602.372    2606.7049   -43209.076     37.40517 
   11800    213.92441    13.192074    131858.77   -40640.177    2602.9609   -43243.138    37.405793 
   11850    210.94746   -143.88774    131740.99   -40683.854    2566.7384   -43250.593    37.402952 
   11900     215.6192   -107.52563    131526.48   -40696.449    2623.5825   -43320.032    37.377863 
   11950    211.43414   -66.503062    131429.35   -40691.991    2572.6601   -43264.651    37.608271 
   12000    207.38842    31.296001    131327.68   -40700.767    2523.4331     -43224.2     37.72382 
   12050    212.15853   -23.376907    131335.07   -40692.322    2581.4743   -43273.796    37.920209 
   12100    209.66175    48.392277    131412.18   -40690.463    2551.0943   -43241.557    38.222209 
   12150    214.93645    59.818251    131557.17   -40683.146    2615.2751   -43298.421    38.572936 
   12200    211.81873    113.33434    131693.09   -40692.548    2577.3397   -43269.888    38.847542 
   12250    208.62343    236.49818    131837.77   -40730.023    2538.4603   -43268.483    39.142841 
   12300    210.88045    19.861128     131882.9   -40666.662     2565.923   -43232.585    39.251378 
   12350    210.49617    257.09112    131953.71   -40660.171    2561.2472   -43221.419    39.373034 
   12400    213.16863   -58.136755    132115.22   -40655.916    2593.7648    -43249.68    39.568834 
   12450    217.25377     -42.1312    132133.29   -40610.865    2643.4715   -43254.336    39.836748 
   12500    213.53705   -65.965503    132078.62   -40650.557    2598.2477   -43248.805    40.149462 
   12550    216.77654   0.31263076    131979.04   -40615.506    2637.6647   -43253.171    40.464238 
   12600    214.18901    116.06537    132062.57   -40609.428    2606.1805   -43215.609     40.67857 
   12650    216.37229    43.997454    132122.75     -40595.8    2632.7459   -43228.546    40.806321 
   12700    215.65983   -130.06966    132209.55   -40611.263    2624.0769    -43235.34    40.689031 
   12750    210.95226     -150.293    132021.05   -40573.141    2566.7967   -43139.937    40.871757 
   12800     214.1034   -3.6645249    131941.08   -40580.538    2605.1388   -43185.677    41.141938 
   12850     216.8798    17.478726    131973.84    -40561.04    2638.9211   -43199.961    41.240586 
   12900    214.38057    7.7676439    131983.82   -40557.218    2608.5113    -43165.73    41.468051 
   12950    215.41782   -25.490081     132004.8    -40498.56    2621.1322   -43119.692    41.668936 
   13000     221.1157   -32.505415    131976.31   -40466.409    2690.4622   -43156.871    41.732263 
   13050    222.72704   -41.216966     131875.4   -40489.705    2710.0684   -43199.774    41.921222 
   13100    213.63742   -76.455304    131826.03   -40484.359     2599.469   -43083.828    42.083467 
   13150    215.93782    24.852427    131923.65   -40497.275    2627.4594   -43124.734    42.288109 
   13200    216.12101   -70.484985    131831.77     -40527.6    2629.6884   -43157.289    42.305409 
   13250    218.75094    36.348764     131878.9   -40542.553    2661.6885   -43204.242    42.555356 
   13300    216.00915    214.66067    131969.92   -40583.664    2628.3273   -43211.991    42.763524 
   13350    211.68357   -169.13973     131799.5   -40607.063     2575.695   -43182.758    43.081857 
   13400    214.08396    102.53055    131717.02    -40610.91    2604.9022   -43215.812    43.060915 
   13450    214.55565    -27.04586       131679   -40607.936    2610.6416   -43218.578    43.158515 
   13500    214.97429    61.071638     131789.6   -40599.755    2615.7355   -43215.491    43.259595 
   13550    213.14159    66.383543    131779.69   -40619.428    2593.4358   -43212.864     43.34679 
   13600    216.89325   -197.10411    131676.08   -40616.643    2639.0847   -43255.728    43.562696 
   13650    212.38595   -69.210921    131561.65   -40619.473    2584.2414   -43203.715    43.705708 
   13700    214.46241   -144.68279    131612.19   -40605.205    2609.5071   -43214.712    43.888298 
   13750    217.90181     35.35759    131634.43   -40564.236    2651.3565   -43215.592    44.100632 
   13800    213.23787    -46.70745    131587.75   -40608.686    2594.6073   -43203.294    44.293967 
   13850    211.32557    58.354733    131560.76   -40672.477    2571.3391   -43243.816    44.493036 
   13900    211.51146    63.866964    131601.19   -40669.656     2573.601   -43243.256    44.826814 
   13950    215.99102   -2.0055811     131614.2   -40658.234    2628.1068   -43286.341    45.026728 
   14000    214.83762   -263.26773    131492.09   -40658.538    2614.0725    -43272.61     45.01938 
   14050    214.47159    204.01763    131551.76   -40631.959    2609.6188   -43241.578     45.18386 
   14100    214.04924    173.15924    131732.48   -40611.081    2604.4798   -43215.561    45.213198 
   14150    212.27447   -131.10954    131656.77   -40602.334     2582.885   -43185.219    45.294521 
   14200    213.30589   -17.159535    131517.54    -40601.15     2595.435   -43196.585    45.381591 
   14250    213.64561    55.454173    131505.59    -40567.68    2599.5686   -43167.248    45.258148 
   14300    210.64466   -37.489978    131518.66   -40607.729     2563.054   -43170.783    45.357932 
   14350    212.71699   -43.657886       131466   -40632.594    2588.2694   -43220.864    45.362106 
   14400    214.60409   -117.92776    131337.66   -40667.232     2611.231   -43278.463    45.499449 
   14450    213.29855    103.61679    131370.14   -40641.958    2595.3456   -43237.303    45.617126 
   14500    214.31882    108.11875    131224.23   -40615.566      2607.76   -43223.326    45.571714 
   14550    216.33838    45.887327    131388.32    -40600.27    2632.3332   -43232.603    45.666974 
   14600    212.88774   -8.7957727    131403.34     -40620.2    2590.3471   -43210.547    45.867733 
   14650    211.31615   -130.68124    131342.79   -40600.229    2571.2245   -43171.453    45.950691 
   14700    213.42163     40.56874    131239.04   -40572.283    2596.8433   -43169.126    46.015289 
   14750    217.13942     48.10983     131119.1   -40603.184    2642.0801   -43245.265    46.039139 
   14800    210.50873    49.996428    131238.28   -40598.853       2561.4   -43160.253     46.04919 
   14850    214.20891   -62.004722    131179.89   -40598.756    2606.4226   -43205.178    46.146506 
   14900    213.74472    30.748455    131173.59   -40593.964    2600.7745   -43194.739    46.341709 
   14950    211.11941   -11.060416    131265.81   -40600.376    2568.8306   -43169.207    46.387956 
   15000    214.01806   -81.439015    131250.55   -40562.684    2604.1004   -43166.784    46.491545 
   15050    211.84542   -53.637907    131259.87   -40535.891    2577.6644   -43113.556    46.734071 
   15100    213.38872   -33.852962    131256.38   -40530.257    2596.4428   -43126.699    46.940955 
   15150    214.59794   -46.195753    131169.33   -40541.215    2611.1561   -43152.372    46.994249 
   15200    214.36575    15.577116    131090.09   -40511.302     2608.331   -43119.633    47.298229 
   15250    213.82117    47.266751    131279.33   -40533.035    2601.7047    -43134.74    47.637369 
   15300    217.74202    131.73713    131514.31   -40601.906    2649.4123   -43251.318    47.930189 
   15350    212.52992   -51.379239     131498.7   -40626.863    2585.9932   -43212.857    48.156423 
   15400    214.23666   -190.83132    131509.44   -40660.952    2606.7602   -43267.712    48.277406 
   15450    214.46719   -52.884293    131419.94   -40673.633    2609.5653   -43283.198    48.516667 
   15500    212.95118    148.94092    131499.98   -40632.507     2591.119   -43223.626    48.551149 
   15550    210.76356   -123.23819    131546.62   -40630.218    2564.5007   -43194.718    48.703256 
   15600    213.91533   -91.387671    131517.68   -40610.427    2602.8504   -43213.277    48.897374 
   15650    213.41022    39.906966    131593.78   -40611.443    2596.7044   -43208.147    49.108048 
   15700    216.16281    13.568737    131692.89   -40573.258     2630.197   -43203.455     49.44146 
   15750    216.90523   -17.563556    131723.46   -40520.642    2639.2306   -43159.872    49.825021 
   15800    219.15502   -48.488714    131705.75   -40485.313    2666.6052   -43151.918    50.078497 
   15850    219.11943    68.525942    131739.27   -40489.801    2666.1722   -43155.973    50.173268 
   15900    219.32635   -103.39542    131651.93   -40479.837    2668.6899   -43148.527    50.452238 
   15950    215.98869    21.423814    131612.24   -40518.025    2628.0784   -43146.104    50.327961 
   16000    218.19839   -68.904674    131672.08   -40477.171    2654.9653   -43132.136    50.404105 
   16050    218.89865    -86.06739    131546.25   -40510.712    2663.4858   -43174.198    50.462537 
   16100    218.16135    58.319579    131471.84   -40507.828    2654.5145   -43162.343    50.632469 
   16150    215.58474    30.353824    131485.68   -40552.641    2623.1633   -43175.804    50.652464 
   16200    214.85833    22.959313     131612.5   -40583.917    2614.3245   -43198.241     50.65298 
   16250    213.36304   -126.39989    131509.37   -40581.343    2596.1304   -43177.473    50.879855 
   16300    214.96254   -41.045833    131567.35   -40593.461    2615.5926   -43209.054    51.153191 
   16350    217.90486    30.496267    131609.04   -40529.213    2651.3937   -43180.607    51.348737 
   16400    219.84939   -4.5549511    131588.29    -40518.76    2675.0541   -43193.815    51.706541 
   16450    214.62767    94.536218    131585.29    -40559.98    2611.5179   -43171.498    51.910437 
   16500    217.69088   -7.1141048    131683.47   -40604.067      2648.79   -43252.857    52.071658 
   16550    215.74869    138.71894    131753.73   -40602.289    2625.1582   -43227.447    52.357281 
   16600    211.95141   -37.481788     131806.1   -40638.658    2578.9541   -43217.612    52.506242 
   16650    213.99971    76.290097    131718.13    -40631.61    2603.8772   -43235.487    52.573578 
   16700     214.8586    122.88428    131778.82    -40611.86    2614.3278   -43226.187    52.773316 
   16750     214.0886    62.012295    131777.61   -40568.128    2604.9587   -43173.087    52.960815 
   16800    216.51832    90.457081     131812.9   -40619.318    2634.5227    -43253.84    52.996558 
   16850    215.57657     34.02015    131988.35    -40587.02    2623.0638   -43210.084    53.239104 
   16900    216.13539    -5.551904    131951.64   -40591.211    2629.8633   -43221.074    53.267333 
   16950    212.68561    3.3767151    131979.21    -40614.58    2587.8876   -43202.467    53.258233 
   17000    216.25145    -195.8297    131715.17   -40584.365    2631.2755    -43215.64    53.446512 
   17050    212.03151    25.429616    131714.67   -40634.083    2579.9288   -43214.012    53.759637 
   17100    216.94264    36.139677    131617.89   -40590.793    2639.6857   -43230.479    53.920932 
   17150    211.90631   -197.52648    131682.33   -40633.445    2578.4054    -43211.85    54.060084 
   17200    215.41594    102.09257    131584.08   -40568.412    2621.1093   -43189.521    54.081245 
   17250    214.54187   -137.86431    131640.99   -40604.088    2610.4739   -43214.562    54.224999 
   17300    217.21739    79.758858    131660.92   -40605.105    2643.0288   -43248.133    54.421748 
   17350      211.717    165.71954    131835.19   -40631.134    2576.1018   -43207.236    54.631658 
   17400    214.99056   -12.587191    131910.43   -40628.391    2615.9334   -43244.325    54.749678 
   17450     209.5077    148.37217    132069.64   -40625.672    2549.2198   -43174.892    55.035213 
   17500    215.12218    126.66966    132100.74   -40571.892     2617.535   -43189.427    55.265888 
   17550    218.57933   -107.84751    132098.25   -40533.273    2659.6004   -43192.873    55.638114 
   17600    218.19524   -103.34425     131972.8   -40540.831    2654.9269   -43195.758    55.701633 
   17650    213.51586   -31.507979    131925.98   -40563.757    2597.9898   -43161.747    55.806724 
   17700    215.59883    228.54615    132011.81   -40552.279    2623.3346   -43175.614    55.828665 
   17750    215.88207    35.158533    132223.15   -40573.193    2626.7811   -43199.974    56.033085 
   17800    215.05642    110.15047    132232.23   -40530.985    2616.7348    -43147.72    56.229011 
   17850    214.06841    109.01346    132307.26   -40570.688     2604.713   -43175.401    56.401218 
   17900    212.58659   -151.27719    132148.48   -40578.629    2586.6828   -43165.312    56.540508 
   17950    217.31978    27.492229    132031.57   -40578.136    2644.2747    -43222.41    56.966541 
   18000    210.74708   -34.351112    131985.26   -40606.843    2564.3002   -43171.143    57.286433 
   18050    213.84678   -96.033468    131871.73   -40636.963    2602.0164   -43238.979    57.304747 
   18100    220.92631   -167.78977    131788.17   -40623.196    2688.1577   -43311.354    57.433188 
   18150    214.17837    128.29634    131697.23   -40619.676    2606.0509   -43225.727    57.542469 
   18200    213.89518    29.050776    131741.37   -40607.284    2602.6052   -43209.889    57.716938 
   18250    212.37997   -37.280189    131661.27   -40630.814    2584.1687   -43214.982    57.787474 
   18300    214.67355   -47.682909    131646.14   -40629.214    2612.0762   -43241.291    57.940584 
   18350    216.10457   -11.648858    131797.77   -40596.451    2629.4884   -43225.939     58.21933 
   18400    212.47363    59.642242    131683.24   -40622.214    2585.3083   -43207.523    58.205633 
   18450    211.64635   -221.30004    131536.77   -40658.517    2575.2423   -43233.759     58.39255 
   18500    214.15456    29.520571    131445.99   -40619.235    2605.7613   -43224.996    58.372855 
   18550    211.59831   -7.7862322    131536.74   -40619.478    2574.6577   -43194.135    58.446508 
   18600    214.26182   -129.91596    131420.45   -40592.885    2607.0664   -43199.951    58.637197 
   18650    212.38562    97.139389    131342.34   -40575.944    2584.2374   -43160.181     58.80354 
   18700    214.07042   -27.784932    131470.25   -40613.199    2604.7375   -43217.937    58.929493 
   18750    210.82525   -124.69766    131350.88   -40592.041    2565.2513   -43157.292    59.073291 
   18800    215.33186   -91.978117    131199.44   -40569.742    2620.0863   -43189.828    59.241315 
   18850    215.40084    21.154319    131270.58   -40566.975    2620.9256     -43187.9    59.436663 
   18900     215.7752   -28.516487    131275.88   -40594.805    2625.4807   -43220.285    59.614794 
   18950     211.2423   -138.95851    131082.44   -40591.542    2570.3259   -43161.868     59.84926 
   19000    215.51018    200.72593    131034.94   -40613.311     2622.256   -43235.567    60.025653 
   19050     212.4048     11.88159    131135.11   -40602.236    2584.4708   -43186.707    60.259342 
   19100    217.55562    68.061402    131261.27   -40559.512    2647.1443   -43206.657    60.426691 
   19150    216.11699    74.941574     131380.5   -40510.626    2629.6395   -43140.266    60.566945 
   19200    217.82441    24.176222    131537.03   -40563.321    2650.4149   -43213.736    60.612305 
   19250    217.21911    62.302075    131453.18   -40563.253    2643.0497   -43206.302    60.868192 
   19300    215.49586   -87.109857    131498.92   -40500.078    2622.0818    -43122.16    61.180025 
   19350    216.93555   -14.281219    131513.47   -40496.342    2639.5994   -43135.941    61.366132 
   19400    219.27116    20.269949    131469.79   -40522.169    2668.0184   -43190.187    61.451744 
   19450    222.56377    107.95807    131706.63   -40470.356    2708.0818   -43178.437    61.618985 
   19500    215.83662   -33.870942     131692.4   -40554.736     2626.228   -43180.964    61.586864 
   19550    217.15659   -62.630715    131812.72   -40566.426     2642.289   -43208.715    61.833063 
   19600    216.58859    83.246987    131784.82   -40569.064    2635.3777   -43204.442    61.978773 
   19650    214.96535    86.738316    131880.52   -40562.675    2615.6267   -43178.302     62.14285 
   19700    217.99885   -63.262726    131880.85   -40550.649    2652.5373   -43203.186    62.465142 
   19750    216.43631   -142.60235    131834.19   -40569.845    2633.5248    -43203.37    62.574615 
   19800    216.74523   -135.72508    131736.29   -40603.019    2637.2837   -43240.303    62.647901 
   19850    212.59574   -142.08491    131569.17   -40654.617    2586.7941   -43241.411    62.875707 
   19900    215.46559    41.960907    131589.28   -40675.616    2621.7135   -43297.329    62.853191 
   19950    215.73246    34.693268    131681.67   -40656.252    2624.9607   -43281.212    62.972535 
   20000    216.47021      188.155       131791   -40663.908    2633.9373   -43297.845    63.053063 
   20050    212.43092   -33.556344    131838.66   -40667.017    2584.7886   -43251.806    63.196788 
   20100    215.87816    141.29543    131998.28   -40632.993    2626.7335   -43259.727    63.574125 
   20150    209.75603   -146.72125    131889.62   -40708.192    2552.2414   -43260.433    63.817122 
   20200    212.09067   -12.799109    131811.51   -40708.897    2580.6486   -43289.546     63.60781 
   20250    207.21635    57.470267    131903.04   -40707.324    2521.3395   -43228.664    63.670844 
   20300    208.02394 -0.038144281    131759.39   -40746.507     2531.166   -43277.673    63.629419 
   20350    212.75277    -200.1713     131742.7   -40739.754    2588.7048   -43328.458    63.677403 
   20400    210.53027   -151.93582     131642.4   -40757.292    2561.6622   -43318.954    63.899529 
   20450    214.96386   -10.814751    131677.71   -40761.742    2615.6086    -43377.35    64.023781 
   20500    210.39686   -56.997315    131568.92   -40746.728    2560.0389   -43306.767    64.097516 
   20550    210.75954    72.049653    131722.22   -40717.673    2564.4518   -43282.125    64.145377 
   20600    212.52253    101.57985     131860.5   -40664.214    2585.9033   -43250.117    64.162454 
   20650    215.31155    68.423374    131877.15   -40661.589    2619.8391   -43281.428    64.404296 
   20700    216.43195    137.56946    131857.11   -40610.561    2633.4718   -43244.033    64.598744 
   20750    213.21599   -172.77397    131952.07   -40644.574     2594.341   -43238.915    64.824007 
   20800    216.16162   -45.693867    131919.24   -40650.696    2630.1826   -43280.878    65.042825 
   20850    214.23802   -11.260869    131851.85   -40654.553    2606.7768    -43261.33    65.083601 
   20900    216.74011    61.312621     131943.5   -40602.487    2637.2213   -43239.708    65.373467 
   20950    216.48958   -37.437265    132012.58   -40615.628     2634.173   -43249.801    65.465608 
   21000    218.12605      27.3566    131978.68   -40581.007    2654.0851   -43235.092    65.834413 
   21050    215.49285   -64.921095    132060.86   -40605.702    2622.0451   -43227.747    66.039494 
   21100    213.64063   -32.406859    131899.98   -40622.312    2599.5079    -43221.82    66.237344 
   21150     213.2935    88.501504    132001.72   -40595.525    2595.2842   -43190.809    66.565017 
   21200    211.90827    5.6754114     131994.3   -40620.397    2578.4292   -43198.827    66.937433 
   21250    211.65849   -102.93131    132073.97   -40580.624    2575.3899   -43156.014    66.902995 
   21300    213.32531   -13.401253    132019.88   -40601.052    2595.6713   -43196.723    66.911454 
   21350     216.5853    6.0931452    132072.43   -40551.284    2635.3377   -43186.622    67.074973 
   21400    215.52274   -133.42479    131968.14   -40561.509    2622.4089   -43183.918    67.256615 
   21450    213.83638   -15.686707    131990.92   -40621.599    2601.8897   -43223.489    67.362949 
   21500    214.03404   -52.232497    131956.51   -40609.051    2604.2949   -43213.346    67.503961 
   21550    215.32369    63.487928    131918.04   -40625.311    2619.9868   -43245.298    67.689912 
   21600    212.02131   -35.511389    132049.75   -40643.626    2579.8046   -43223.431    67.834364 
   21650    215.62823    -31.41503    131808.68   -40663.014    2623.6924   -43286.707     67.91604 
   21700    212.66243   -81.640246    131649.15   -40682.453    2587.6056   -43270.059    68.087168 
   21750    212.90301    49.099219    131621.67    -40707.26    2590.5329   -43297.793    68.147465 
   21800    211.00434   -11.035802    131547.29   -40744.686    2567.4304   -43312.116    68.316138 
   21850    212.34081   -3.1678847    131642.23   -40709.162    2583.6922   -43292.854    68.479186 
   21900    211.32588   -102.18528    131583.09   -40731.206    2571.3429   -43302.549    68.678311 
   21950    212.14995    46.480388    131557.76   -40722.103    2581.3699   -43303.473    68.544247 
   22000    215.55699    34.128076    131619.34    -40691.03    2622.8255   -43313.855    68.487116 
   22050    215.15212    140.23606    131804.51    -40660.33    2617.8993   -43278.229    68.916771 
   22100    213.81538    -41.01085    131916.89    -40674.89    2601.6343   -43276.524    69.422411 
   22150    213.71735   -14.038802    131889.85   -40661.262    2600.4414   -43261.703    69.637373 
   22200    215.15904   -168.34233    131763.53   -40692.127    2617.9834    -43310.11    70.110472 
   22250    213.18283    28.294319    131567.94   -40716.944    2593.9377   -43310.882    70.233873 
   22300    214.84855   -25.039044    131645.78   -40663.637    2614.2055   -43277.843    70.281168 
   22350    215.66547   -45.446808    131696.19   -40646.942    2624.1456   -43271.087    70.502663 
   22400    211.12875       133.95     131740.1   -40662.043    2568.9443   -43230.987    70.697667 
   22450    216.38541   -98.384134     131735.2   -40710.043    2632.9056   -43342.948    70.791625 
   22500    212.91983    17.442256    131715.25   -40737.461    2590.7375   -43328.199    70.789477 
   22550    214.04803    132.72135     131619.6   -40719.677    2604.4651   -43324.142    71.034571 
   22600    212.19001    7.5824843    131684.53   -40766.984    2581.8573   -43348.841    71.253341 
   22650     210.9351    211.92639    131722.32   -40756.162     2566.588    -43322.75    71.409931 
   22700    219.39524    117.52491    131808.73   -40675.114    2669.5281   -43344.642    71.464079 
   22750    216.01316    93.794581    131919.75   -40623.716    2628.3762   -43252.092    71.486281 
   22800    213.68101    115.14828    132046.69   -40603.944    2599.9993   -43203.944    71.593111 
   22850     217.0266   -145.16344    131939.39   -40602.318    2640.7073   -43243.025    71.663066 
   22900    218.91122    88.078858    131785.17    -40584.52    2663.6387   -43248.159    71.920704 
   22950    216.38268   -20.615486    131835.69    -40651.91    2632.8723   -43284.782    71.973184 
   23000    213.93373   -115.35686    131802.38   -40678.423    2603.0743   -43281.498    72.199484 
   23050     216.2373   -145.67632    131731.56   -40659.691    2631.1034   -43290.794    72.288776 
   23100    215.12656     -4.73957    131657.56   -40643.849    2617.5883   -43261.437    72.375435 
   23150    211.84528    145.40711    131749.61   -40609.527    2577.6628    -43187.19    72.463516 
   23200    215.85835    134.69997    131895.76   -40578.698    2626.4925   -43205.191     72.71248 
   23250     216.1973   -99.312873    131860.94   -40647.621    2630.6166   -43278.238    73.050324 
   23300     220.8131   -14.329919    131747.71   -40659.632    2686.7802   -43346.413    73.014663 
   23350    215.37157   -107.83744    131760.12   -40639.249    2620.5695   -43259.819    73.259986 
   23400    215.63213    120.52008    131826.04   -40680.224    2623.7398   -43303.964    73.258547 
   23450    215.39642   -190.08222    131842.92       -40674    2620.8719   -43294.872     73.40271 
   23500    212.55673    211.00414    131759.87    -40718.22    2586.3194    -43304.54    73.618433 
   23550    207.98734   -95.210916    131741.11    -40779.23    2530.7207   -43309.951    73.729265 
   23600    212.84076    109.69311    131686.84   -40755.017    2589.7754   -43344.792    73.774447 
   23650    211.72869    8.4550951    131635.51    -40771.31    2576.2442   -43347.554    73.825383 
   23700    211.38964    127.70205    131693.05   -40751.148    2572.1187   -43323.267    73.968997 
   23750     213.0874    29.549612    131644.35   -40713.261    2592.7764   -43306.037    74.084099 
   23800    214.69782   -7.6870019    131730.36   -40696.899    2612.3715    -43309.27    74.520289 
   23850    218.03462   -154.20881     131668.2   -40699.201    2652.9726   -43352.173    74.556243 
   23900    210.07681   -25.129764    131589.14   -40695.702    2556.1445   -43251.846    74.670675 
   23950    211.55887   -69.485411     131647.5   -40720.816    2574.1778   -43294.994    74.867729 
   24000    219.75275   -17.382703    131509.54   -40665.184    2673.8782   -43339.062    75.156819 
   24050    215.96157    30.568092     131588.7   -40717.858    2627.7483   -43345.606    75.358326 
   24100    216.17849    37.481106    131823.57   -40645.376    2630.3878   -43275.764    75.582662 
   24150    213.07552    12.073845     131796.7   -40689.386    2592.6319   -43282.018    75.618353 
   24200    217.93288   -147.18634    131741.82   -40690.785    2651.7346    -43342.52    75.746979 
   24250    215.38964    39.851743    131681.38   -40752.157    2620.7893   -43372.946    76.019731 
   24300    214.48182   -233.68008     131714.9    -40749.38    2609.7433   -43359.123    76.194428 
   24350    212.41116    12.057573    131609.59   -40814.192    2584.5482    -43398.74      76.0927 
   24400    210.75941    209.37078    131691.48   -40789.244    2564.4502   -43353.694    76.108758 
   24450    211.97342    43.273655    131773.43   -40799.146    2579.2219   -43378.368    76.163072 
   24500       210.55   -9.7929396     131831.8   -40798.077    2561.9022   -43359.979    76.326923 
   24550    213.81927    11.774357    131924.19   -40769.086    2601.6816   -43370.767    76.341855 
   24600    212.90606    37.379928    131943.09   -40741.408    2590.5699   -43331.978    76.250421 
   24650    215.27608   -86.970831    131829.57   -40749.276    2619.4076   -43368.684    76.188605 
   24700    213.89029   -60.690907    131736.58    -40791.82    2602.5458   -43394.365    76.222364 
   24750    212.35033    99.687121    131880.61   -40783.807    2583.8081   -43367.615    76.537796 
   24800    213.10112    12.646901    131919.61   -40743.244    2592.9434   -43336.187    76.747695 
   24850    218.32704   -70.037188    131944.57    -40776.78    2656.5306   -43433.311    76.681176 
   24900    215.20095    75.513476       131988   -40714.553    2618.4934   -43333.047    76.891106 
   24950    215.35383   -26.463994    132030.43   -40700.197    2620.3536    -43320.55    76.750641 
   25000    208.94147    33.978464    131868.94   -40766.015    2542.3302   -43308.345    76.898191 
   25050    213.61624    33.827102     131854.1   -40736.328    2599.2112   -43335.539    77.228124 
   25100    217.42588   -287.45349    131804.08   -40724.143    2645.5656   -43369.708    77.090433 
   25150    214.67129   -30.516938    131650.31   -40752.931    2612.0487    -43364.98    76.949382 
   25200     213.9664   -32.568136    131719.88   -40770.772    2603.4718   -43374.244    77.214392 
   25250    213.91227   -111.12824     131685.5   -40784.475    2602.8132   -43387.289    77.434865 
   25300    211.74513    48.488561    131581.33   -40792.073    2576.4441   -43368.518    77.509573 
   25350    213.95109    -53.79559    131568.95    -40740.86    2603.2855   -43344.145    77.537956 
   25400    213.20974   -12.972753    131690.05   -40749.805    2594.2651    -43344.07    77.665932 
   25450    209.30877    177.08982    131662.16   -40703.991    2546.7993    -43250.79    77.865697 
   25500    210.09186   -117.12993     131692.8   -40725.544    2556.3277   -43281.872     77.98223 
   25550    216.02834    165.62233    131752.97   -40690.138    2628.5609   -43318.699    78.175776 
   25600    215.55135    53.681192    131900.69    -40648.85     2622.757   -43271.607    78.299299 
   25650    213.73465    130.07265    131923.57   -40668.527    2600.6519   -43269.179    78.472643 
   25700    214.47579     56.49847    132037.09   -40619.886      2609.67   -43229.556    78.581544 
   25750    215.21386     35.92914    132142.52   -40635.457    2618.6505   -43254.107    78.512667 
   25800    218.59964   -47.733309    132340.39    -40622.43    2659.8476   -43282.278    78.550483 
   25850    215.41253   -171.56748    132392.95   -40583.601    2621.0679   -43204.669    78.824115 
   25900     214.5396   -43.141688    132277.83   -40594.016    2610.4463   -43204.462    78.870776 
   25950    214.85571   -9.9229158    132194.37   -40590.564    2614.2926   -43204.856    78.918542 
   26000    211.90523   -76.391704    132077.66   -40612.713    2578.3921   -43191.105    78.936206 
   26050    217.73681   -124.52636    131962.35    -40558.63    2649.3489   -43207.979    79.032753 
   26100    216.64423    73.711059    131878.26   -40612.243    2636.0547   -43248.297    79.172573 
   26150    214.66529   -73.886601    131834.81   -40593.628    2611.9757   -43205.604     79.37737 
   26200    214.54884    1.3273049    131826.42   -40582.557    2610.5588   -43193.116    79.460651 
   26250    215.67583     15.09017    131832.15   -40595.519    2624.2716    -43219.79    79.661178 
   26300    211.12745    6.4637257    131716.68   -40645.902    2568.9285   -43214.831    79.757722 
   26350    213.57193   -167.42197    131591.55   -40651.788    2598.6721    -43250.46    80.011001 
   26400    211.50837   -24.066685    131491.79   -40613.351    2573.5633   -43186.914    80.162785 
   26450     212.8358    53.131687    131635.38   -40611.122    2589.7151   -43200.837    80.364674 
   26500    218.50492   -144.39359    131616.36   -40613.431    2658.6951   -43272.126    80.575921 
   26550    211.34707   -88.295937    131634.69   -40631.047    2571.6007   -43202.647    80.886607 
   26600    216.07606   -119.87897    131641.14   -40617.392    2629.1415   -43246.534    80.919914 
   26650    213.37924    66.813696    131602.95   -40619.966    2596.3275   -43216.294    81.027264 
   26700     208.9695   -56.192377    131588.46   -40598.897    2542.6712   -43141.568     81.37488 
   26750     218.0769    103.51418     131568.2   -40599.416    2653.4871   -43252.903    81.496994 
   26800     214.0041   -124.56094    131565.02     -40580.1    2603.9305   -43184.031    81.493564 
   26850    218.47178    181.66034    131633.76   -40613.504    2658.2918   -43271.796    81.423676 
   26900    215.55233    14.743315    131670.46   -40603.434    2622.7689   -43226.202     81.48338 
   26950     210.9042   -4.0978267    131675.99   -40681.343    2566.2121   -43247.555    81.438407 
   27000    211.14895    1.4906645    131726.43   -40688.544      2569.19   -43257.734    81.642042 
   27050    211.14068    41.056465    131619.42   -40652.657    2569.0894   -43221.746    81.637757 
   27100    210.84272   -105.62036    131679.17   -40632.749     2565.464   -43198.213    81.887676 
   27150    218.84395    190.66011    131710.07   -40558.615    2662.8202   -43221.435    81.978637 
   27200    212.86248    31.741124    131822.74   -40598.982    2590.0397   -43189.022    82.083775 
   27250    215.99132    69.025833    131767.11   -40581.327    2628.1103   -43209.438    81.967995 
   27300    213.63892    26.483442    131757.66   -40531.245    2599.4872   -43130.732    82.099317 
   27350    213.22493   -93.034552    131734.19   -40596.671    2594.4498   -43191.121    82.502213 
   27400    214.51929   -63.039969    131640.36   -40586.386    2610.1992   -43196.585    82.866467 
   27450    211.93351    67.552523    131679.33   -40550.044    2578.7363   -43128.781    82.827989 
   27500    215.63608    7.6659387    131690.97   -40572.816    2623.7879   -43196.604    83.194805 
   27550    213.88545     17.90812    131779.87   -40556.734    2602.4869   -43159.221    83.278927 
   27600    215.00306   -12.110004    131765.43    -40535.65    2616.0856   -43151.736    83.372198 
   27650    212.58899   -92.348371    131626.01   -40552.395     2586.712   -43139.107    83.521203 
   27700    215.22431   -153.88079    131613.91   -40569.965    2618.7777   -43188.743    83.658932 
   27750    216.42543    125.49669     131582.9    -40563.91    2633.3925   -43197.303    83.903297 
   27800    218.82167    93.791937    131681.14   -40577.266    2662.5491   -43239.816    84.037209 
   27850    212.92348    78.799184    132003.89   -40589.725    2590.7819   -43180.507    84.278752 
   27900    213.98851   -176.91345    131938.56   -40599.192    2603.7408   -43202.932    84.335703 
   27950    215.17606    24.519285    131927.79   -40620.509    2618.1906     -43238.7     84.49125 
   28000    210.54377   -4.9003323     131962.8   -40666.003    2561.8264    -43227.83    84.697469 
   28050    214.87702    29.088807    131961.22   -40628.319    2614.5519   -43242.871    84.791931 
   28100    216.91229    -44.24547    131910.33   -40606.029    2639.3164   -43245.345    84.833247 
   28150    217.43415   -45.070914    131918.38   -40603.512    2645.6663   -43249.178    84.914257 
   28200    217.72127   -159.33801    131905.82   -40584.727    2649.1598   -43233.887     84.78602 
   28250    216.15635   -51.223644    131953.62   -40627.459    2630.1185   -43257.577    84.991648 
   28300    214.11679   -76.892865    131887.85   -40622.968    2605.3017    -43228.27    85.417458 
   28350     216.8933    67.280817    132006.92   -40596.521    2639.0854   -43235.606    85.534932 
   28400    217.04686    35.830546    131964.45   -40594.401    2640.9538   -43235.355    85.430719 
   28450    214.84225    25.000691    131920.29   -40630.409    2614.1289   -43244.538     85.92839 
   28500    213.27516   -120.57833    131902.32   -40675.846    2595.0611   -43270.907    86.152836 
   28550      214.571    26.553201    131732.48   -40678.031    2610.8284    -43288.86    86.394163 
   28600    211.75221    55.860705    131704.18   -40675.782    2576.5303   -43252.312     86.57932 
   28650    213.16795   -96.101439    131529.37    -40669.64    2593.7566   -43263.397    86.688178 
   28700    217.31784    119.52999    131559.85   -40620.905    2644.2511   -43265.156    86.762703 
   28750    217.95358    153.20611       131661   -40607.267    2651.9865   -43259.253    86.845541 
   28800    218.20903    70.936664    131596.09   -40576.423    2655.0948   -43231.517    87.039665 
   28850    214.85241   -49.698894    131693.13   -40580.929    2614.2526   -43195.181    87.224112 
   28900    215.81525   -18.213988    131630.06   -40572.969     2625.968   -43198.937     87.34064 
   28950    217.34088   -198.50738    131667.53   -40578.797    2644.5314   -43223.328    87.509613 
   29000    213.27845   -145.47329    131600.48   -40599.533     2595.101   -43194.634    87.595154 
   29050     215.6003     -117.057       131589   -40588.711    2623.3526   -43212.064    87.691733 
   29100    213.66115    209.93869    131597.77    -40583.44    2599.7576   -43183.197    87.873594 
   29150    217.95601    109.87104    131666.18   -40549.426     2652.016   -43201.442    87.692415 
   29200    216.09784    112.01388    131648.67   -40524.035    2629.4065   -43153.442    87.841493 
   29250    216.49623   -59.291886    131789.53   -40496.054     2634.254   -43130.308    88.171644 
   29300    218.42301    112.82253    131739.55   -40508.654    2657.6983   -43166.352    88.282964 
   29350    218.80493    50.722191    131609.61   -40491.539    2662.3454   -43153.884    88.437326 
   29400     219.0964    13.280694    131643.81    -40494.57    2665.8919   -43160.462    88.533737 
   29450    217.38867   -152.62711    131763.48   -40468.817    2645.1129    -43113.93     88.77716 
   29500    215.52997  -0.54505571     131790.4   -40477.935    2622.4968   -43100.432    88.889234 
   29550    217.16899   -80.039906    131608.96   -40485.928    2642.4398   -43128.368    88.934074 
   29600    223.55718      50.4483    131558.68   -40468.588    2720.1692   -43188.757    88.960212 
   29650    217.20054     31.28326    131480.49   -40497.876    2642.8238     -43140.7    89.171716 
   29700     219.6437   -192.32928    131387.37   -40557.425    2672.5513   -43229.976    89.471116 
   29750    217.12355    114.65352    131352.19   -40536.389    2641.8869   -43178.276    89.333317 
   29800    218.98947      92.1831    131485.84   -40533.348    2664.5909   -43197.939     89.42241 
   29850     209.0197   -80.813363    131573.95   -40565.683     2543.282   -43108.965     89.67663 
   29900    216.60271   -111.79101    131692.21    -40504.02    2635.5496    -43139.57    89.973019 
   29950    213.13042   -43.509087    131675.81   -40548.761    2593.2999   -43142.061    90.135541 
   30000    214.80159     10.78368    131457.18   -40522.573    2613.6342   -43136.207    90.303862 
   30050    217.76625    31.297463    131436.76   -40491.379    2649.7071   -43141.086    90.488655 
   30100    211.71976    174.61125    131474.63   -40513.699    2576.1354   -43089.835    90.819625 
   30150    218.02978     -52.3888    131637.61   -40481.872    2652.9137   -43134.786     90.98553 
   30200     216.4978   -32.085539    131596.58   -40511.408    2634.2731   -43145.681     91.16229 
   30250    219.95858   -31.317534    131501.67   -40446.686    2676.3827   -43123.068    91.363512 
   30300    217.09399    3.7381848    131454.75   -40451.609    2641.5273   -43093.137    91.718566 
   30350    220.03544    75.495564     131563.8   -40510.736    2677.3178   -43188.054    92.081136 
   30400    214.39956    -28.59834    131619.82   -40560.737    2608.7424    -43169.48    92.148943 
   30450    216.45357    -72.75414    131539.64   -40558.486    2633.7349   -43192.221    92.186589 
   30500    215.68156    194.09835    131740.87   -40561.433    2624.3413   -43185.775    92.177189 
   30550     216.5615   -65.934276    131846.64    -40557.89    2635.0481   -43192.938    92.218151 
   30600    212.52943   -55.715258    131773.92   -40541.397    2585.9872   -43127.384    92.339824 
   30650    212.11919    4.7600895    131754.61   -40552.473    2580.9955   -43133.468     92.60645 
   30700    217.60097   -51.039865    131597.14   -40555.954     2647.696    -43203.65    92.365503 
   30750    218.79747    11.621585    131691.29   -40558.486    2662.2547    -43220.74    92.593326 
   30800    211.74518    11.913691    131689.59   -40604.557    2576.4448   -43181.002    92.775162 
   30850    215.86949    78.137037    131821.54   -40587.189     2626.628   -43213.817    93.096955 
   30900    216.78125   -49.163296    131784.64   -40566.457     2637.722   -43204.179    93.509228 
   30950    215.54917    111.14817    131784.09   -40565.508    2622.7304   -43188.238    93.533508 
   31000    215.16624   -68.243619    131915.31   -40533.576    2618.0711   -43151.647      93.6905 
   31050    216.39366   -48.622237    131689.35    -40550.13     2633.006   -43183.136    93.756959 
   31100     216.7524   -124.48235    131651.87   -40564.774    2637.3709   -43202.145    93.820561 
   31150    215.08043    113.51201    131649.56   -40608.238    2617.0269   -43225.265    94.255215 
   31200    215.19338    15.046042    131692.41   -40615.616    2618.4013   -43234.018    94.444969 
   31250    216.65997   -14.330148    131783.32   -40588.414    2636.2463    -43224.66    94.526568 
   31300    214.60337   -143.11308    131641.19   -40558.504    2611.2223   -43169.727    94.606496 
   31350    216.59012   -150.08583    131432.19   -40558.485    2635.3964   -43193.882    94.575249 
   31400     214.4667   -154.66862    131448.11   -40550.725    2609.5593   -43160.284    94.525967 
   31450    217.37448    113.39092    131505.71   -40563.124    2644.9402   -43208.064    94.665605 
   31500    217.52679     29.29471    131606.09   -40495.949    2646.7934   -43142.742    95.212128 
   31550    213.36158   -34.794869    131524.32   -40561.342    2596.1126   -43157.454    95.227113 
   31600    219.93596   -90.478703    131491.43   -40520.031    2676.1075   -43196.138    95.203006 
   31650    221.16157    28.349023    131415.33   -40467.666    2691.0202   -43158.686    95.466731 
   31700    219.86426    23.942566    131429.28    -40460.36     2675.235   -43135.595    95.814728 
   31750    217.73532   -70.874588    131423.06   -40453.839    2649.3308    -43103.17     96.05237 
   31800    212.98361   -124.17364    131390.64   -40543.405    2591.5136   -43134.919    95.966457 
   31850    219.50565    32.626342    131459.17   -40494.567    2670.8716   -43165.439    96.208276 
   31900    220.97831   -152.20634    131464.21   -40492.664    2688.7905   -43181.454    96.328511 
   31950    215.54144    25.065041    131451.87   -40558.017    2622.6364   -43180.654    96.370409 
   32000    215.38905    3.0571431    131344.66   -40571.757    2620.7822   -43192.539    96.372317 
   32050    216.39895 -0.090157341    131334.04   -40571.536    2633.0702   -43204.606    96.422811 
   32100    216.32621   -14.419832    131272.34   -40585.552    2632.1852   -43217.737    96.699837 
   32150     214.7653     142.1999    131338.52   -40572.672    2613.1926   -43185.865    96.604341 
   32200     211.5992    73.393673    131360.09   -40564.614    2574.6686   -43139.283    96.740656 
   32250    215.16734   -48.075402    131350.62   -40526.236    2618.0845   -43144.321    96.938496 
   32300    216.82665    33.506624    131444.96   -40514.602    2638.2744   -43152.877    96.938856 
   32350    214.34208   -57.235083     131338.2   -40470.241    2608.0429   -43078.284    96.893118 
   32400    220.40988    -137.5627    131181.07   -40464.005    2681.8739   -43145.879    96.988727 
   32450    214.38634    145.15153    131228.12   -40533.228    2608.5816    -43141.81    96.965193 
   32500    215.01178    83.891534    131230.74   -40560.903    2616.1917   -43177.094    97.271068 
   32550    213.17285    58.311869    131462.75   -40533.328    2593.8161   -43127.144    97.557624 
   32600    214.32653    64.013202    131529.45   -40534.457    2607.8538    -43142.31    97.639619 
   32650     216.1612   -76.074127    131418.64   -40573.452    2630.1774    -43203.63    98.092979 
   32700     209.6935   -110.06575    131322.22   -40626.068    2551.4806   -43177.548    98.071302 
   32750    212.85637    107.49066    131284.86   -40699.247    2589.9653   -43289.212    98.268835 
   32800    214.42492   -67.243561    131363.82   -40641.381     2609.051   -43250.432    98.573039 
   32850    211.84364   -146.33135    131255.26   -40649.274    2577.6428   -43226.917    98.907349 
   32900    216.32361    60.478393    131228.25   -40608.846    2632.1536   -43240.999    99.050333 
   32950    215.24407     57.23553    131411.02    -40602.15    2619.0181   -43221.168    99.459687 
   33000    216.50323    51.060666    131513.86   -40628.847    2634.3391   -43263.186    99.703507 
   33050    211.91536    16.485239    131615.34   -40633.746    2578.5155   -43212.262    100.08385 
   33100    215.13212   -92.367314    131679.68   -40649.199    2617.6559   -43266.855    100.25353 
   33150    212.63297   -142.61853    131439.19   -40646.076    2587.2471   -43233.323    100.42278 
   33200    214.59372   -106.66319    131274.43   -40670.952    2611.1049   -43282.057    100.37667 
   33250    211.18524    7.3516471    131310.66   -40673.944    2569.6316   -43243.576    100.36145 
   33300    210.30893    206.89491    131409.28   -40679.348     2558.969   -43238.317    100.25861 
   33350    212.70148    39.590615    131616.19   -40644.005    2588.0807   -43232.086    100.61591 
   33400    213.09077    13.830772    131538.66   -40681.327    2592.8174   -43274.144    100.66884 
   33450    213.88493    3.0015296    131514.39   -40723.552    2602.4805   -43326.032    100.66494 
   33500    210.07678   -156.94808    131474.81   -40729.218    2556.1443   -43285.362    100.64507 
   33550    215.16161    123.58381    131484.98   -40694.721    2618.0147   -43312.736    100.78053 
   33600    216.48786    49.267667    131584.49   -40677.392    2634.1521   -43311.544    101.13997 
   33650    212.46435    200.37677    131606.35   -40685.374    2585.1954   -43270.569    101.34275 
   33700    210.91543   -82.357461    131667.73   -40691.252    2566.3487   -43257.601    101.63275 
   33750    211.83279   -124.40398    131589.83   -40671.548    2577.5107   -43249.059    101.39635 
   33800    214.77391    248.04234     131581.6   -40609.886    2613.2974   -43223.183    101.52866 
   33850    218.05366   -85.341815    131708.96   -40546.672    2653.2042   -43199.876    101.63906 
   33900    217.06917   -7.3627045    131826.87   -40554.814    2641.2254   -43196.039    101.70235 
   33950    216.10879    -144.9295    131766.14   -40541.104    2629.5398   -43170.644     102.1724 
   34000    214.68879   -10.032513    131688.19    -40599.97    2612.2616   -43212.231     102.3583 
   34050    215.76304    106.52465    131699.11   -40533.345    2625.3328   -43158.678    102.63798 
   34100    218.99896   -0.9674448    131799.64   -40501.949    2664.7063   -43166.655     102.9996 
   34150    213.84542   -78.876036    131729.93    -40528.18    2601.9998    -43130.18    103.35329 
   34200    217.84518   0.68836218    131667.99   -40521.539    2650.6675   -43172.207    103.37781 
   34250    217.33985   -30.124099    131710.17   -40478.516    2644.5188   -43123.035    103.65925 
   34300    213.45632   -129.20087    131588.07   -40566.987    2597.2653   -43164.253    103.80475 
   34350    216.83569    61.020293    131705.96   -40591.817    2638.3844   -43230.201    104.10262 
   34400    209.28955    17.812403    131635.12   -40632.952    2546.5655   -43179.518     104.4405 
   34450    219.96436    206.76408    131834.48   -40583.245     2676.453   -43259.698    104.45569 
   34500     213.3344    11.412645    131848.72   -40612.215    2595.7818   -43207.997    104.35087 
   34550    215.19534    45.592605    131943.94   -40640.075    2618.4251     -43258.5    104.29946 
   34600    220.29136    -66.37106    131871.52   -40637.781    2680.4318   -43318.213    104.43389 
   34650    217.82201   -112.30933    131960.01   -40613.169    2650.3856   -43263.554    104.70653 
   34700    220.50805   -71.790041    131837.11     -40604.8    2683.0685   -43287.868    104.47691 
   34750     216.6823   -8.9130909    131895.73   -40586.543     2636.518   -43223.061    104.83431 
   34800    214.69058    10.939187    131792.17   -40594.296    2612.2834    -43206.58    105.05543 
   34850    213.76886   -45.314204    131793.37   -40616.136    2601.0682   -43217.204    105.18154 
   34900    209.81418    87.490323    131785.41   -40620.143    2552.9489   -43173.092    105.19759 
   34950    214.07152    11.423334    131923.72   -40608.649    2604.7509     -43213.4    105.48286 
   35000    213.83806    134.26893    131980.95   -40591.994    2601.9102   -43193.904    105.50964 
   35050    213.08739    86.182961    132080.07   -40583.614    2592.7763   -43176.391    105.75365 
   35100    217.56121   -162.01241    132147.92    -40560.89    2647.2123   -43208.102    105.68834 
   35150    215.69419    -63.96689    131979.33   -40543.517     2624.495   -43168.012    105.83913 
   35200    212.79517    65.378345    131851.86   -40592.604    2589.2207   -43181.825    106.07459 
   35250    216.40601   -129.44359    131734.52   -40604.326    2633.1562   -43237.482    106.16136 
   35300    215.92088    8.5175568    131756.49    -40626.27    2627.2533   -43253.523    106.52217 
   35350    216.13999    159.36805    131777.01   -40628.709    2629.9193   -43258.628    106.86105 
   35400    215.92254    98.333105    131848.74   -40596.435    2627.2735   -43223.709    106.94041 
   35450    213.57451   -75.835353    131851.37   -40585.776    2598.7035    -43184.48    106.92598 
   35500    216.02546    -3.214851    131732.81   -40544.745    2628.5258    -43173.27    107.20781 
   35550    214.43708    1.4871714    131658.81   -40569.093    2609.1989   -43178.292    107.24597 
   35600    214.24923   -16.943098    131638.67   -40541.667    2606.9132    -43148.58    107.45308 
   35650    209.65479     142.7017    131701.99   -40527.391    2551.0096   -43078.401    107.61772 
   35700    217.83469   -42.062182    131624.32   -40569.915    2650.5398   -43220.455    107.73532 
   35750    217.00187   -48.477093    131585.65   -40576.658    2640.4064   -43217.064    107.65643 
   35800    210.93119    26.865755    131546.91   -40631.273    2566.5403   -43197.813    107.92016 
   35850     212.3551   -26.471342    131687.38   -40569.045    2583.8661   -43152.911    108.22413 
   35900    217.03497   -47.307581     131640.7   -40545.019    2640.8091   -43185.828    108.42557 
   35950    212.49852   -60.446751    131718.96   -40600.171    2585.6112   -43185.782    108.39764 
   36000    218.60072   -88.388268    131682.19   -40524.058    2659.8607   -43183.919    108.44258 
   36050    213.38366    -31.09678    131532.49   -40561.128    2596.3812   -43157.509    108.31247 
   36100    217.49114   -73.105543    131420.66   -40533.303    2646.3597   -43179.662     108.5165 
   36150    216.66772    61.421506    131452.65   -40607.222    2636.3406   -43243.563    108.50548 
   36200    217.96025    5.5220546    131666.58   -40550.637    2652.0676   -43202.705    108.80485 
   36250    213.68633   -45.565649    131753.13   -40572.758     2600.064   -43172.822    108.80842 
   36300     214.6187    70.962115    131686.73   -40570.192    2611.4088   -43181.601    108.75519 
   36350    211.93909   -46.976371    131658.68   -40554.706    2578.8042    -43133.51    108.78225 
   36400      212.293   -73.172184    131561.79   -40535.543    2583.1104   -43118.653    108.88395 
   36450    210.93025    209.26074    131634.46   -40495.153    2566.5289   -43061.682    109.17774 
   36500    216.72806   -34.364203    131632.88   -40468.922    2637.0748   -43105.997    109.36647 
   36550    215.78434   -96.099245     131632.1   -40428.406    2625.5919   -43053.998    109.61076 
   36600    213.52186   -49.570842    131631.91   -40452.749    2598.0628   -43050.811    109.86356 
   36650    213.64528   -55.273892    131481.82    -40493.37    2599.5646   -43092.934    110.11601 
   36700    213.09573    63.127266     131484.2   -40521.277    2592.8778   -43114.155    110.29722 
   36750     212.7815    60.565769    131662.43   -40527.867    2589.0544   -43116.921    110.84906 
   36800    215.10437    16.199988    131597.21   -40506.438    2617.3183   -43123.756    111.25371 
   36850    215.71369    155.86362       131633   -40490.517    2624.7322   -43115.249    111.61093 
   36900    211.20934   -76.169001    131737.27    -40522.85    2569.9248   -43092.774    111.98864 
   36950    210.69156   -135.25081    131646.18   -40557.345    2563.6246   -43120.969    112.02002 
   37000    211.91775    39.904981    131554.43   -40523.679    2578.5446   -43102.224    112.14452 
   37050    211.94824    156.87954    131581.15   -40540.084    2578.9156       -43119    112.20156 
   37100    213.85393    78.863714    131728.85   -40482.017    2602.1034    -43084.12    112.28468 
   37150    215.05157    186.96236    131810.62   -40551.828    2616.6758   -43168.504    112.45801 
   37200    213.24483   -138.58733    131862.47   -40586.953     2594.692   -43181.645    112.72856 
   37250    211.45716   -90.248084    131765.95   -40687.245    2572.9402   -43260.185    112.95967 
   37300    209.81543   -28.992536    131697.82   -40651.088    2552.9643   -43204.052     113.1236 
[...]
  191000    206.94854    48.970264    131465.36   -40812.987    2518.0808   -43331.067    535.36812 
  191050    214.30855   -17.169452    131564.47   -40744.928     2607.635   -43352.563    535.77952 
  191100    209.85291    5.3723401     131583.6   -40804.137    2553.4202   -43357.557    536.19339 
  191150    213.81652    15.139763    131619.49   -40804.975    2601.6481   -43406.623    536.36192 
  191200    215.51517    45.540435    131659.58   -40726.187    2622.3168   -43348.504    536.66307 
  191250    208.67653    59.503594    131856.94   -40735.243    2539.1064    -43274.35    537.24162 
  191300    212.41482    106.33604    131781.21   -40720.448    2584.5927    -43305.04     536.9436 
  191350    214.39995   -138.21049    131732.83   -40693.607    2608.7472   -43302.355    536.48427 
  191400    212.85202    83.633983    131858.68   -40665.957    2589.9125    -43255.87    537.10468 
  191450     210.7495    114.47341       131831   -40690.529    2564.3296   -43254.859    537.05825 
  191500     211.2672   -161.03575    131768.15    -40628.59    2570.6288   -43199.219     537.2719 
  191550    212.21581    43.429773    131624.55   -40647.096    2582.1712   -43229.267    537.03046 
  191600    213.59546     99.59744    131626.17   -40675.589    2598.9583   -43274.547    536.88621 
  191650    214.41124   -26.423865    131621.87   -40676.308    2608.8844   -43285.192    537.23995 
  191700    213.91488   -61.390623    131666.12   -40673.667    2602.8449   -43276.512    537.39212 
  191750    212.85191   -129.86699    131619.78   -40670.856    2589.9111   -43260.767    537.19299 
  191800    211.20933    9.2401331    131371.71   -40728.094    2569.9247   -43298.019    536.87034 
  191850    206.83168    143.25523    131409.19    -40695.78    2516.6589   -43212.439    536.95009 
  191900    212.47685     99.47895    131490.58   -40648.603    2585.3475   -43233.951    537.12935 
  191950    211.49239    59.011103    131493.21   -40674.931    2573.3689     -43248.3    536.95164 
  192000    211.51966    4.4840108    131443.49   -40713.736    2573.7007   -43287.436    536.90986 
  192050    213.99935    37.317361    131355.94   -40731.635    2603.8728   -43335.508    536.42581 
  192100    212.94984     88.90253     131416.5   -40730.929    2591.1027   -43322.032    536.87436 
  192150    211.52189   -88.311179     131477.7   -40704.222    2573.7278   -43277.949    536.69534 
  192200    211.42326    -126.7119    131431.23   -40650.566    2572.5278   -43223.094    537.52625 
  192250    214.43177    121.24085    131433.15    -40585.44    2609.1343   -43194.574    538.02678 
  192300    215.22631    174.50332    131569.73   -40601.281    2618.8019   -43220.083     538.3006 
  192350    217.19373   -163.83176     131480.2    -40531.95    2642.7409   -43174.691    538.34672 
  192400    219.09339    67.837048    131374.01    -40535.56    2665.8554   -43201.415    538.38325 
  192450      219.442   -61.614939    131523.18   -40506.547    2670.0971   -43176.644    538.75406 
  192500     216.6365   -5.6913206     131560.7   -40512.443    2635.9608   -43148.404    539.49219 
  192550      222.098    44.717322    131587.52   -40517.762    2702.4144   -43220.176    540.18487 
  192600    218.17746    97.143305    131555.53   -40542.797    2654.7106   -43197.508    540.16365 
  192650    218.21154   -218.83134    131531.63   -40600.657    2655.1253   -43255.782    540.61072 
  192700    215.26027    100.08867    131610.64   -40595.205    2619.2152   -43214.421    540.77087 
  192750    214.09887   -115.85944     131650.9   -40601.574    2605.0837   -43206.658    541.10077 
  192800    211.90063   -139.99455    131592.47   -40630.465    2578.3363   -43208.801    541.18685 
  192850    211.34048   -4.1320658    131492.89   -40677.978    2571.5205   -43249.498    540.82282 
  192900    211.97348    19.558967    131397.49   -40669.065    2579.2226   -43248.288    540.84128 
  192950     212.3362   -72.408596    131354.63   -40629.936    2583.6361   -43213.572    541.06246 
  193000    216.43873   -99.467749    131261.28    -40648.04    2633.5543   -43281.594    540.59683 
  193050    213.71183    108.15767    131216.55   -40695.007    2600.3744   -43295.382    540.61065 
  193100    212.24355    83.839874    131275.14   -40727.195    2582.5088   -43309.704    540.85712 
  193150    211.64332    -49.21788    131324.62   -40684.631    2575.2054   -43259.837    541.19363 
  193200    214.29377    35.851448     131358.1   -40668.944    2607.4552   -43276.399    541.43098 
  193250    218.65582   -31.758558    131287.19   -40639.617    2660.5311   -43300.148    541.23245 
  193300     218.8792     94.91475    131466.77   -40594.804    2663.2491   -43258.053    541.30069 
  193350     216.6836    145.49126    131551.94   -40608.559    2636.5338   -43245.093    541.86285 
  193400    219.57881   -16.261314    131474.14   -40575.935    2671.7618   -43247.697    541.64566 
  193450    216.65832    23.432179    131535.93   -40612.285    2636.2262   -43248.511    541.51761 
  193500     216.9792   -168.40037    131621.88   -40622.774    2640.1305   -43262.904    541.90211 
  193550     218.1214    194.39938    131584.94   -40596.974    2654.0285   -43251.003     542.6045 
  193600    219.70546    82.295089    131759.26   -40591.191    2673.3028   -43264.494    543.21081 
  193650    215.33239    151.66437     131811.4   -40633.775    2620.0927   -43253.868    543.22757 
  193700    216.20237    1.2003223    131891.62   -40643.188    2630.6783   -43273.867    544.22265 
  193750    214.25295    9.9773392    131938.77   -40655.237    2606.9584   -43262.195    544.08014 
  193800    214.71083    -228.0981    131823.62   -40648.042    2612.5298   -43260.572     543.2973 
  193850    215.80643   -66.355811    131808.04   -40644.374    2625.8607   -43270.235    543.37707 
  193900    214.45717    23.007913    131721.17   -40678.908    2609.4434   -43288.352    543.67907 
  193950    214.21547   -33.086781    131548.91   -40671.669    2606.5024   -43278.171    543.45912 
  194000    216.55414    160.20711    131518.08   -40663.984    2634.9585   -43298.943    543.55849 
  194050    216.86033    131.07714    131630.13   -40618.499    2638.6842   -43257.183    543.73091 
  194100    213.17327   -154.89562    131425.34   -40661.203    2593.8213   -43255.024    543.44391 
  194150     209.8384    191.43456    131258.67   -40685.759    2553.2437   -43239.003    543.13926 
  194200    213.91831    98.768718    131402.46   -40642.992    2602.8867   -43245.879     543.9928 
  194250    216.29121    -65.11388    131488.62   -40604.714    2631.7593   -43236.473    544.24169 
  194300    214.01331    48.087216    131579.19   -40599.958    2604.0426   -43204.001    544.22327 
  194350    217.29544   -70.135337    131583.26   -40634.146    2643.9785   -43278.124    544.06341 
  194400    215.52409   -118.84753    131388.64   -40645.441    2622.4253   -43267.866    543.65212 
  194450    212.70212    229.41411    131251.23   -40649.751    2588.0885    -43237.84     543.3525 
  194500    213.45034    137.21581    131350.03   -40703.337    2597.1926   -43300.529    543.60235 
  194550    217.36564    23.020331    131552.78   -40615.258    2644.8327   -43260.091    544.24093 
  194600    213.63849    81.455091    131576.15   -40634.908    2599.4819    -43234.39    544.46687 
  194650    212.73549    91.213979    131580.54   -40602.043    2588.4945   -43190.538    544.92643 
  194700     218.0358   -90.737463    131605.01   -40571.638    2652.9869   -43224.625    544.90815 
  194750    215.77627    24.815004    131573.21    -40569.75    2625.4937   -43195.243    544.69768 
  194800    215.14451   -80.327163    131599.58   -40606.529    2617.8066   -43224.336    545.00152 
  194850    215.25776    19.136942    131508.89   -40582.618    2619.1846   -43201.803    544.53788 
  194900    216.18822    20.618977    131514.75   -40567.301    2630.5062   -43197.807    545.04955 
  194950    219.04377    53.596408    131508.16   -40583.851    2665.2516   -43249.103    544.78923 
  195000    209.68366   -23.805452    131391.31   -40640.838    2551.3609   -43192.199    544.80027 
  195050    213.53158    34.039569    131505.78   -40620.585    2598.1811   -43218.766     545.2322 
  195100    217.15043   -221.76176    131414.72   -40596.036    2642.2141   -43238.251    545.39289 
  195150    214.15336     54.89868    131212.22     -40615.7    2605.7466   -43221.447    544.85125 
  195200    216.35324    157.73731    131361.25   -40635.926    2632.5141    -43268.44    544.84824 
  195250    212.74217    58.298846    131451.05   -40638.291    2588.5758   -43226.866    545.00862 
  195300    212.97347    -121.4304    131539.88   -40638.561    2591.3902   -43229.951    545.37477 
  195350    218.42351   -20.705922    131450.18   -40595.432    2657.7045   -43253.136    545.54999 
  195400    220.86481   -116.17305    131420.92   -40597.643    2687.4094   -43285.052    546.10651 
  195450    215.23308    120.75899    131373.16   -40572.745    2618.8844    -43191.63     545.8471 
  195500     216.2104   -55.794372    131401.61   -40595.302    2630.7761   -43226.078    546.27651 
  195550    214.72413   -65.521955    131364.67   -40611.697    2612.6916   -43224.389    546.44647 
  195600    220.43792    8.8077059    131330.04   -40589.603    2682.2151   -43271.818    546.59368 
  195650    214.47179    41.802441    131488.74    -40613.16    2609.6212   -43222.781    547.10263 
  195700    212.12704   -19.799362    131633.56   -40661.535    2581.0911   -43242.626    547.96965 
  195750    215.45101   -44.965802    131560.49   -40622.867    2621.5361   -43244.403    547.69695 
  195800    217.58391   -26.370534    131673.24   -40601.088    2647.4885   -43248.576    547.90312 
  195850    211.70565   -50.685298    131793.81   -40649.948    2575.9638   -43225.912    548.37811 
  195900    214.45274    30.540418    131771.03   -40636.648    2609.3894   -43246.038    548.63506 
  195950     218.4538    99.638616     131979.2   -40590.621    2658.0731   -43248.694    549.14091 
  196000    213.68811   -78.857056    131997.82   -40560.239    2600.0857   -43160.325    549.12021 
  196050    216.19288      -25.071    132047.84   -40619.761    2630.5628   -43250.324     549.2349 
  196100    219.82633    110.16578    131909.75   -40602.353    2674.7735   -43277.126    548.59692 
  196150    219.90907   -31.092648    131902.52   -40528.737    2675.7802   -43204.517    549.28031 
  196200    215.64595    148.18895    131860.34   -40592.035     2623.908   -43215.943    548.91908 
  196250    218.46918    121.15974    132013.23   -40567.602    2658.2602   -43225.862    549.65655 
  196300    216.92477   -22.681664    131994.85   -40574.508    2639.4683   -43213.977     549.6262 
  196350     211.4051   -25.488363    131960.05   -40600.277    2572.3068   -43172.584    549.80776 
  196400    216.84294   -103.88527    131974.55   -40589.922    2638.4726   -43228.394     550.3766 
  196450    217.87603   -127.43829    131841.44   -40610.942    2651.0429   -43261.985    550.17921 
  196500    215.46672   -19.991265    131934.97   -40633.768    2621.7272   -43255.495    550.22013 
  196550    217.58481    155.08358    132100.82    -40608.33    2647.4994   -43255.829    551.30352 
  196600    208.40454   -156.40292     132023.5   -40640.183     2535.797    -43175.98    551.13577 
  196650    212.72962    18.447062    131985.56   -40690.506    2588.4231   -43278.929    551.81479 
  196700    207.67979   -79.059941    131944.33   -40736.132    2526.9784   -43263.111    551.65868 
  196750    210.47578   -29.069818    131906.57   -40726.551    2560.9992    -43287.55    550.91033 
  196800    213.90521    89.445875    131944.76   -40649.159    2602.7273   -43251.886    550.97529 
  196850    214.85857    14.647179    132041.22   -40642.502    2614.3274   -43256.829    551.63613 
  196900    216.84492   -91.717729    131966.54   -40585.928    2638.4967   -43224.424    551.23624 
  196950    221.48932   -59.784984    131844.44   -40593.438    2695.0083   -43288.446    551.50736 
  197000    214.88377    75.085464    131699.64   -40652.554    2614.6341   -43267.188    551.41767 
  197050    215.61674   -98.903058    131698.04   -40607.017    2623.5526    -43230.57    551.77461 
  197100    217.87423    62.363521    131665.27   -40633.208     2651.021   -43284.229    550.99815 
  197150    212.21692    35.998452    131691.89   -40601.826    2582.1848   -43184.011    551.06935 
  197200     216.2207    20.350207    131785.14   -40577.917    2630.9014   -43208.818    551.52635 
  197250      219.543   -143.93968    131730.16   -40552.484    2671.3261    -43223.81    551.58177 
  197300    215.33857   -128.59202    131598.03   -40606.322    2620.1679    -43226.49    551.50739 
  197350    214.12033    154.63844    131618.69     -40619.7    2605.3448   -43225.045    551.67909 
  197400    210.74575   -114.59995     131630.9   -40643.299     2564.284   -43207.583    551.62295 
  197450    213.63414    -94.44832    131492.37   -40641.445     2599.429   -43240.874    551.41974 
  197500    213.99567   -135.30041    131449.28   -40665.422     2603.828    -43269.25     551.4631 
  197550    212.33845    53.032211    131281.16    -40640.08    2583.6634   -43223.743    551.27126 
  197600    216.64185   -18.909848    131304.33   -40640.829    2636.0259   -43276.855    551.40714 
  197650    214.04927    -48.61414    131460.49   -40602.596    2604.4802   -43207.076    552.26507 
  197700    217.64666     51.03993    131401.56   -40564.054     2648.252   -43212.306    552.30008 
  197750    220.57875   -32.052348    131544.81   -40556.006    2683.9287   -43239.935    552.22884 
  197800    219.32192   -121.71177    131440.47    -40529.65    2668.6361   -43198.286    552.39543 
  197850    219.66921    50.859133    131654.36   -40481.531    2672.8617   -43154.393     553.3103 
  197900    217.20062   -29.282592    131710.89   -40511.297    2642.8247   -43154.121    553.15062 
  197950    215.50228    123.37338    131850.66    -40556.86      2622.16    -43179.02    553.60711 
  198000    219.08319   -4.5827817    131803.74   -40575.253    2665.7312   -43240.984    554.22102 
  198050    213.00918   -61.671422    131600.85   -40640.887    2591.8247   -43232.712    553.79234 
  198100    214.21293    169.53866    131570.45   -40632.636    2606.4715   -43239.107    554.22811 
  198150    213.87896     126.0029    131711.83   -40680.183    2602.4079   -43282.591    554.83518 
  198200    210.22047   -50.959852    131722.03    -40701.05    2557.8926   -43258.942    554.09262 
  198250    207.90462    135.12631    131714.35   -40730.201    2529.7142   -43259.915    554.04895 
  198300    211.94952    137.33696    131715.92   -40708.591    2578.9311   -43287.522    554.37361 
  198350    209.42125    104.39407    131810.57    -40714.77     2548.168   -43262.938    554.93172 
  198400    216.75082   -132.95641    131662.06   -40684.269    2637.3517   -43321.621    554.52165 
  198450    214.11296   -18.915599     131723.6   -40715.363    2605.2551   -43320.618    554.87168 
  198500    215.06471   -93.463177    131685.79   -40732.343    2616.8357   -43349.178    554.65513 
  198550    212.77409    27.972951    131667.32   -40705.922    2588.9642   -43294.886    554.35824 
  198600    215.04384   -12.293821    131764.45    -40694.65    2616.5817   -43311.232    555.22157 
  198650    218.29169   -72.962099    131775.07   -40703.541    2656.1005   -43359.642    555.20959 
  198700     217.4449   -36.139142    131631.32   -40685.528     2645.797   -43331.325    555.22305 
  198750    213.03518    245.67726    131796.02   -40670.838    2592.1411   -43262.979    555.99078 
  198800    214.96309   -99.402937    131813.55   -40700.552    2615.5993   -43316.152    556.24309 
  198850    217.59151    93.402599    131813.58   -40665.905     2647.581   -43313.486    556.59424 
  198900    215.38608   -132.18267    131797.92    -40664.39     2620.746   -43285.136    556.74846 
  198950    216.55808    -7.402643    131781.41   -40649.633    2635.0065   -43284.639    556.53668 
  199000    214.42401   -118.90488    131700.61   -40665.116    2609.0399   -43274.156    556.84026 
  199050    217.46989    278.32118    131843.52   -40618.383    2646.1011   -43264.484    557.99734 
  199100    217.17653   -90.893491    131910.43    -40589.55    2642.5316   -43232.081    557.83012 
  199150    217.50923   -17.913086     131851.1   -40547.283    2646.5798   -43193.862     557.6997 
  199200    217.78621   -143.00133    131828.59   -40534.381    2649.9499   -43184.331     557.4936 
  199250    213.59394    20.212871    131835.47   -40521.438    2598.9399   -43120.378    557.44569 
  199300    218.42501    196.74274    131958.44    -40494.53    2657.7227   -43152.253    558.19334 
  199350    215.05035    -41.39926    131996.08   -40528.673     2616.661   -43145.334    558.00626 
  199400    216.94568   -247.88481     131999.5   -40564.788    2639.7227   -43204.511    558.45333 
  199450     221.3811   -352.06747    131722.35   -40516.109    2693.6915     -43209.8    558.41361 
  199500    219.49275    74.065591    131592.23   -40534.087    2670.7147   -43204.801    557.91396 
  199550    218.62353    9.0722543    131644.02    -40584.68    2660.1383   -43244.818    557.79971 
  199600    215.59913    70.534323     131773.1   -40611.993    2623.3383   -43235.331    558.95354 
  199650     222.0552   -66.376719    131696.17   -40590.691    2701.8937   -43292.585    558.87127 
  199700    221.60215    56.335642    131750.02    -40581.37    2696.3811   -43277.751    558.69266 
  199750    216.89312     7.368706    131741.62   -40577.196    2639.0831   -43216.279    558.52813 
  199800    220.91185    224.40439    131731.07    -40584.99    2687.9817   -43272.972    558.75764 
  199850    219.53367     6.770677     131859.8    -40585.08    2671.2126   -43256.292     559.4343 
  199900    219.70014     43.89884    131812.07   -40596.262     2673.238     -43269.5    559.58464 
  199950    213.88289   -158.14583    131770.32   -40618.294    2602.4557    -43220.75    559.88839 
  200000    222.65327    56.998628    131838.86   -40609.252    2709.1707   -43318.423    559.97045 
Loop time of 337.879 on 12 procs for 200000 steps with 4083 atoms

Performance: 255.713 ns/day, 0.094 hours/ns, 591.927 timesteps/s
99.5% CPU use with 12 MPI tasks x no OpenMP threads

MPI task timing breakdown:
Section |  min time  |  avg time  |  max time  |%varavg| %total
---------------------------------------------------------------
Pair    | 236.61     | 277.73     | 304.52     | 166.8 | 82.20
Neigh   | 6.1388     | 7.0272     | 7.5714     |  22.7 |  2.08
Comm    | 18.623     | 45.933     | 87.827     | 417.8 | 13.59
Output  | 0.14776    | 0.17236    | 0.42717    |  18.5 |  0.05
Modify  | 5.475      | 5.5574     | 5.658      |   2.4 |  1.64
Other   |            | 1.459      |            |       |  0.43

Nlocal:    340.25 ave 364 max 299 min
Histogram: 2 2 0 0 0 0 0 0 4 4
Nghost:    949.417 ave 985 max 895 min
Histogram: 3 1 0 0 0 0 0 1 3 4
Neighs:    0 ave 0 max 0 min
Histogram: 12 0 0 0 0 0 0 0 0 0
FullNghs:  11091 ave 12023 max 9591 min
Histogram: 2 2 0 0 0 0 0 2 2 4

Total # of neighbors = 133092
Ave neighs/atom = 32.5966
Neighbor list builds = 11814
Dangerous builds = 0

write_data		${DIR}/data.eq-${NAME}-${TEMP}
write_data		run_8/data.eq-${NAME}-${TEMP}
write_data		run_8/data.eq-hardcavity_freeze_8-${TEMP}
write_data		run_8/data.eq-hardcavity_freeze_8-215
undump          1

reset_timestep  0

unfix           2
unfix           3
unfix           4


################################################
#######         Run Simulation         #########
################################################

log				${DIR}/log.run_${NAME}
log				run_8/log.run_${NAME}
log				run_8/log.run_hardcavity_freeze_8
