
### Dimensions ###


### IMPORT ATOMS ###
read_data ../Box_Setup/data.Ibeam_240K
Reading data file ...
  orthogonal box = (0.0000000 0.0000000 0.0000000) to (68.908000 85.848302 27.975384)
  8 by 8 by 2 MPI processor grid
  reading atoms ...
  8493 atoms
  reading velocities ...
  8493 velocities
  read_data CPU = 0.020 seconds
group water type 2
1689 atoms in group water
group graphite type 1
6804 atoms in group graphite


# Define potential
#
pair_style          sw
pair_coeff * * MLC_e.sw C mW

# Add velocity/set timestep
#

fix		1 graphite setforce 0.0 0.0 0.0
velocity 	graphite set 0.0 0.0 0.0
velocity            water create ${START_TEMP} ${SEED} rot yes dist gaussian
velocity            water create 240 ${SEED} rot yes dist gaussian
velocity            water create 240 26289 rot yes dist gaussian
timestep            5.0

# Define output
#
compute 1 water msd
compute 2 water temp


thermo	            100
thermo_style custom step c_2 press vol etotal ke pe c_1[4] density

# Neighbor lists
#
neigh_modify        delay 0 every 1 check yes


# Set fixes
#
fix                 2 water momentum 10 linear 1 1 1 rescale
fix		3 water nvt temp ${START_TEMP} ${START_TEMP} $(100.0*dt)
fix		3 water nvt temp 240 ${START_TEMP} $(100.0*dt)
fix		3 water nvt temp 240 240 $(100.0*dt)
fix		3 water nvt temp 240 240 500

# Run 0.05 ns equilibration
#
dump                1 all custom 100 ${DIR}/eq.${NAME}.dump id type x y z vx vy vz
dump                1 all custom 100 run_4/eq.${NAME}.dump id type x y z vx vy vz
dump                1 all custom 100 run_4/eq.ibeam_cooling_4.dump id type x y z vx vy vz
run                 10000
Neighbor list info ...
  update every 1 steps, delay 0 steps, check yes
  max neighbors/atom: 2000, page size: 100000
  master list distance cutoff = 6.6747184
  ghost atom cutoff = 6.6747184
  binsize = 3.3373592, bins = 21 26 9
  1 neighbor lists, perpetual/occasional/extra = 1 0 0
  (1) pair sw, perpetual
      attributes: full, newton on
      pair build: full/bin/atomonly
      stencil: full/bin/3d
      bin: standard
Per MPI rank memory allocation (min/avg/max) = 3.603 | 4.507 | 4.728 Mbytes
Step c_2 Press Volume TotEng KinEng PotEng c_1[4] Density 
       0          240   -298.97748    165492.15   -16025.669    1207.5858   -17233.255            0    1.1252403 
     100    238.51423   -574.46949    165492.15   -16039.718      1200.11   -17239.828   0.92559632    1.1252403 
     200    239.23128   -541.54868    165492.15   -16087.431    1203.7178   -17291.149    1.4358903    1.1252403 
     300     234.5479   -421.04183    165492.15   -16135.317    1180.1529    -17315.47     1.959048    1.1252403 
     400    237.33043   -485.70202    165492.15   -16118.393    1194.1535   -17312.547    2.2383897    1.1252403 
     500    237.01673   -446.89657    165492.15   -16068.902    1192.5751   -17261.477    2.6953804    1.1252403 
     600    239.20406   -628.13649    165492.15   -16043.827    1203.5809   -17247.408    3.1773247    1.1252403 
     700    237.55967   -371.33508    165492.15   -16034.014     1195.307   -17229.321    3.6269315    1.1252403 
     800    243.27714    -468.1227    165492.15   -16034.013    1224.0751   -17258.088    3.9098828    1.1252403 
     900    241.71763   -519.32926    165492.15   -16067.316    1216.2282   -17283.544    4.3804264    1.1252403 
    1000    235.64413    -382.8186    165492.15   -16118.748    1185.6687   -17304.417    4.7880542    1.1252403 
    1100    238.04919   -608.77349    165492.15   -16110.463    1197.7701   -17308.233    5.2026467    1.1252403 
    1200    245.42729   -451.65182    165492.15   -16062.472    1234.8938   -17297.366    5.5504921    1.1252403 
    1300    245.61968   -565.33318    165492.15   -16048.699    1235.8618   -17284.561    5.8937143    1.1252403 
    1400     238.3416    -561.7132    165492.15   -16053.773    1199.2414   -17253.014    6.3455647    1.1252403 
    1500     245.1081   -482.48756    165492.15   -16050.566    1233.2877   -17283.854     6.794015    1.1252403 
    1600    244.00564   -563.52691    165492.15   -16060.355    1227.7406   -17288.096    7.2365364    1.1252403 
    1700    243.75482   -346.82392    165492.15   -16102.686    1226.4786   -17329.164     7.653488    1.1252403 
    1800     236.3057   -361.50088    165492.15   -16133.724    1188.9975   -17322.722    7.9268019    1.1252403 
    1900    240.09364   -533.77044    165492.15   -16146.252    1208.0569   -17354.309    8.3190562    1.1252403 
    2000    242.45412   -549.41339    165492.15   -16120.476    1219.9339    -17340.41    8.4389752    1.1252403 
    2100    241.21512   -472.38192    165492.15   -16063.911    1213.6998    -17277.61      8.78579    1.1252403 
    2200    243.64924   -551.89376    165492.15   -16064.082    1225.9473   -17290.029     9.252121    1.1252403 
    2300    244.14943   -391.21129    165492.15   -16096.272    1228.4641   -17324.736    9.6516389    1.1252403 
    2400    237.82545   -467.82481    165492.15   -16127.442    1196.6443   -17324.086    9.9082278    1.1252403 
    2500    234.54139   -431.36654    165492.15   -16128.455    1180.1202   -17308.575     10.04826    1.1252403 
    2600    240.57591   -284.74838    165492.15   -16113.812    1210.4835   -17324.296    10.047168    1.1252403 
    2700    239.64157   -312.36812    165492.15   -16094.315    1205.7823   -17300.097    10.173316    1.1252403 
    2800    245.01352   -577.93421    165492.15   -16031.998    1232.8118    -17264.81    10.288728    1.1252403 
    2900    250.06919    -447.5078    165492.15   -16013.212      1258.25   -17271.462    10.674738    1.1252403 
    3000    246.56945   -404.37378    165492.15   -16052.354    1240.6407   -17292.995     10.84181    1.1252403 
    3100    241.40814   -433.75668    165492.15   -16088.331    1214.6709   -17303.002    11.064455    1.1252403 
    3200    241.57735   -422.43947    165492.15   -16100.629    1215.5224   -17316.151    11.157362    1.1252403 
    3300    238.31017   -611.10262    165492.15   -16119.003    1199.0832   -17318.087    11.320055    1.1252403 
    3400    244.69585   -512.93456    165492.15   -16113.752    1231.2135   -17344.966     11.80191    1.1252403 
    3500    243.54935   -479.80037    165492.15   -16067.866    1225.4447   -17293.311    12.517692    1.1252403 
    3600    243.36602   -328.67351    165492.15    -16038.66    1224.5223   -17263.182    13.177617    1.1252403 
    3700    250.16144   -426.47313    165492.15   -16033.283    1258.7141   -17291.997    13.644238    1.1252403 
    3800    235.49759   -331.60954    165492.15   -16090.207    1184.9314   -17275.139    14.159354    1.1252403 
    3900    238.33742   -542.73453    165492.15   -16122.305    1199.2203   -17321.526    14.475194    1.1252403 
    4000    244.01259   -246.25582    165492.15   -16121.855    1227.7756    -17349.63    14.596789    1.1252403 
    4100    237.68462   -471.01804    165492.15   -16112.903    1195.9357   -17308.839     15.00462    1.1252403 
    4200    245.63289   -574.13816    165492.15   -16041.774    1235.9283   -17277.702    15.509431    1.1252403 
    4300    244.40999    -550.6895    165492.15   -16010.393    1229.7751   -17240.168    15.665376    1.1252403 
    4400    243.19583   -374.20352    165492.15   -16027.538    1223.6659   -17251.204     16.35465    1.1252403 
    4500    240.65996   -664.24158    165492.15   -16065.029    1210.9064   -17275.936    16.930275    1.1252403 
    4600    236.36536    -363.7509    165492.15   -16070.953    1189.2977   -17260.251    17.231461    1.1252403 
    4700    241.99079   -679.59496    165492.15    -16026.71    1217.6026   -17244.313    17.393239    1.1252403 
    4800    247.47958   -433.93108    165492.15   -15984.852    1245.2201   -17230.072    17.635409    1.1252403 
    4900     241.3343   -437.97379    165492.15   -16022.785    1214.2994   -17237.084    17.962065    1.1252403 
    5000    240.63808   -366.85631    165492.15   -16073.129    1210.7963   -17283.925    18.378201    1.1252403 
    5100    241.66703   -591.21288    165492.15   -16095.361    1215.9736   -17311.335    18.811716    1.1252403 
    5200    239.65036   -481.63447    165492.15   -16079.233    1205.8265   -17285.059     19.36057    1.1252403 
    5300    240.20166   -629.76389    165492.15   -16036.028    1208.6004   -17244.628    19.906196    1.1252403 
    5400    241.40454   -363.84276    165492.15   -16013.785    1214.6529   -17228.438    20.094411    1.1252403 
    5500    241.17038   -483.16936    165492.15   -16041.822    1213.4747   -17255.297    20.612983    1.1252403 
    5600    235.06054   -530.22928    165492.15   -16109.536    1182.7323   -17292.269    20.947523    1.1252403 
    5700    229.73963   -459.33395    165492.15   -16119.272    1155.9596   -17275.231    21.202074    1.1252403 
    5800    238.86719   -360.81229    165492.15   -16080.548    1201.8859   -17282.434    21.315322    1.1252403 
    5900    248.50588   -407.89797    165492.15   -16046.829     1250.384   -17297.213      21.4338    1.1252403 
    6000    236.69144   -574.54892    165492.15   -16065.645    1190.9384   -17256.583    21.662945    1.1252403 
    6100    234.64399   -733.59372    165492.15   -16085.783    1180.6365   -17266.419    21.985128    1.1252403 
    6200    250.21459   -402.69994    165492.15   -16095.613    1258.9816   -17354.595    22.105667    1.1252403 
    6300    232.88264   -482.34994    165492.15   -16117.317     1171.774   -17289.091    22.481944    1.1252403 
    6400    243.85519   -299.10569    165492.15    -16104.54    1226.9836   -17331.523    22.593087    1.1252403 
    6500    241.92438   -391.59519    165492.15    -16056.35    1217.2685   -17273.618    22.809017    1.1252403 
    6600    244.92361   -467.43957    165492.15   -16032.484    1232.3594   -17264.843    23.184326    1.1252403 
    6700    242.45524   -621.95902    165492.15   -16046.084    1219.9396   -17266.023    23.832218    1.1252403 
    6800    233.06694   -635.67486    165492.15   -16072.172    1172.7013   -17244.874    23.909036    1.1252403 
    6900     234.1131   -301.84579    165492.15   -16131.677    1177.9652   -17309.643    24.073967    1.1252403 
    7000    234.30351   -621.99686    165492.15    -16146.19    1178.9233   -17325.114    24.160583    1.1252403 
    7100    232.97509    -598.1617    165492.15   -16096.457    1172.2392   -17268.696    24.311199    1.1252403 
    7200    238.06332   -492.02881    165492.15   -16067.866    1197.8411   -17265.707    24.514055    1.1252403 
    7300    243.64009   -452.85667    165492.15   -16074.024    1225.9013   -17299.925    24.926196    1.1252403 
    7400    237.15305   -455.73554    165492.15   -16093.337    1193.2611   -17286.598    25.501973    1.1252403 
    7500    235.93656   -430.42028    165492.15   -16098.036    1187.1401   -17285.176    26.294315    1.1252403 
    7600    234.05351   -313.72107    165492.15   -16076.368    1177.6654   -17254.034    26.562036    1.1252403 
    7700    241.14947   -452.93224    165492.15   -16028.888    1213.3694   -17242.257    26.767801    1.1252403 
    7800    241.55317   -353.02648    165492.15   -16016.611    1215.4007   -17232.012    27.329998    1.1252403 
    7900    233.70442    -576.0849    165492.15   -16040.096    1175.9089   -17216.005    27.849484    1.1252403 
    8000     238.5632   -380.06717    165492.15   -16083.457    1200.3563   -17283.813    28.017795    1.1252403 
    8100    237.28327    -618.7843    165492.15   -16125.807    1193.9162   -17319.723    28.475168    1.1252403 
    8200    235.01546   -401.22631    165492.15   -16103.474    1182.5055   -17285.979    28.395406    1.1252403 
    8300    240.74533     -388.979    165492.15   -16038.347     1211.336   -17249.683    28.625906    1.1252403 
    8400    240.78541   -398.97981    165492.15   -16040.915    1211.5376   -17252.453    29.053625    1.1252403 
    8500    236.83935   -461.45171    165492.15   -16063.238    1191.6826   -17254.921    29.259224    1.1252403 
    8600    239.98086    -398.8359    165492.15   -16090.833    1207.4894   -17298.322    29.748519    1.1252403 
    8700    229.12218   -439.63164    165492.15   -16106.284    1152.8529   -17259.137    30.282647    1.1252403 
    8800    243.56417   -580.32679    165492.15   -16056.805    1225.5193   -17282.325    30.601603    1.1252403 
    8900     239.6317   -528.30254    165492.15   -16010.006    1205.7326   -17215.739     31.24678    1.1252403 
    9000    237.03312   -578.68906    165492.15   -15999.504    1192.6576   -17192.162    31.810692    1.1252403 
    9100    241.99825   -369.68513    165492.15    -15998.23    1217.6402    -17215.87    32.329302    1.1252403 
    9200    241.11604   -543.41178    165492.15   -16050.933    1213.2012   -17264.135    33.098932    1.1252403 
    9300    238.16087   -494.29441    165492.15   -16090.729     1198.332   -17289.061    33.731284    1.1252403 
    9400    237.32374   -513.11504    165492.15   -16084.174    1194.1199   -17278.294    35.279507    1.1252403 
    9500    239.16192   -224.44017    165492.15   -16052.205    1203.3689   -17255.574    36.281554    1.1252403 
    9600    246.36883   -466.22676    165492.15   -16008.639    1239.6312    -17248.27    37.228373    1.1252403 
    9700    245.28935   -484.86721    165492.15   -15985.687    1234.1997   -17219.887    38.066801    1.1252403 
    9800    239.27334   -400.22992    165492.15   -16021.364    1203.9295   -17225.294    38.082286    1.1252403 
    9900    232.45605   -221.10178    165492.15   -16075.556    1169.6276   -17245.183    38.207867    1.1252403 
   10000    233.93591   -397.89714    165492.15   -16083.278    1177.0737   -17260.351    38.439969    1.1252403 
Loop time of 6.02573 on 128 procs for 10000 steps with 8493 atoms

Performance: 716.925 ns/day, 0.033 hours/ns, 1659.549 timesteps/s
96.6% CPU use with 128 MPI tasks x no OpenMP threads

MPI task timing breakdown:
Section |  min time  |  avg time  |  max time  |%varavg| %total
---------------------------------------------------------------
Pair    | 0.00075221 | 1.84       | 4.6103     | 117.3 | 30.54
Neigh   | 0.0043657  | 0.13092    | 0.31056    |  27.6 |  2.17
Comm    | 0.19636    | 1.7492     | 4.3374     |  82.3 | 29.03
Output  | 0.14798    | 0.14804    | 0.14874    |   0.0 |  2.46
Modify  | 0.17481    | 2.0772     | 5.5934     | 135.1 | 34.47
Other   |            | 0.08038    |            |       |  1.33

Nlocal:        66.3516 ave         138 max           0 min
Histogram: 33 5 5 21 0 0 2 25 27 10
Nghost:        697.047 ave         916 max         492 min
Histogram: 18 6 11 19 11 14 15 16 7 11
Neighs:         0.00000 ave           0 max           0 min
Histogram: 128 0 0 0 0 0 0 0 0 0
FullNghs:      6954.06 ave       16525 max           0 min
Histogram: 41 23 0 0 0 0 12 28 16 8

Total # of neighbors = 890120
Ave neighs/atom = 104.80631
Neighbor list builds = 566
Dangerous builds = 0
write_data 	    ${DIR}/data.${NAME}_eq
write_data 	    run_4/data.${NAME}_eq
write_data 	    run_4/data.ibeam_cooling_4_eq
System init for write_data ...

undump              1
unfix 		3



################################################
#######         Run Simulation         #########
################################################

reset_timestep      0
timestep	    10.0
log                 ${DIR}/log.run_${NAME}
log                 run_4/log.run_${NAME}
log                 run_4/log.run_ibeam_cooling_4
