
# Set production fixes - Nose/Hoover
#
fix                 4 water temp/csvr ${START_TEMP} ${END_TEMP} 500.0 928347
fix                 4 water temp/csvr 240 ${END_TEMP} 500.0 928347
fix                 4 water temp/csvr 240 227 500.0 928347


## divide "droplet" into core and surface
#region		core_reg cylinder z 135 135 44.6 20 INF units box
#region		surface_reg cylinder z 135 135 44.6 20 INF units box side out
#group		core dynamic all region core_reg
#group		surface dynamic all region surface_reg

## compute pressure core
#compute        peratom_core core stress/atom NULL
#compute        p_core core reduce sum c_peratom_core[1] c_peratom_core[2] c_peratom_core[3]
#variable       press_core equal -(c_p_core[1]+c_p_core[2]+c_p_core[3])/(3*1249982.5)


## compute pressure surface
#compute        peratom_surf surface stress/atom NULL
#compute        p_surf surface reduce sum c_peratom_surf[1] c_peratom_surf[2] #c_peratom_surf[3]
#variable       press_surf equal -(c_p_surf[1]+c_p_surf[2]+c_p_surf[3])/(3*42395)

## compute total pressure of drop
compute        peratom water stress/atom NULL
compute        p water reduce sum c_peratom[1] c_peratom[2] c_peratom[3]
variable       press equal -(c_p[1]+c_p[2]+c_p[3])/(3*50320)


# compute order parameter
compute        3 all orientorder/atom nnn NULL cutoff 3.5

# compute center of mass of bridge
compute 	4 water com

# Run simulation
thermo_style        custom step c_2 press vol etotal ke pe v_press c_1[4] c_4[*]
thermo              200
dump		     1 water custom 400 ${DIR}/prod.${NAME}.dump id type x y z vx vy vz c_3[*] c_peratom[*]
dump		     1 water custom 400 run_9/prod.${NAME}.dump id type x y z vx vy vz c_3[*] c_peratom[*]
dump		     1 water custom 400 run_9/prod.ibeam_cooling_9.dump id type x y z vx vy vz c_3[*] c_peratom[*]
run                 ${STEPS}
run                 5200000
Neighbor list info ...
  update every 1 steps, delay 0 steps, check yes
  max neighbors/atom: 2000, page size: 100000
  master list distance cutoff = 6.67472
  ghost atom cutoff = 6.67472
  binsize = 3.33736, bins = 48 13 11
  2 neighbor lists, perpetual/occasional/extra = 1 1 0
  (1) pair sw, perpetual
      attributes: full, newton on
      pair build: full/bin/atomonly
      stencil: full/bin/3d
      bin: standard
  (2) compute orientorder/atom, occasional, copy from (1)
      attributes: full, newton on
      pair build: copy
      stencil: none
      bin: none
Per MPI rank memory allocation (min/avg/max) = 0.8535 | 5.968 | 7.262 Mbytes
Step c_2 Press Volume TotEng KinEng PotEng v_press c_1[4] c_4[1] c_4[2] c_4[3] 
       0    241.29861   -250.81415    216009.12   -18651.971    1403.2867   -20055.258   -487.30963    34.595026    78.744327    22.600961     25.45212 
     200    235.96403    -446.7877    216009.12   -18694.761    1372.2631   -20067.024   -1315.6913    36.069814    78.744725    22.599824    25.445616 
     400    229.81675   -453.59551    216009.12   -18657.419    1336.5132   -19993.933   -1339.7978    37.148732    78.742697    22.600134    25.416144 
     600    250.79985   -277.99853    216009.12   -18529.079    1458.5417   -19987.621    -597.4294     38.42732    78.741772    22.597804    25.400464 
     800    238.07839   -292.27037    216009.12   -18521.286    1384.5593   -19905.845   -641.87858    39.628449    78.741305    22.600956    25.424335 
    1000    238.57172   -304.24756    216009.12   -18635.421    1387.4283    -20022.85   -756.48345    41.985079    78.741491    22.599447    25.443923 
    1200    238.08545   -307.06673    216009.12   -18583.772    1384.6003   -19968.372   -726.25743    43.243969    78.740656    22.600457    25.430104 
    1400    244.91962   -302.55559    216009.12   -18580.364    1424.3448   -20004.709   -717.01582    44.829418    78.738119    22.601511    25.439516 
    1600    246.06636   -393.75928    216009.12   -18596.033    1431.0138   -20027.046   -1098.9424    46.184677    78.737119    22.600814     25.44822 
    1800     238.5878   -209.44519    216009.12   -18560.213    1387.5217   -19947.735   -367.35976    49.418211    78.735847    22.599519    25.448469 
    2000    249.65579   -298.31216    216009.12    -18493.95    1451.8883   -19945.839   -669.52101     50.37939    78.736693    22.599789    25.453974 
    2200    237.27387   -311.74399    216009.12   -18557.516    1379.8805   -19937.397   -736.70694    50.920224    78.736685    22.600588    25.460721 
    2400    244.63715     134.1669    216009.12   -18525.579    1422.7021   -19948.281    1095.9153    52.661243    78.733404    22.601264    25.473625 
    2600    235.04287   -207.51312    216009.12   -18564.177     1366.906   -19931.083    -348.6644    56.055693    78.731951    22.601967    25.489828 
    2800    245.55525   -183.78378    216009.12   -18487.224    1428.0414   -19915.266   -205.18892    57.861441    78.732657    22.601903    25.494909 
    3000    246.95808   -254.53473    216009.12   -18496.421    1436.1996    -19932.62   -500.51455    58.839918     78.73217    22.602579    25.484319 
    3200    242.16339   -340.98051    216009.12   -18574.772    1408.3158   -19983.088   -878.63817     60.66684    78.734262    22.603475    25.505299 
    3400    236.58494   -257.50212    216009.12   -18584.319     1375.874   -19960.193   -514.84369    61.743115    78.736267    22.606048    25.520535 
    3600    241.85881   -373.53335    216009.12   -18563.228    1406.5445   -19969.772   -1049.0586    62.972226    78.737691    22.605787    25.491811 
    3800    235.04612   -224.74609    216009.12   -18515.339    1366.9249   -19882.264   -405.65716    64.414863    78.736023    22.604933    25.498438 
    4000    247.02448   -498.09062    216009.12   -18595.425    1436.5858   -20032.011   -1542.0974    66.836173    78.735238    22.604131    25.496569 
    4200    244.19718   -309.18791    216009.12    -18559.66    1420.1435   -19979.803   -748.52721    67.541774    78.734797    22.605694    25.500692 
    4400     241.8234   -311.89902    216009.12   -18572.953    1406.3386   -19979.292   -788.41348    68.672626    78.734377     22.60417     25.52069 
    4600    233.65996   -270.65124    216009.12   -18688.785    1358.8636   -20047.648   -606.51647    69.856358    78.729734    22.603798     25.50396 
    4800    238.12676   -272.21333    216009.12   -18551.176    1384.8406   -19936.017   -595.87821    69.782809    78.728235    22.602222    25.500257 
    5000    237.73171   -383.52353    216009.12   -18588.606    1382.5431    -19971.15   -1086.5693    71.966947    78.725977    22.602147    25.498517 
    5200    236.91891   -306.05205    216009.12   -18617.796    1377.8162   -19995.613   -752.01499     72.44466    78.727429    22.602371     25.48442 
    5400    238.04746   -458.48974    216009.12   -18646.451    1384.3794    -20030.83   -1353.7224    73.278806    78.728347    22.604488    25.477998 
    5600    235.65144   -253.98208    216009.12    -18644.28    1370.4452   -20014.725   -491.34072    75.268983    78.730169    22.604447    25.487756 
    5800    237.86235   -250.40842    216009.12   -18571.766    1383.3029   -19955.069   -495.22803    76.960107     78.73107    22.606944    25.459688 
    6000    241.52344   -269.64447    216009.12   -18611.529    1404.5942   -20016.123   -585.55661    78.220953    78.729516     22.60872     25.44843 
    6200    237.99809   -213.21533    216009.12   -18619.993    1384.0923   -20004.085   -332.89302    78.892051    78.729734     22.60939    25.452411 
    6400    245.31464   -518.68713    216009.12   -18582.518    1426.6421    -20009.16   -1606.2244    81.420899    78.729058    22.608491    25.479983 
    6600    240.04796    -283.0225    216009.12   -18616.674    1396.0134   -20012.687   -624.43048    82.960644    78.728071     22.60927    25.490465 
    6800    240.76336   -483.00157    216009.12   -18598.544    1400.1739   -19998.718   -1512.7599    85.685964     78.72741    22.611633    25.497087 
    7000    244.30128   -465.87178    216009.12   -18569.258    1420.7489   -19990.007   -1407.5725    86.489782    78.725458    22.612451    25.527699 
    7200    233.40501    -253.1182    216009.12    -18660.18    1357.3809    -20017.56   -520.14551    87.610122    78.726322    22.613194    25.518325 
    7400     234.7612   -366.84017    216009.12   -18609.575    1365.2679   -19974.843    -985.8916    89.359187    78.725613    22.615919    25.531521 
    7600    250.44409   -531.90499    216009.12   -18545.337    1456.4727    -20001.81   -1655.7718    90.489659    78.724743    22.616815     25.53687 
    7800    233.25569   -230.39269    216009.12   -18661.702    1356.5126   -20018.215   -429.31757    91.216272     78.72504    22.620105    25.544558 
    8000    240.85756   -279.36213    216009.12   -18558.327    1400.7217   -19959.049   -633.38537    93.189879    78.725684    22.622159    25.565671 
    8200    241.82668   -279.40853    216009.12    -18549.34    1406.3577   -19955.697   -614.57897    93.529906    78.727402    22.623667    25.560853 
    8400    244.05089    -247.5115    216009.12   -18532.093    1419.2927   -19951.385   -452.91335    95.356446    78.728434    22.625563     25.55306 
    8600    235.38722   -216.52371    216009.12   -18577.563    1368.9086   -19946.471   -371.50531    96.650008    78.727909    22.626694    25.556801 
    8800    238.89189    -270.3728    216009.12   -18590.432    1389.2902   -19979.722   -592.82318    98.118757    78.727208    22.630081    25.560163 
    9000    241.20557   -264.07464    216009.12    -18595.81    1402.7455   -19998.555   -589.88772    99.007311    78.729444    22.631427    25.530791 
    9200    245.87586   -458.52882    216009.12   -18552.397    1429.9059   -19982.303   -1331.5775    100.00298    78.731258    22.631902    25.518125 
    9400    243.38977   -202.96367    216009.12   -18595.256    1415.4479   -20010.704    -314.9787    101.28669    78.731492    22.633601    25.530232 
    9600    240.89079    -363.6405    216009.12   -18629.052    1400.9149   -20029.967   -1012.8268    101.90375    78.733421    22.633873    25.538348 
    9800    239.32635   -359.65075    216009.12   -18525.762    1391.8169   -19917.579   -991.86093    103.70968    78.733426    22.633054    25.535297 
   10000    235.12673   -192.19324    216009.12   -18559.312    1367.3937   -19926.706   -177.53147    104.54453    78.739149    22.634837     25.53036 
   10200    247.91597   -545.61135    216009.12   -18477.969    1441.7703   -19919.739   -1749.8549    106.20288    78.739536    22.635367    25.542923 
   10400    243.82401   -279.95918    216009.12   -18502.765    1417.9732   -19920.738   -557.73801    107.48103    78.740412    22.634339     25.56443 
   10600    242.76174   -336.64567    216009.12    -18613.27    1411.7956   -20025.065   -849.12706     109.2447     78.74114    22.636047    25.581762 
   10800    239.19023   -396.64863    216009.12   -18660.206    1391.0252   -20051.231   -1092.7616    109.88917    78.742887    22.633877    25.591079 
   11000    237.76142   -330.97624    216009.12   -18641.174    1382.7159    -20023.89   -822.05149    110.61645    78.742343    22.635786    25.550953 
   11200     231.5724   -385.11131    216009.12   -18626.553    1346.7233   -19973.277    -1053.593    112.37477    78.739883    22.635374    25.521594 
   11400    235.98352   -229.57369    216009.12   -18607.059    1372.3764   -19979.435   -365.87005    114.63194    78.741075    22.637978    25.519557 
   11600    240.28002    -222.5604    216009.12   -18512.162     1397.363   -19909.525   -382.12081    116.34049    78.741893    22.637848    25.501788 
   11800      248.622   -336.55405    216009.12   -18498.402    1445.8763   -19944.279   -851.88778    117.82358    78.741403    22.638774    25.488051 
   12000    248.20476   -239.65501    216009.12   -18530.302    1443.4498   -19973.752   -447.25595    118.97117    78.743689    22.640317    25.471252 
   12200    245.05929   -303.99294    216009.12   -18560.422    1425.1571   -19985.579   -718.68756    119.35234    78.742546    22.640083     25.48967 
   12400    239.93375   -227.68286    216009.12   -18579.314    1395.3492   -19974.663   -402.62728    120.76351    78.743045    22.639986    25.471655 
   12600      244.212   -304.68585    216009.12   -18525.172    1420.2297   -19945.402   -709.53633    121.70029    78.744198    22.640106    25.473304 
   12800    240.35464   -299.57962    216009.12   -18559.571    1397.7969   -19957.368   -726.85368    123.32797    78.743855    22.639482    25.483715 
   13000    238.79923   -253.06982    216009.12   -18573.367    1388.7513   -19962.118   -522.43147    125.03136    78.744839    22.638203     25.47407 
   13200    235.21001   -318.70541    216009.12   -18617.687     1367.878   -19985.565   -723.32324    126.33827    78.744385     22.63681    25.500998 
   13400    233.90029   -391.41718    216009.12    -18667.39    1360.2613   -20027.652    -1095.642    128.07059    78.743928    22.638154    25.497784 
   13600    238.30456   -388.45582    216009.12   -18637.297    1385.8746   -20023.171   -1116.1268    130.56141    78.744098    22.639205    25.508936 
   13800    245.65996     -472.307    216009.12   -18595.314    1428.6504   -20023.964   -1492.7818    133.06328     78.74411    22.638349    25.505734 
   14000    243.77634   -222.26469    216009.12    -18516.54     1417.696   -19934.236   -380.32422    134.12842     78.74461    22.637665     25.51253 
   14200    244.01127   -285.20471    216009.12   -18581.354    1419.0623   -20000.417   -625.43556    134.83862    78.746169    22.638216    25.494313 
   14400    239.05489    -195.4802    216009.12   -18604.137    1390.2381   -19994.375   -283.77197    136.59322    78.744694    22.636884    25.490547 
   14600    241.66555   -382.77018    216009.12   -18587.176    1405.4206   -19992.597   -1114.7613    137.63244    78.744357    22.638847    25.499596 
   14800     244.4468   -323.95191    216009.12    -18561.53    1421.5952   -19983.125    -771.5487     137.9692    78.745261    22.638615    25.496867 
   15000    241.48093   -378.62939    216009.12   -18569.684     1404.347   -19974.031   -1034.5191    139.24854    78.745067    22.639529    25.490625 
   15200    241.66218   -215.58338    216009.12   -18555.312     1405.401   -19960.713   -365.02458    140.53205    78.743113    22.640288    25.500006 
   15400    233.18893   -367.92261    216009.12   -18625.855    1356.1243    -19981.98   -1009.6279    141.71605    78.743866    22.639694    25.485816 
   15600    251.96666   -80.206056    216009.12   -18486.571    1465.3273   -19951.899    241.32417     143.6246    78.743607    22.639276     25.49345 
   15800    242.33482    -345.6804    216009.12   -18527.606    1409.3128   -19936.918   -896.40803    144.89339    78.741192    22.639707    25.498558 
   16000    241.65295   -296.85287    216009.12   -18563.399    1405.3473   -19968.747     -691.422    145.34752    78.738482    22.640264    25.516186 
   16200    242.26837   -201.33188    216009.12   -18547.278    1408.9263   -19956.205   -282.12133     144.5998    78.738256    22.641808    25.526853 
   16400     239.6833   -310.09917    216009.12   -18549.873    1393.8927   -19943.765   -777.25059    144.75754    78.738291     22.64282    25.519852 
   16600    244.02532   -293.84677    216009.12     -18476.1     1419.144   -19895.244   -649.46846    146.30901    78.738121    22.643103    25.508419 
   16800    239.67382   -407.14433    216009.12   -18521.037    1393.8376   -19914.875   -1200.6508    147.81825    78.739836     22.64238    25.501378 
   17000    233.79508   -245.55104    216009.12   -18565.729    1359.6494   -19925.379   -464.75378    149.59409    78.739973    22.644532    25.488827 
   17200    238.47428   -423.35713    216009.12   -18566.975    1386.8616   -19953.837   -1225.1086    153.78192      78.7411    22.644383    25.484985 
   17400    237.11686   -339.66813    216009.12   -18636.832    1378.9674   -20015.799   -899.03156    154.96427    78.738535    22.647747    25.504326 
   17600    235.96185   -279.04597    216009.12     -18583.2    1372.2504   -19955.451   -598.13237    154.71248    78.737043    22.647971    25.499997 
   17800    237.52004   -352.05422    216009.12   -18595.832    1381.3121   -19977.144   -950.80564    156.48727    78.737657    22.649623    25.516569 
   18000    241.38833   -187.71117    216009.12   -18584.649    1403.8084   -19988.457   -181.44009    157.82917    78.735954    22.650301    25.509368 
   18200     241.1938   -367.43278    216009.12   -18614.402    1402.6771   -20017.079   -961.46813    159.68586    78.735865    22.651135    25.482369 
   18400    236.37089   -441.31186    216009.12   -18595.382    1374.6292   -19970.011   -1327.8784    159.72479    78.736181    22.652078      25.4712 
   18600    239.21301   -320.93748    216009.12   -18548.085    1391.1577   -19939.243   -758.62496    160.76124    78.737016    22.654897    25.458513 
   18800    239.14199   -375.84206    216009.12    -18581.71    1390.7447   -19972.455   -1027.0672    160.43256    78.733807    22.655388    25.455568 
   19000    245.38729   -421.83614    216009.12   -18566.807    1427.0646   -19993.872   -1190.3888    162.44622    78.733664    22.653946     25.50042 
   19200    242.50256   -220.12062    216009.12   -18600.744    1410.2883   -20011.033   -387.68989    164.13436    78.733708    22.652593    25.502747 
   19400    246.20217   -356.92424    216009.12   -18535.017    1431.8036    -19966.82   -941.99261    166.02932    78.733264    22.653645    25.537689 
   19600    239.59165   -381.41341    216009.12   -18515.749    1393.3597   -19909.109   -1037.9359    167.52355      78.7306    22.653949    25.552668 
   19800    240.81923    -312.4474    216009.12   -18528.478    1400.4988   -19928.977   -773.15015    168.50004    78.727971    22.654139    25.591692 
   20000    237.27599   -250.41684    216009.12   -18552.339    1379.8928   -19932.231    -510.9753    170.25136    78.726349    22.655117    25.622537 
   20200    241.88818   -300.22532    216009.12   -18606.979    1406.7153   -20013.694   -681.28384    171.65913    78.726719    22.655252    25.598398 
   20400    243.76326   -476.16435    216009.12   -18491.679    1417.6199   -19909.298   -1489.5622    172.14242    78.726681    22.655479    25.587541 
   20600    238.55523   -40.405494    216009.12   -18594.431    1387.3323   -19981.764    367.91222    172.80582    78.726897    22.654009    25.601381 
   20800    245.65346   -425.07094    216009.12   -18501.005    1428.6125   -19929.618   -1239.2599    175.03617    78.726722    22.658254    25.597739 
   21000    233.19724   -212.75072    216009.12    -18567.47    1356.1726   -19923.642    -323.4615    175.88066    78.727051    22.659095    25.588843 
   21200    243.30284   -290.88438    216009.12   -18547.751    1414.9424   -19962.693   -631.43102    177.22108    78.727422    22.658749    25.614304 
   21400    239.65581   -300.96605    216009.12   -18563.574    1393.7329   -19957.307   -690.04503    177.75114    78.728272    22.660801    25.590728 
   21600    248.15044   -317.20736    216009.12   -18454.253    1443.1339   -19897.387   -755.24607     179.4411    78.730507    22.659394      25.5638 
   21800    235.86972     -230.678    216009.12   -18592.251    1371.7146   -19963.966   -474.93326    180.62393    78.729557    22.657456       25.568 
   22000    235.18548   -123.93018    216009.12   -18638.091    1367.7353   -20005.827    64.919562    182.63081    78.731444    22.656241    25.546586 
   22200    232.83848    -290.1827    216009.12   -18689.545    1354.0863   -20043.631   -694.33384    183.91567     78.73046    22.655781    25.558701 
   22400    238.31205   -356.86639    216009.12   -18583.387    1385.9181   -19969.305   -949.52282    186.21198    78.730067    22.653907    25.550378 
   22600    238.85398    -185.3517    216009.12   -18577.015    1389.0698   -19966.084   -239.46751     186.5247    78.729942    22.651309    25.541169 
   22800    241.36641    -302.9101    216009.12   -18554.324    1403.6809   -19958.005   -752.89869    188.29168    78.729638    22.654214    25.528548 
   23000    242.92287   -358.97964    216009.12   -18599.677    1412.7326   -20012.409   -994.99899    189.58309    78.729574    22.657187    25.511371 
   23200    246.56904   -469.98982    216009.12   -18540.751    1433.9371   -19974.688   -1463.7524     191.2828    78.731124    22.657395    25.503894 
   23400    244.34612   -299.99909    216009.12   -18563.704    1421.0096   -19984.714   -725.99308    192.98464    78.730873    22.655346     25.51357 
   23600    242.95521   -290.87446    216009.12       -18500    1412.9207   -19912.921   -674.17893    193.40126    78.730598    22.653881    25.513529 
   23800    243.29486   -294.74991    216009.12   -18529.078     1414.896   -19943.974   -700.97495    196.22377     78.73161    22.652152    25.520555 
   24000    239.83032   -268.67637    216009.12   -18541.693    1394.7477    -19936.44   -550.54907    197.47612    78.729195    22.654109    25.494752 
   24200     238.0513   -164.10782    216009.12   -18534.913    1384.4017   -19919.315    -105.9899    197.56705    78.729468    22.655853    25.492553 
   24400    238.61674   -368.99533    216009.12   -18602.561    1387.6901   -19990.251   -1010.1359    197.90457    78.729698    22.658303    25.509534 
   24600    236.50738    -217.6098    216009.12   -18634.953     1375.423   -20010.376   -328.20156    197.71825    78.729371    22.660619    25.501946 
   24800    237.44659    -306.7707    216009.12   -18601.812     1380.885   -19982.697     -715.273    200.02334     78.73072    22.660996    25.471543 
   25000    238.72468   -350.51331    216009.12   -18599.872    1388.3178   -19988.189   -916.34282    201.19524    78.730307     22.66409    25.473519 
   25200    232.17155   -320.74579    216009.12   -18673.242    1350.2077    -20023.45    -780.9793    202.88642    78.729357    22.662445     25.47478 
   25400    238.09197   -240.97486    216009.12   -18583.914    1384.6382   -19968.553   -418.37063    203.97739    78.727702    22.662632    25.470844 
   25600    245.65968   -234.36133    216009.12   -18394.748    1428.6487   -19823.396   -413.13068    205.45569    78.725356    22.663558    25.483403 
   25800    238.52535   -154.02726    216009.12   -18470.238    1387.1586   -19857.397   -29.144768    205.33591    78.724601    22.661563    25.500836 
   26000    242.74937    -401.0323    216009.12    -18518.27    1411.7237   -19929.994   -1156.4588    207.49553    78.724914    22.660342     25.52745 
   26200    237.58181   -206.30218    216009.12    -18540.89    1381.6714   -19922.561   -302.86851    209.26551    78.725998    22.661023    25.558572 
   26400    238.56003   -315.15939    216009.12   -18604.499    1387.3602   -19991.859   -726.58307    211.01242    78.727081    22.660009    25.555917 
   26600    244.20531   -420.10133    216009.12   -18535.533    1420.1907   -19955.724   -1226.6232    212.76886    78.727501    22.659491    25.554072 
   26800    244.74952   -383.66142    216009.12   -18572.945    1423.3556     -19996.3   -1080.4683    214.09372    78.728647    22.660494     25.56716 
   27000    239.73204   -452.17536    216009.12   -18530.634    1394.1762    -19924.81   -1309.6279    216.02373    78.729998    22.658799    25.576404 
   27200    238.24864   -281.21388    216009.12   -18609.835    1385.5493   -19995.384   -608.58335    215.88308    78.731796    22.657411    25.564195 
   27400    249.75103   -292.41207    216009.12   -18544.736    1452.4422   -19997.178   -650.00621    216.36816     78.73338    22.656475     25.55759 
   27600    236.25263   -94.946422    216009.12   -18664.071    1373.9414   -20038.012    170.03677     216.7576    78.735328     22.65594    25.562999 
   27800    236.84022   -421.19462    216009.12   -18545.895    1377.3586   -19923.254   -1194.2367    217.71679    78.736542    22.655241    25.560561 
   28000    237.95092   -328.37836    216009.12   -18639.896    1383.8179   -20023.714   -809.13627    218.23269    78.739206    22.654994    25.573492 
   28200    238.27805   -309.58861    216009.12   -18595.335    1385.7204   -19981.056   -742.97838    220.13496    78.739173    22.653138     25.55791 
   28400    234.11441   -335.29363    216009.12   -18562.789    1361.5065   -19924.295   -873.15308    221.80545     78.73969    22.651488    25.540164 
   28600    235.79792   -351.47916    216009.12   -18577.496     1371.297   -19948.793    -908.5489     222.3693     78.74031    22.651638     25.54944 
   28800    237.87528   -174.17702    216009.12   -18615.186    1383.3781   -19998.564   -202.32684    222.84895     78.74167    22.652556    25.553725 
   29000    243.41295   -281.99365    216009.12   -18601.445    1415.5827   -20017.027   -660.81452    224.78111    78.743135    22.653067    25.547537 
   29200    244.95207   -321.52205    216009.12     -18574.8    1424.5336   -19999.334   -804.34405    225.22224    78.743471    22.652581    25.554084 
   29400    239.24685    -292.6018    216009.12   -18592.587    1391.3545   -19983.941   -642.71167    226.73092    78.742124    22.652076    25.533503 
   29600    237.83064    -203.5503    216009.12   -18591.697    1383.1185   -19974.815   -340.63335     228.3423    78.743078    22.651406    25.501332 
   29800    238.75968   -373.41034    216009.12   -18653.462    1388.5213   -20041.984    -1015.292    229.70291    78.741685    22.648787    25.503634 
   30000    235.39629    -118.4004    216009.12   -18717.389    1368.9614    -20086.35    71.100748    229.92283    78.740411    22.644155    25.498302 
   30200    232.01699   -470.71079    216009.12   -18675.427    1349.3088   -20024.736   -1514.5166    231.71705    78.737131    22.643146    25.491715 
   30400    230.79573   -321.87381    216009.12   -18646.596    1342.2065   -19988.802   -814.33717    232.78718    78.738251    22.644145    25.496412 
   30600     243.6219    -307.9248    216009.12    -18696.96    1416.7979   -20113.757   -689.66722    233.46336      78.7395     22.64377    25.495574 
   30800    236.65066   -259.04106    216009.12   -18650.874    1376.2562    -20027.13   -526.25127     233.7989    78.739893    22.642581    25.495153 
   31000    241.12159   -518.94258    216009.12   -18653.001    1402.2572   -20055.258   -1632.1028    234.98873    78.739177    22.639528    25.498934 
   31200    244.91827   -259.89544    216009.12   -18672.313     1424.337    -20096.65   -555.64238    234.82055    78.740899    22.639457    25.492118 
   31400    243.35554   -271.11252    216009.12   -18630.729    1415.2489   -20045.978   -587.34912    236.58618    78.740816    22.639258     25.51089 
   31600    236.75948   -298.23013    216009.12   -18667.042     1376.889   -20043.931    -710.8311    238.95536    78.738275    22.639783    25.516337 
   31800    241.02143   -301.20337    216009.12   -18579.751    1401.6747   -19981.426    -776.8808    239.52528    78.736129    22.640121    25.504012 
   32000    237.55846   -293.39807    216009.12   -18669.822    1381.5356   -20051.358   -681.71248    241.16249    78.737198    22.640574    25.506964 
   32200    234.55468   -277.41957    216009.12   -18677.184    1364.0669   -20041.251   -585.62496    242.93834    78.737433    22.640736    25.526191 
   32400    235.78257   -263.26688    216009.12   -18671.601    1371.2078   -20042.809   -557.69084    244.21405    78.738628    22.641216    25.519891 
   32600    242.67863   -296.18241    216009.12   -18589.886    1411.3122   -20001.198   -684.37464     243.3493    78.739506    22.642546    25.519105 
   32800    243.44463   -81.588584    216009.12   -18596.654    1415.7669   -20012.421    262.95097    243.39692    78.739189    22.642505    25.526363 
   33000    242.11844   -271.98244    216009.12   -18580.063    1408.0544   -19988.118   -604.83571    244.19965    78.738865    22.643493    25.553031 
   33200    237.75778   -244.57298    216009.12   -18620.595    1382.6947    -20003.29    -445.2085    245.21847    78.740324    22.643766    25.522463 
   33400     231.6996   -327.56058    216009.12   -18687.354     1347.463   -20034.817   -829.75504    247.90804    78.740613    22.644981    25.517711 
   33600    231.99392   -347.81624    216009.12   -18662.455    1349.1746    -20011.63   -868.28306    249.33554     78.73788    22.646453      25.5225 
   33800    245.58318   -323.06361    216009.12   -18500.602    1428.2038   -19928.805   -785.94679    250.11623    78.735969    22.647091    25.531864 
   34000    242.17434   -356.10251    216009.12   -18627.545    1408.3795   -20035.925   -954.77882    251.00513    78.736213    22.647279    25.541543 
   34200    244.22088   -276.23869    216009.12   -18602.251    1420.2813   -20022.533   -610.14719     251.8302    78.733108    22.647633    25.533891 
   34400    236.76056   -391.97493    216009.12   -18621.539    1376.8953   -19998.435   -1090.8715    253.12057    78.732236     22.64568     25.51585 
   34600    243.34515   -316.30615    216009.12   -18499.668    1415.1884   -19914.857   -772.49877    254.47943    78.732075    22.647614    25.520501 
   34800    236.78817   -211.72559    216009.12   -18599.345    1377.0559     -19976.4   -334.75727    254.86114    78.733264    22.646585    25.502406 
   35000    232.84544   -376.03895    216009.12   -18614.878    1354.1267   -19969.004    -1028.093    256.94234    78.733527    22.644908    25.490395 
   35200    246.51215   -233.10309    216009.12   -18518.127    1433.6063   -19951.733   -413.17197    258.48193    78.733217    22.643316     25.51006 
   35400    241.84465   -253.82366    216009.12   -18566.047    1406.4622    -19972.51    -499.2515    259.21941    78.733446    22.641935     25.50659 
   35600    239.74014   -374.03178    216009.12   -18576.572    1394.2233   -19970.795   -1000.0393    261.65591     78.73086    22.642468    25.520628 
   35800    247.16335   -412.12874    216009.12   -18527.563    1437.3934   -19964.956   -1205.8822    262.77247    78.730974    22.645199    25.516401 
   36000    239.10481   -374.89314    216009.12   -18615.435    1390.5285   -20005.964   -988.96409    265.02862    78.729454    22.646224    25.525152 
   36200    242.63337   -149.38186    216009.12   -18590.368     1411.049   -20001.418   -42.263588    265.17957    78.728055    22.646604    25.538539 
   36400    242.36857   -254.02005    216009.12   -18566.663    1409.5091   -19976.172   -510.36339    266.89439    78.727671    22.649554    25.543419 
   36600    242.66982   -327.60933    216009.12   -18549.376     1411.261   -19960.637   -830.70859     268.9901    78.725698    22.648301    25.526319 
   36800    239.34996   -109.18093    216009.12   -18611.475    1391.9542   -20003.429    109.48497    270.12886    78.724205    22.651006    25.514492 
   37000    235.69489   -406.69754    216009.12   -18576.542    1370.6978    -19947.24   -1137.0736    269.74883     78.72486    22.650871    25.534802 
   37200    239.59661   -241.01373    216009.12   -18591.156    1393.3886   -19984.544   -429.00543    270.54259    78.727035    22.652716    25.539582 
   37400    239.66535   -414.06549    216009.12   -18589.767    1393.7883   -19983.556   -1204.0668    272.93922    78.728332     22.65338    25.541147 
   37600    239.43775   -293.33207    216009.12   -18624.409    1392.4647   -20016.873   -656.07525    275.73525    78.729109    22.652842    25.546065 
   37800    234.32204   -349.52131    216009.12    -18687.35     1362.714   -20050.064   -886.96922    275.82546    78.731834    22.653846    25.532083 
   38000    242.68015   -294.94256    216009.12   -18566.739    1411.3211    -19978.06   -657.22862    277.13664    78.735417    22.655723    25.534013 
   38200    244.74923   -187.10338    216009.12   -18564.405    1423.3539   -19987.759   -229.55271    277.92807    78.737527    22.651947    25.550249 
   38400    244.00897   -328.86543    216009.12   -18531.873    1419.0489   -19950.922   -815.26342    281.43229    78.736806    22.649834    25.538608 
   38600    238.88824   -279.65152    216009.12   -18573.546     1389.269   -19962.815   -648.23553    280.00569    78.737165    22.648989    25.541613 
   38800    246.26416   -406.04874    216009.12    -18580.88    1432.1641   -20013.044   -1158.2864    282.04355    78.737814    22.646761    25.525286 
   39000     245.7021    -290.9922    216009.12   -18519.703    1428.8954   -19948.599   -665.43092       282.48    78.738609     22.64471    25.534118 
   39200    238.54011    -361.4865    216009.12   -18619.857    1387.2444   -20007.101   -937.85327    283.40396    78.736453     22.64485    25.537327 
   39400    239.94597   -352.43952    216009.12   -18578.934    1395.4203   -19974.354   -933.21314    283.13576    78.736371    22.645266    25.539151 
   39600    246.43402   -332.71135    216009.12   -18543.598    1433.1519    -19976.75    -841.8117     283.3801    78.736087    22.644638    25.524434 
   39800    239.14098   -300.35376    216009.12    -18621.49    1390.7388   -20012.229   -688.09887    285.93308    78.735975    22.644141    25.501168 
   40000    243.63015   -262.45893    216009.12    -18584.57    1416.8459   -20001.416   -572.32759    286.65451    78.736043    22.645275    25.502427 
   40200    235.24706    -417.9372    216009.12   -18577.406    1368.0935   -19945.499   -1216.8336    287.17171    78.737268    22.645301    25.496363 
   40400    237.76723   -143.39751    216009.12   -18613.621    1382.7497    -19996.37   -26.186795    288.63939    78.737091     22.64945    25.495151 
   40600    244.24353   -436.55272    216009.12   -18549.406     1420.413   -19969.819   -1295.5194    289.96355    78.734739    22.651674    25.504056 
   40800    241.40752   -239.92625    216009.12   -18629.517      1403.92   -20033.437   -448.73206    289.86762    78.734931    22.655548    25.499404 
   41000    233.74399   -282.80588    216009.12   -18592.574    1359.3523   -19951.927   -633.90681    289.43352    78.737377    22.655648    25.483208 
   41200    246.87703   -450.04881    216009.12   -18531.352    1435.7283   -19967.081   -1364.5803     290.0752    78.739004    22.654748    25.497045 
   41400     245.0517   -314.39527    216009.12   -18601.651     1425.113   -20026.764   -738.23206    291.38974    78.739937    22.654601    25.471673 
   41600    243.25887   -372.27424    216009.12   -18588.558    1414.6867   -20003.244    -1051.322    292.46714    78.739454    22.653971    25.431246 
   41800    241.06292   -327.12913    216009.12   -18575.924     1401.916    -19977.84   -809.10851    292.60015    78.740306    22.654212    25.431463 
   42000    236.82413   -215.01465    216009.12   -18612.774     1377.265   -19990.039   -288.55067    294.74599    78.740779    22.654303     25.44682 
   42200    233.48319    -312.3429    216009.12   -18691.324    1357.8356    -20049.16   -758.02038    297.41121    78.740783      22.6563    25.422247 
   42400    235.06377   -212.28206    216009.12   -18669.359    1367.0276   -20036.387   -352.16174    298.76566    78.741573    22.658656    25.434511 
   42600    238.29525   -236.21795    216009.12   -18660.851    1385.8204   -20046.672   -415.91795    300.71121    78.741437     22.65813    25.428235 
   42800    238.07843   -351.49974    216009.12   -18637.652    1384.5595   -20022.211   -915.27466    302.40274    78.741982    22.659828    25.423611 
   43000    249.37306   -197.79445    216009.12   -18659.742    1450.2441   -20109.986   -235.89555    303.24323    78.743346    22.659418    25.423721 
   43200    243.51433   -293.85185    216009.12   -18659.197    1416.1723    -20075.37   -705.88044    304.99734    78.742252    22.661433    25.410383 
   43400    233.26711    -291.7758    216009.12   -18631.846     1356.579   -19988.424   -622.70348    306.42403    78.737792    22.657547     25.44173 
   43600    241.64027   -242.99529    216009.12   -18629.394    1405.2736   -20034.667   -459.08154    307.31579     78.73614    22.658044    25.477699 
   43800    232.44366   -186.64314    216009.12    -18653.58    1351.7901    -20005.37   -199.16769    305.93807    78.734291    22.659512     25.50915 
   44000      236.639   -222.65528    216009.12   -18660.019    1376.1884   -20036.208   -366.12621    307.65677    78.733414    22.658826    25.516162 
   44200    242.32001   -198.48861    216009.12   -18608.868    1409.2267   -20018.094   -279.52879    309.49257    78.732882     22.66124    25.519416 
   44400    239.84841   -260.02044    216009.12   -18641.246    1394.8529   -20036.099   -548.70795    309.08226    78.732727    22.662337    25.521485 
   44600    234.86901    -399.0842    216009.12   -18658.271    1365.8949   -20024.166   -1099.0267    312.17154    78.730966     22.66173    25.510542 
   44800    232.35244    -193.6545    216009.12   -18669.149    1351.2596   -20020.409   -220.02412    313.83462    78.729659    22.662999    25.496012 
   45000    236.49942   -379.96256    216009.12   -18644.964    1375.3767   -20020.341   -1048.7052     314.3159    78.731038    22.661747     25.51339 
   45200     241.4678   -389.04246    216009.12   -18632.501    1404.2706   -20036.771   -1087.8868    315.82811    78.731861    22.661686    25.551241 
   45400     232.7175   -400.56316    216009.12   -18691.163    1353.3827   -20044.546    -1128.609    315.62622    78.732225    22.662586    25.540659 
   45600    239.63517   -392.17142    216009.12    -18611.21    1393.6128   -20004.823   -1091.5494    315.98293    78.730709    22.664035    25.541358 
   45800    242.35734   -148.22779    216009.12   -18644.516    1409.4438    -20053.96   -105.43735    317.66371    78.731954    22.665254     25.53317 
   46000    245.29605   -383.21737    216009.12   -18606.949     1426.534   -20033.483   -1081.1888    320.12932    78.731208    22.665998    25.541247 
   46200    248.71669   -243.80264    216009.12   -18586.426     1446.427   -20032.853   -453.38939    320.02811    78.731546    22.668322    25.531616 
   46400    235.61953   -327.22509    216009.12   -18655.424    1370.2596   -20025.683   -817.32156    321.01656    78.732506    22.671385    25.530126 
   46600    237.14938   -348.90322    216009.12   -18635.783    1379.1566   -20014.939   -941.30243    322.67815    78.732305    22.671165    25.527402 
   46800    238.97959   -320.07379    216009.12   -18595.301    1389.8002   -19985.101   -796.86881    324.59184     78.73315    22.668835    25.548952 
   47000     238.7923   -133.02633    216009.12    -18566.44     1388.711   -19955.151    -4.913023    323.07097    78.733654     22.66859    25.568574 
   47200     235.6865   -376.39648    216009.12    -18647.57    1370.6491   -20018.219   -1030.1116    323.62589    78.734413    22.669554    25.562452 
   47400      239.682   -366.39133    216009.12   -18597.846    1393.8852   -19991.731   -1037.5199    324.10325    78.732953    22.671115    25.575377 
   47600    234.38903   -223.36076    216009.12    -18633.19    1363.1035   -19996.294   -321.83126    323.42415    78.732308    22.671149    25.572053 
   47800     238.7574   -215.98961    216009.12   -18607.379    1388.5081   -19995.887   -340.84747      326.193    78.732211    22.671237     25.58331 
   48000    236.64545   -376.26706    216009.12   -18614.053    1376.2259   -19990.279   -1038.7724    329.03887    78.732834    22.672862    25.583987 
   48200     247.6691   -296.06528    216009.12   -18622.543    1440.3346   -20062.877   -691.93957     329.6561    78.733624    22.673503    25.604188 
   48400     240.1539   -267.00291    216009.12   -18613.495    1396.6295   -20010.124   -570.09527    330.88532    78.735325    22.672526    25.593673 
   48600    233.19623   -321.25258    216009.12   -18675.802    1356.1667   -20031.968   -772.41946    331.58541    78.737474    22.673984    25.618931 
   48800     236.5482   -327.89287    216009.12   -18668.898    1375.6603   -20044.558   -795.30393    330.79665    78.738769    22.674951    25.624399 
   49000    240.92373   -501.26107    216009.12   -18604.051    1401.1065   -20005.157   -1555.9594    332.35125    78.739851    22.675405    25.639689 
   49200    245.55527   -334.25056    216009.12    -18555.65    1428.0415   -19983.692   -799.08274    332.99876    78.740165     22.67478     25.65025 
   49400    241.46887   -256.31907    216009.12   -18599.303    1404.2768    -20003.58   -519.20571     333.7913    78.739659    22.674801    25.642807 
   49600    240.52476    -333.5324    216009.12   -18614.604    1398.7863   -20013.391   -822.71493    335.07246    78.739741    22.675909    25.640169 
   49800    239.17132   -260.57457    216009.12   -18611.333    1390.9153   -20002.249   -539.41031    334.30944    78.740344    22.678251    25.664256 
   50000    235.37393   -460.28267    216009.12   -18576.385    1368.8313   -19945.216   -1380.3552    336.00361    78.739191     22.67936    25.663711 
   50200    244.70238   -264.80644    216009.12   -18549.195    1423.0815   -19972.277   -537.75792    335.93053    78.740423    22.680105    25.667614 
   50400    241.31558   -349.15555    216009.12   -18582.452    1403.3853   -19985.837   -866.29377    339.09432    78.740234    22.677722    25.675316 
   50600    247.55942   -436.12404    216009.12   -18498.585    1439.6968   -19938.282   -1302.6784    340.27367    78.740188     22.67683    25.668181 
   50800    235.33535   -329.95874    216009.12   -18637.643     1368.607    -20006.25   -803.81183    339.14915    78.739824    22.675957    25.674062 
   51000    240.53832   -375.68543    216009.12   -18611.544    1398.8651    -20010.41   -1014.5374    340.08576     78.74171     22.67549    25.680261 
   51200    240.35651   -206.47959    216009.12   -18640.227    1397.8078   -20038.035   -351.89805    342.12312    78.742878    22.676394     25.68123 
   51400    238.62586   -161.80897    216009.12   -18611.371    1387.7431   -19999.114   -150.67793    343.65737    78.746164    22.677513    25.708421 
   51600    232.87049   -261.19526    216009.12   -18642.696    1354.2724   -19996.968    -534.0745    344.71937    78.742804    22.679967    25.715451 
   51800     245.1856   -442.32995    216009.12   -18600.478    1425.8917   -20026.369   -1314.6147    343.97805    78.742556    22.682923    25.723192 
   52000    233.67226     -218.718    216009.12   -18670.166    1358.9351   -20029.101   -351.26274    345.19905    78.741239     22.68326    25.714408 
   52200    231.92658   -312.84246    216009.12   -18668.352    1348.7831   -20017.135    -762.0589    347.55507    78.740375    22.683053    25.715592 
   52400    237.35046   -231.16272    216009.12   -18668.608     1380.326   -20048.934   -387.73938    348.32765    78.740926    22.684234    25.724717 
   52600     240.4795    -148.0059    216009.12   -18570.821    1398.5231   -19969.344   -69.936013    348.58902     78.74069    22.681233     25.73413 
   52800    243.01432   -399.69975    216009.12    -18509.86    1413.2644   -19923.124   -1141.2134    351.05055    78.741826    22.679557    25.726918 
   53000    244.74772   -267.67033    216009.12   -18519.681    1423.3452   -19943.026   -575.00053    351.17129     78.74081     22.68078    25.726082 
   53200    234.47962   -320.81451    216009.12   -18643.714    1363.6304   -20007.344    -769.9854    353.13716    78.739406    22.682502    25.718614 
   53400    239.80212    -212.1292    216009.12   -18596.493    1394.5837   -19991.077   -304.52713    353.31905    78.739903    22.679542     25.71146 
   53600    231.39635   -344.40723    216009.12   -18666.948    1345.6995   -20012.648   -857.34539    354.48616    78.741206    22.677167     25.71522 
   53800    239.42302   -248.49742    216009.12   -18604.753    1392.3791   -19997.132   -487.96899    354.59861    78.739726    22.676047    25.727312 
   54000    247.14538   -351.12341    216009.12    -18591.79    1437.2889   -20029.079   -858.43886    354.52663    78.738291    22.676466    25.710691 
   54200    237.08451   -271.04432    216009.12    -18555.05    1378.7793   -19933.829   -596.41414    355.57916    78.737933    22.678209    25.715907 
   54400    246.73115   -233.98641    216009.12   -18463.646    1434.8799   -19898.526   -398.88032    357.91599    78.739441    22.680403    25.714693 
   54600    243.11635   -248.68937    216009.12   -18514.562    1413.8578    -19928.42   -487.47504    360.10253    78.737032    22.682091    25.727798 
   54800    244.67771   -373.85353    216009.12   -18497.895     1422.938   -19920.833   -1060.1583    362.90628    78.736149    22.682064      25.7345 
   55000    248.19621   -221.37798    216009.12   -18481.625    1443.4001   -19925.025   -361.03383    363.33328    78.737058    22.681464    25.715971 
   55200    236.74805   -304.54289    216009.12   -18633.009    1376.8226   -20009.831   -721.07559    364.86875    78.734993    22.677357    25.726399 
   55400    249.81037   -225.40179    216009.12   -18597.809    1452.7873   -20050.597   -373.51502     364.9247    78.733892    22.675941    25.746673 
   55600    244.02508   -297.07631    216009.12   -18595.727    1419.1426    -20014.87   -697.29846    365.42217    78.730584    22.677238    25.729106 
   55800    252.68886   -339.46252    216009.12   -18497.103    1469.5274   -19966.631   -889.85807    367.78028    78.730474    22.679103    25.745249 
   56000      245.925   -335.27032    216009.12    -18532.22    1430.1917   -19962.411   -860.93747    370.04078    78.729838    22.678789     25.75405 
   56200    239.25061   -275.43572    216009.12   -18501.731    1391.3764   -19893.107   -601.25722     370.0022     78.72953     22.68065    25.734764 
   56400    237.81981   -300.75201    216009.12    -18593.57    1383.0555   -19976.626   -692.97663    370.72224     78.73079    22.680836    25.708418 
   56600    233.92634   -398.46657    216009.12    -18660.28    1360.4128   -20020.692   -1097.1264    370.82534     78.73014    22.680438    25.689453 
   56800    234.25609   -375.93243    216009.12   -18578.735    1362.3304   -19941.065   -997.68077    372.43951    78.729661    22.682708    25.683113 
   57000    240.63772   -455.31612    216009.12   -18631.327    1399.4432    -20030.77   -1358.0071    374.28806    78.729378    22.682246    25.676402 
   57200    245.39484    -319.3148    216009.12    -18569.78    1427.1085   -19996.888   -740.69217    375.46882    78.726057    22.681251    25.653193 
   57400    237.93568   -309.41454    216009.12   -18606.539    1383.7293   -19990.268   -771.81255    374.50537    78.724465    22.683103    25.642214 
   57600    232.23851   -313.61685    216009.12   -18622.306    1350.5971   -19972.903   -715.17947    372.85057    78.724897    22.685424    25.645553 
   57800    237.75152   -305.79963    216009.12     -18583.4    1382.6583   -19966.059   -723.88417    373.45988    78.724628    22.684128    25.618507 
   58000    236.41193   -477.97723    216009.12   -18611.697    1374.8679   -19986.564   -1481.1829    374.14197    78.724894    22.683547    25.632643 
   58200    241.73848    -439.1893    216009.12   -18583.772    1405.8448   -19989.617   -1263.4016    376.93806    78.723281    22.683334    25.644806 
   58400    242.49779      -361.34    216009.12   -18614.155    1410.2605   -20024.415   -967.53078    378.32103    78.724481    22.681459    25.638736 
   58600    242.45788   -354.11596    216009.12   -18668.163    1410.0285   -20078.192   -922.84936     379.8844    78.722983     22.68074    25.638641 
   58800     235.8087   -296.30601    216009.12   -18625.744    1371.3598   -19997.104   -686.99837    379.76631    78.722413     22.68055    25.633341 
   59000    244.76909   -520.92025    216009.12   -18552.443    1423.4694   -19975.912   -1644.6159    380.52508    78.722342    22.680404    25.633018 
   59200     241.6461   -301.75073    216009.12   -18607.744    1405.3075   -20013.051   -672.50036    380.41461    78.722032    22.679433    25.618486 
   59400    237.55915   -118.27262    216009.12   -18601.642    1381.5396   -19983.182    69.733704    381.10086    78.721305    22.679643    25.596248 
   59600    231.72322   -254.65548    216009.12   -18644.842    1347.6004   -19992.443   -474.25247    383.93058    78.720943    22.681563    25.630633 
   59800    236.64539   -407.81475    216009.12   -18605.962    1376.2256   -19982.188   -1186.6077    383.90786    78.722146     22.68484    25.648031 
   60000    239.13226   -350.27369    216009.12   -18583.192    1390.6881    -19973.88   -891.27073    380.75826    78.722532    22.684404    25.632187 
   60200    235.00251   -274.23494    216009.12   -18591.678    1366.6713    -19958.35   -553.09632    382.22131    78.722611     22.68333    25.602381 
   60400    239.02591   -421.72318    216009.12   -18550.448    1390.0696   -19940.518   -1201.6843    384.49019    78.722719    22.683022     25.60717 
   60600    246.05798   -180.81356    216009.12   -18530.164     1430.965   -19961.129    -132.4687    384.85299     78.72191    22.681751    25.598149 
   60800    239.70487   -376.30722    216009.12   -18488.516    1394.0182   -19882.534   -1023.1312    387.41606    78.721479    22.680388    25.595408 
   61000    236.61309   -216.90123    216009.12   -18569.483    1376.0377   -19945.521   -354.42139     388.1458    78.723066    22.678652    25.595714 
   61200    239.55744   -254.33529    216009.12   -18501.133    1393.1608   -19894.294   -511.01552    390.18155    78.723059    22.679775     25.59944 
   61400    239.91099   -229.79182    216009.12   -18531.921    1395.2169   -19927.138   -443.13254     389.9239    78.724191    22.678752    25.599615 
   61600    241.06663   -309.38604    216009.12   -18535.844    1401.9375   -19937.782   -732.38189    393.43732    78.723898    22.675916    25.610878 
   61800    235.68595    -318.0561    216009.12   -18588.518    1370.6459   -19959.164   -766.94027    394.87327    78.724054    22.674187    25.596992 
   62000    235.85304   -216.94295    216009.12   -18539.779    1371.6176   -19911.397   -383.90693    394.14113    78.724689    22.672516    25.601527 
   62200    242.45598   -418.42403    216009.12   -18548.617    1410.0174   -19958.634    -1213.645    394.81456    78.724587    22.673052    25.609124 
   62400    244.47426   -374.00844    216009.12   -18577.031    1421.7548   -19998.786   -1033.8264    394.42968    78.724076    22.674481     25.61069 
   62600    237.90643   -230.47757    216009.12   -18625.848    1383.5592   -20009.407   -396.92025    396.85824    78.724292    22.676455    25.638593 
   62800    236.75371   -109.29839    216009.12   -18681.534    1376.8555   -20058.389    104.60732    398.05951     78.72487    22.680405    25.630611 
   63000    241.10133    -363.0893    216009.12   -18586.884    1402.1394   -19989.024   -960.82884    400.19222    78.723202    22.680712    25.617656 
   63200    241.50495   -254.12535    216009.12   -18603.381    1404.4866   -20007.867   -537.16681    400.92464    78.724321    22.680851    25.615199 
   63400    233.03009   -296.79586    216009.12    -18658.78    1355.2006    -20013.98   -699.62072    403.60025     78.72683    22.682069     25.60665 
   63600    239.71111   -272.48435    216009.12   -18640.503    1394.0544   -20034.558   -594.94866    406.53436    78.726601    22.681092    25.637517 
   63800      232.685    -133.9888    216009.12    -18678.77    1353.1937   -20031.964    47.146803    404.70822    78.726592    22.682286    25.632152 
   64000    241.01985   -300.17067    216009.12   -18576.794    1401.6655    -19978.46    -668.2822    405.84093    78.724843    22.683859    25.624247 
   64200    236.88851   -369.38789    216009.12   -18615.776    1377.6394   -19993.415    -993.0999    408.25318    78.723859    22.683721    25.633733 
   64400    234.93579   -358.15375    216009.12   -18630.742    1366.2833   -19997.026   -945.33602    409.32923    78.722723    22.682246    25.637643 
   64600    232.91977   -424.74025    216009.12   -18643.588     1354.559   -19998.147   -1231.1364    410.43107     78.72127    22.681945    25.639011 
   64800    235.76305    -401.2603    216009.12   -18633.621    1371.0943   -20004.715   -1132.2873    410.46767    78.721165    22.685035    25.634292 
   65000    243.53775   -159.37131    216009.12   -18555.164    1416.3085   -19971.472   -60.394294    408.48943    78.721314    22.686429    25.637738 
   65200    238.55447   -334.73543    216009.12   -18614.914    1387.3279   -20002.242   -815.38132    411.55034    78.722218    22.687492    25.624446 
   65400    244.62918   -14.835816    216009.12   -18640.014    1422.6558    -20062.67    500.31394     411.8209    78.723905     22.68912    25.637104 
   65600     243.1182   -239.09682    216009.12    -18567.43    1413.8686   -19981.299   -420.77789    415.49743    78.722591    22.690252     25.65772 
   65800    247.87225   -247.93081    216009.12   -18598.442     1441.516   -20039.958   -456.15743    414.95444    78.723825    22.693235    25.677384 
   66000    234.55872    -452.5441    216009.12   -18621.606    1364.0904   -19985.696   -1321.5922     417.5442    78.725619    22.695623    25.674665 
   66200    237.94095    -149.0709    216009.12   -18680.632      1383.76   -20064.392   -64.520717    418.38756    78.724817    22.698584     25.66447 
   66400    237.48186   -188.46439    216009.12   -18677.219    1381.0901    -20058.31   -181.36213    420.78323    78.724155    22.701076    25.672398 
   66600    239.48208    -193.6946    216009.12    -18683.94    1392.7225   -20076.662   -208.07126    422.22958    78.726267    22.702877    25.681614 
   66800    234.91522   -321.00527    216009.12   -18689.929    1366.1636   -20056.093   -771.37511    424.10037    78.728168    22.702284    25.655628 
   67000    230.69847   -194.43319    216009.12    -18730.18    1341.6409   -20071.821   -218.72419     425.3224    78.726688    22.703932    25.676538 
   67200    244.91828    -352.7615    216009.12   -18661.401     1424.337   -20085.738   -879.36458    426.79804    78.726233    22.706496    25.674584 
   67400    242.21651   -342.27617    216009.12   -18626.237    1408.6247   -20034.862   -820.00869    428.76226     78.72528    22.708789    25.669766 
   67600    239.41812   -251.31755    216009.12    -18559.36    1392.3506   -19951.711   -467.46379    430.42481    78.725275    22.708715    25.654275 
   67800    239.59437   -176.72208    216009.12   -18627.717    1393.3755   -20021.092   -189.48359    431.71588    78.727046    22.705665    25.670511 
   68000    235.56189   -344.29312    216009.12   -18644.867    1369.9244   -20014.791   -825.05717    433.29473     78.72783    22.707768    25.664794 
   68200      236.424   -372.48716    216009.12   -18630.274    1374.9381   -20005.212   -988.83834    433.80938    78.727445    22.710592    25.660417 
   68400    237.60386   -415.17485    216009.12   -18549.465    1381.7996   -19931.265    -1151.056    433.98288    78.730695    22.711485    25.658686 
   68600     238.4557    -459.6749    216009.12   -18602.991    1386.7535   -19989.745   -1301.1685    434.84963    78.732434    22.713246    25.641096 
   68800    238.44777   -385.63469    216009.12     -18578.9    1386.7074   -19965.608   -1063.4921    436.01873    78.731459    22.714481    25.632809 
   69000    241.50933   -287.13946    216009.12   -18590.855    1404.5121   -19995.367   -604.25127    433.74757    78.730955    22.711564     25.63273 
   69200     232.0322   -219.74475    216009.12   -18650.334    1349.3973   -19999.732   -319.26218    434.30766     78.73072     22.71131    25.613514 
   69400    236.52326   -298.52611    216009.12   -18693.992    1375.5153   -20069.507   -687.54788    437.49441     78.73121    22.710935    25.611983 
   69600    246.18079   -348.24272    216009.12   -18530.503    1431.6793   -19962.182   -850.24594    438.15887    78.730511    22.710848    25.600157 
   69800     234.3683   -392.86887    216009.12   -18649.054     1362.983   -20012.037   -1072.2945    441.08561    78.730737    22.712272    25.591278 
   70000     241.0666   -179.91225    216009.12    -18592.37    1401.9374   -19994.307   -181.30458     441.8195    78.730582    22.711468    25.589201 
   70200    240.21478   -517.12831    216009.12   -18571.023    1396.9836   -19968.006   -1656.2159    442.95808     78.72966    22.709976    25.587135 
   70400    241.89973   -354.87328    216009.12   -18535.759    1406.7825   -19942.542   -884.95877    441.85245    78.729401     22.71201    25.606325 
   70600    238.70729   -318.56775    216009.12   -18614.346    1388.2167   -20002.563   -724.75097    440.93922    78.729685    22.713621    25.586688 
   70800    233.01936   -261.31639    216009.12   -18659.984    1355.1382   -20015.122    -536.5153    442.09653    78.729264    22.715714    25.561864 
   71000    241.27763   -319.26008    216009.12   -18674.776    1403.1646    -20077.94    -805.3513    444.28457    78.729789    22.718444    25.558495 
   71200    243.54155   -304.01382    216009.12   -18656.353    1416.3306   -20072.683    -708.7603    445.85795      78.7304    22.720282    25.578481 
   71400     237.1605    -338.1621    216009.12   -18731.242    1379.2212   -20110.464   -835.75332    446.65696    78.729104      22.7216     25.57351 
   71600    240.44229   -284.83452    216009.12    -18667.29    1398.3066   -20065.597   -611.52537    449.72321    78.727111    22.720156    25.570479 
   71800     228.9888   -310.48492    216009.12   -18725.974    1331.6982   -20057.673   -763.93395    448.47924    78.728414    22.719594    25.599238 
   72000     231.8038   -257.91249    216009.12   -18666.633     1348.069   -20014.702   -506.37845    448.08651    78.728075    22.717398    25.615846 
   72200    242.80836   -229.06997    216009.12   -18528.767    1412.0667   -19940.834   -382.86474    448.51971    78.729211    22.715834    25.618717 
   72400    244.51109   -268.43011    216009.12   -18601.419     1421.969   -20023.388   -538.56083    449.06865    78.729836    22.716542    25.609314 
   72600    238.17124   -387.87015    216009.12   -18587.096    1385.0992   -19972.195   -1051.1228    449.91711    78.729141    22.718656     25.56299 
   72800    242.28679   -365.58708    216009.12   -18612.567    1409.0335     -20021.6   -956.83569    449.61593    78.731061    22.717808    25.539141 
   73000    234.34294   -306.08493    216009.12    -18631.49    1362.8355   -19994.326   -740.80479    452.50253    78.733214    22.716973    25.555761 
   73200    246.18458   -334.25827    216009.12   -18522.891    1431.7013   -19954.592   -889.72897    452.41909    78.732984    22.716194    25.571942 
   73400    245.38188   -440.33368    216009.12   -18531.967    1427.0331       -19959   -1274.9732    452.60546    78.733433    22.716623      25.5358 
   73600    243.27185   -405.54126    216009.12   -18525.098    1414.7621    -19939.86   -1172.1414    453.26658    78.734483    22.715447    25.548193 
   73800    232.85404   -288.61175    216009.12   -18606.346    1354.1767   -19960.523   -679.05049    451.04687    78.735005    22.715129    25.557148 
   74000    234.68766   -408.27717    216009.12   -18596.559    1364.8402   -19961.399   -1160.1782    453.57028    78.733893    22.714584    25.539377 
   74200    239.92997   -219.33075    216009.12   -18531.111    1395.3272   -19926.438   -366.47529    453.81085    78.733034    22.713652    25.523678 
   74400    243.59162   -350.81601    216009.12   -18533.614    1416.6218   -19950.236    -918.5703    455.15795    78.732397    22.712534    25.521435 
   74600     243.1461    -188.1018    216009.12   -18588.875    1414.0308   -20002.906   -210.08447    455.69565     78.73156    22.714102    25.517643 
   74800    242.55939   -299.02498    216009.12   -18598.261    1410.6188    -20008.88   -714.30744    457.69046    78.730984    22.714498    25.512325 
   75000    239.72836   -333.98309    216009.12   -18598.368    1394.1548   -19992.522   -864.22908    458.22428    78.731986    22.716706     25.51321 
   75200    243.13744   -366.50241    216009.12   -18558.566    1413.9805   -19972.547   -957.59802    460.09239    78.728722    22.717487    25.520603 
   75400     241.2968    -383.7075    216009.12    -18583.57    1403.2761   -19986.847   -1090.6063    460.16994     78.72895    22.715005    25.530038 
   75600    244.55685   -348.20593    216009.12   -18581.914    1422.2351   -20004.149   -931.99679    458.94496     78.72706    22.715848    25.516253 
   75800    243.56278   -192.49034    216009.12   -18522.748    1416.4541   -19939.202   -257.15836    461.29336    78.726648    22.717416    25.502986 
   76000    241.35408    -273.0566    216009.12    -18516.29    1403.6092   -19919.899    -639.9309     463.0388    78.727321    22.718498    25.508493 
   76200    234.38725   -254.01914    216009.12   -18622.061    1363.0932   -19985.154   -503.29874    463.24279    78.727151    22.717333    25.511871 
   76400    235.45353   -507.17231    216009.12   -18578.463    1369.2942   -19947.757   -1567.0444    465.88086    78.727617    22.715733    25.524668 
   76600    239.76989   -295.02679    216009.12   -18577.961    1394.3963   -19972.358   -698.65609    466.72514    78.729207    22.717091    25.520129 
   76800    235.07993    -349.2222    216009.12   -18623.849    1367.1215    -19990.97   -893.13084     470.6691    78.730241    22.715787    25.494673 
   77000    235.85924   -233.56671    216009.12   -18591.084    1371.6537   -19962.738   -452.23766    471.67029    78.731675    22.716728    25.500013 
   77200    242.44789   -240.07573    216009.12   -18537.044    1409.9704   -19947.015   -427.49833    475.38754    78.732021    22.718151    25.494112 
   77400    240.00137   -377.03788    216009.12     -18564.7    1395.7425   -19960.442   -1101.7788    475.83024    78.732065    22.717586    25.489957 
   77600    238.56125   -133.17412    216009.12   -18632.007    1387.3674   -20019.375    -27.78694    477.09591    78.732443    22.717808    25.477473 
   77800    241.83527   -301.60213    216009.12   -18607.787    1406.4076   -20014.195   -688.94798    478.64454    78.731914    22.718664    25.476851 
   78000    239.59663   -315.27009    216009.12   -18651.088    1393.3887   -20044.477   -746.48741     475.3626    78.732352    22.718428    25.492114 
   78200    238.59479   -462.63883    216009.12   -18588.538    1387.5624   -19976.101   -1402.4428    477.57494    78.733001    22.719033    25.481271 
   78400    232.61438   -337.31294    216009.12   -18580.783     1352.783   -19933.566   -826.72943    476.45863    78.735944    22.719093    25.482814 
   78600     241.5863   -174.36274    216009.12   -18567.427    1404.9597   -19972.387   -158.07464    479.57075    78.737101    22.720265    25.496613 
   78800    241.89497   -409.02543    216009.12   -18601.885    1406.7548    -20008.64   -1159.5008    481.34562    78.738789    22.719366    25.511302 
   79000     242.1797   -278.55473    216009.12   -18584.971    1408.4107   -19993.381   -609.78567    484.30378    78.737121    22.719148    25.524483 
   79200     248.3684   -449.89913    216009.12   -18570.944    1444.4014   -20015.346   -1340.4468    486.61116    78.736904    22.719956    25.533626 
   79400    246.21805   -230.37733    216009.12   -18576.942     1431.896   -20008.837   -418.27935     488.9144    78.738781    22.717249    25.532803 
   79600    234.56353    -285.3521    216009.12   -18650.916    1364.1184   -20015.034   -658.26786    486.95068    78.739763    22.716491    25.525167 
   79800    235.91865   -310.67417    216009.12   -18641.334    1371.9992   -20013.334   -791.86057    487.64079    78.742639    22.715287    25.537023 
   80000    242.48115   -234.62574    216009.12   -18614.111    1410.1638   -20024.275   -420.70769    487.72682    78.744339    22.715271    25.546814 
   80200    237.59527   -248.37283    216009.12    -18612.41    1381.7496   -19994.159   -480.71568    492.04374     78.74503     22.71442    25.525342 
   80400    242.89916    -288.6809    216009.12   -18642.975    1412.5947    -20055.57   -627.60892    492.19037    78.746329    22.714215    25.533273 
   80600     245.0776   -281.51124    216009.12   -18632.408    1425.2636   -20057.671    -657.7754    492.89719     78.74429    22.713303     25.51836 
   80800    237.42715   -203.79433    216009.12   -18625.613     1380.772   -20006.385   -269.91239    493.83851    78.745156    22.711321    25.543234 
   81000    239.19441   -448.50504    216009.12   -18579.769    1391.0495   -19970.819   -1317.8313    495.34649    78.744262    22.710558    25.564285 
   81200    240.62784   -473.82218    216009.12   -18578.752    1399.3858   -19978.137   -1417.4445    494.60502     78.74099      22.7093    25.560601 
   81400     244.4565   -331.39681    216009.12   -18588.883    1421.6515   -20010.534   -827.11486    493.61055    78.738906    22.708402    25.549029 
   81600    236.56506   -352.32288    216009.12   -18635.033    1375.7584   -20010.791   -900.54572    493.94275    78.739804    22.707377    25.560393 
   81800    234.84012   -436.04426    216009.12   -18705.393    1365.7269    -20071.12   -1256.7946    492.66203    78.740314     22.70544    25.569617 
   82000     243.3314   -166.40005    216009.12   -18625.283    1415.1085   -20040.391   -169.35411    493.15506     78.74353    22.704022    25.573315 
   82200     240.7071   -321.87248    216009.12   -18559.458    1399.8467   -19959.305   -783.53937    497.34685    78.745433    22.704499    25.577681 
   82400    237.52602   -257.95953    216009.12   -18559.426    1381.3469   -19940.773   -513.94352    498.93202    78.742258    22.704052     25.58806 
   82600    244.25096   -389.63062    216009.12   -18476.188    1420.4562   -19896.645   -1030.2468    501.14742    78.741984    22.704763    25.606489 
   82800    236.62806   -449.42252    216009.12   -18597.339    1376.1248   -19973.464   -1330.2145     503.9349     78.74146     22.70504    25.619622 
   83000    245.07247   -334.93625    216009.12   -18540.651    1425.2337   -19965.885   -880.56498    504.96488    78.739977    22.704974    25.647854 
   83200    237.20148   -420.87714    216009.12   -18543.179    1379.4595   -19922.638   -1211.8089    507.42345    78.739148    22.705351    25.667238 
   83400     237.7213   -242.44741    216009.12   -18575.412    1382.4826   -19957.894   -499.25979    506.85502    78.737307    22.706336    25.660373 
   83600    239.82831   -193.54826    216009.12   -18634.904     1394.736    -20029.64   -232.45382     505.9124    78.736923    22.705582    25.667802 
   83800     238.4116   -216.40442    216009.12   -18607.383    1386.4971    -19993.88   -354.83805    508.16737    78.733963    22.705987     25.65068 
   84000    240.79164   -376.67463    216009.12   -18596.315    1400.3383   -19996.653    -1032.317    507.00337    78.732781      22.7067    25.648725 
   84200     237.9203   -322.77159    216009.12    -18606.72    1383.6399    -19990.36   -835.82071     507.3938    78.729454    22.707133    25.669837 
   84400    241.19223   -329.69097    216009.12   -18629.029     1402.668   -20031.696   -806.96773    506.77295    78.727082    22.709034    25.671553 
   84600    240.09468   -313.58288    216009.12   -18550.046    1396.2851   -19946.331   -736.90754    504.12235    78.724559    22.710839     25.66112 
   84800     243.5763   -370.70575    216009.12   -18578.693    1416.5327   -19995.226   -1019.8824    506.86927    78.723918    22.711222    25.673526 
   85000    243.31386   -260.56004    216009.12   -18587.471    1415.0065   -20002.478   -551.97789    510.10534    78.721279    22.710601    25.675643 
   85200    243.24539   -449.89201    216009.12   -18626.881    1414.6082    -20041.49   -1330.0132    511.09943    78.718982    22.709314    25.697289 
   85400    235.36928   -328.63232    216009.12   -18668.202    1368.8042   -20037.006   -839.55573    511.20773    78.718826    22.708345    25.729484 
   85600    236.33377   -437.00044    216009.12   -18663.284    1374.4133   -20037.698   -1279.4671     513.9944    78.717478    22.706922    25.752303 
   85800    237.37502   -373.59365    216009.12   -18571.769    1380.4688   -19952.238   -1026.0784    515.20047    78.717627    22.708884    25.717976 
   86000    236.35293   -296.41595    216009.12    -18617.99    1374.5248   -19992.515   -675.83582    515.25801    78.719074    22.708202    25.728841 
   86200    246.82687   -386.27841    216009.12   -18593.669    1435.4365   -20029.105   -1011.2542    515.58769    78.718561       22.711    25.737483 
   86400    237.11771   -405.88845    216009.12   -18656.211    1378.9724   -20035.184   -1140.0777    514.66011     78.71815    22.713154     25.73997 
   86600    253.90561   -251.14863    216009.12   -18573.164    1476.6034   -20049.768   -476.99865    514.78119    78.716618    22.715265    25.737368 
   86800    238.50272   -294.34117    216009.12   -18618.562     1387.027   -20005.589   -667.93054    512.76727    78.716169    22.715345    25.710615 
   87000    245.16612   -264.85653    216009.12   -18617.066    1425.7784   -20042.844     -569.237    514.00306    78.717668     22.71436    25.685794 
   87200    240.64677   -488.25766    216009.12    -18618.86    1399.4958   -20018.356   -1531.4122    514.88495    78.715021    22.715472     25.67641 
   87400    238.98775   -356.16598    216009.12   -18637.201    1389.8477   -20027.049   -911.85247    513.63045    78.714481    22.718866    25.695682 
   87600    233.48941   -294.08461    216009.12   -18616.252    1357.8718   -19974.124   -652.80422    514.54561    78.713344    22.718868    25.696291 
   87800    236.90244   -409.98472    216009.12   -18626.772    1377.7204   -20004.492   -1199.5036    516.22372    78.711932    22.718991    25.711888 
   88000    233.40893   -345.89121    216009.12   -18574.765    1357.4037   -19932.169   -863.63244    516.13041    78.712813    22.718028    25.721169 
   88200    233.97951    -324.0578    216009.12   -18624.409     1360.722   -19985.131   -792.11924     518.5728      78.7138    22.719117    25.713559 
   88400     236.7824    -340.2554    216009.12    -18574.46    1377.0224   -19951.483   -872.01319    521.02952    78.713133    22.722444    25.701343 
   88600    240.31678   -295.72508    216009.12   -18574.472    1397.5767   -19972.049   -702.32189    518.90541     78.71241    22.721793    25.700086 
   88800    236.58598    -442.6594    216009.12   -18661.453      1375.88   -20037.333     -1288.09     520.7768     78.71259    22.723474    25.695801 
   89000    234.74411   -352.00742    216009.12   -18615.021    1365.1686   -19980.189    -920.8496    521.11464    78.712405    22.725613     25.69334 
   89200    238.51736   -404.54978    216009.12   -18618.443    1387.1121   -20005.555   -1224.5111    520.81345    78.711529    22.727831    25.672357 
   89400    241.42789   -457.92259    216009.12   -18603.955    1404.0384   -20007.994   -1352.5203    521.41264    78.710212    22.729655    25.646708 
   89600    236.02876    -267.9075    216009.12   -18684.833    1372.6395   -20057.472   -587.05761    521.14743    78.710476    22.730649    25.646835 
   89800    242.21332   -409.66479    216009.12   -18562.097    1408.6062   -19970.704   -1129.8804    521.99982    78.710212    22.732144    25.653133 
   90000    245.10373   -107.15792    216009.12    -18622.54    1425.4156   -20047.955    72.770524    520.81985    78.709454    22.730061    25.667096 
   90200    234.32775   -246.62907    216009.12   -18645.523    1362.7472    -20008.27   -419.23292    522.82075    78.710221    22.729274    25.664268 
   90400    239.18186   -260.86982    216009.12   -18598.054    1390.9766   -19989.031   -469.22324    523.11318    78.710197    22.727168    25.682742 
   90600    242.56246   -338.84901    216009.12   -18588.805    1410.6366   -19999.442   -842.81137    524.57607    78.709271    22.724397    25.680748 
   90800    241.08953   -296.16953    216009.12   -18612.995    1402.0707   -20015.065   -658.42412    524.64868    78.710484     22.72481    25.675755 
   91000    239.40507   -405.31855    216009.12   -18641.573    1392.2746   -20033.848   -1106.7054    527.22733    78.711626     22.72549    25.662797 
   91200    232.67727   -309.16562    216009.12    -18697.93    1353.1487   -20051.078   -723.96015     527.7405    78.711585    22.726886    25.654754 
   91400    236.30715   -199.40318    216009.12   -18663.024    1374.2585   -20037.282   -262.41282    529.15702    78.709461    22.726323    25.636111 
   91600    238.16764   -297.61669    216009.12   -18552.335    1385.0783   -19937.413   -673.07427    527.53456    78.710486    22.725306    25.636154 
   91800    245.67442   -438.67405    216009.12    -18552.05    1428.7344   -19980.785   -1243.1684    531.03893    78.710991    22.725011    25.645001 
   92000    243.21108   -220.29129    216009.12   -18602.362    1414.4087   -20016.771   -361.85913    532.42873     78.70979    22.725811     25.63567 
   92200    238.26775   -380.39842    216009.12   -18614.682    1385.6605   -20000.342   -1033.5536    533.38837    78.706199    22.726193    25.647295 
   92400    238.71997   -419.59227    216009.12   -18594.559    1388.2904   -19982.849   -1204.9956    533.89431    78.704897    22.725821     25.66865 
   92600     241.3171   -384.09368    216009.12    -18515.84    1403.3941   -19919.235   -1065.8905    533.32746     78.70472    22.726943    25.672981 
   92800     236.7361   -111.76255    216009.12    -18598.37    1376.7531   -19975.123    124.85111    534.00667    78.703278    22.726437    25.676013 
   93000    252.74031   -366.73384    216009.12   -18669.552    1469.8265   -20139.378   -958.04952    534.59772    78.703179    22.728096    25.658439 
   93200     236.5491   -354.10689    216009.12   -18674.746    1375.6656   -20050.412   -918.71436    535.10994    78.703581     22.72857    25.626268 
   93400    230.48446   -220.62056    216009.12   -18732.533    1340.3963    -20072.93   -330.83579    538.26741    78.702138    22.728379    25.606898 
   93600    244.93661   -397.23712    216009.12   -18672.655    1424.4437   -20097.099   -1123.9652    540.63677    78.700235    22.728984    25.607544 
   93800    237.87403   -453.71546    216009.12   -18684.515    1383.3708   -20067.886   -1410.2772    542.71192    78.700492    22.727848    25.622058 
   94000    236.61677   -277.27907    216009.12   -18674.152    1376.0591   -20050.211   -598.67975    542.34447    78.700014    22.724282    25.646758 
   94200    245.07666   -366.80047    216009.12   -18637.068    1425.2581   -20062.327   -957.53347    544.24221    78.702409    22.725551    25.647149 
   94400    240.08376   -359.83777    216009.12   -18660.575    1396.2216   -20056.797   -920.15342    541.50229    78.702164    22.723602     25.66849 
   94600    237.98236   -270.32816    216009.12   -18694.414    1384.0008   -20078.415    -538.9643    541.90307    78.701576    22.722387    25.640842 
   94800    232.22733   -184.10195    216009.12   -18675.083    1350.5321   -20025.615   -201.90997    545.04038    78.701003    22.724645    25.656013 
   95000    241.64493   -175.07873    216009.12   -18663.554    1405.3007   -20068.855   -188.99968    546.32729    78.701152    22.726365    25.648971 
   95200    242.78271   -380.76056    216009.12   -18633.891    1411.9175   -20045.809   -1023.2259    548.33857      78.7022    22.727516    25.640472 
   95400    240.60464   -245.52115    216009.12   -18606.797    1399.2508   -20006.048   -489.62494     551.5411    78.701607    22.728174    25.625043 
   95600    231.37991   -256.96313    216009.12   -18558.688    1345.6038   -19904.292   -475.02535    553.13099    78.700833    22.726826     25.63795 
   95800    240.56198   -518.90051    216009.12   -18534.674    1399.0027   -19933.677   -1616.7216    556.79491    78.698153    22.724098    25.659798 
   96000    247.05867   -359.55674    216009.12   -18536.855    1436.7846    -19973.64   -949.43268    557.83133    78.698241     22.72095    25.652818 
   96200    242.73667   -245.89298    216009.12   -18502.248    1411.6498   -19913.898   -455.73854    562.73173    78.697024    22.719894     25.64498 
   96400    243.89115   -264.51509    216009.12   -18555.856    1418.3637    -19974.22   -571.70259     563.5828    78.697406    22.719075    25.642832 
   96600    241.10355   -188.50309    216009.12   -18629.202    1402.1523   -20031.354   -279.40367    562.58448    78.697606    22.716781    25.642256 
   96800    235.92056   -232.46394    216009.12   -18603.649    1372.0103   -19975.659   -434.24704    561.09972    78.698375    22.715414    25.607695 
   97000    237.18155   -382.59725    216009.12   -18639.416    1379.3436    -20018.76   -1059.4642    562.16094    78.697814    22.714602    25.618849 
   97200     239.3661   -449.19894    216009.12   -18577.313     1392.048   -19969.361   -1345.1909    565.15956    78.696504    22.713108    25.611483 
   97400    234.69897   -355.00613    216009.12   -18542.327    1364.9061   -19907.234   -961.52997    565.78288    78.695231    22.712656    25.613581 
   97600     244.1513   -206.37644    216009.12   -18492.674    1419.8766   -19912.551   -310.85385    568.97935    78.693704    22.714764    25.628486 
   97800    242.89828     -247.547    216009.12   -18526.172    1412.5896   -19938.762   -465.91095    568.63471    78.694053    22.718314    25.600207 
   98000    239.73191   -310.03978    216009.12   -18561.106    1394.1754   -19955.281   -774.52797    567.53275    78.693978    22.716392    25.593791 
   98200    237.11109   -381.20662    216009.12   -18586.556    1378.9339    -19965.49   -1083.1953    567.96153    78.692916    22.712888     25.61795 
   98400    242.03783   -269.43901    216009.12   -18575.411    1407.5856   -19982.997   -607.38898    569.60764    78.691829    22.713408    25.615534 
   98600    244.88086   -243.31623    216009.12   -18614.488    1424.1194   -20038.607   -485.80212    569.86274    78.690668    22.713288    25.608818 
   98800    246.56824    -374.5408    216009.12   -18561.768    1433.9325   -19995.701   -1014.6568    572.04557    78.690485    22.713855    25.593721 
   99000    242.94794   -176.73346    216009.12    -18585.68    1412.8784   -19998.559   -181.53622    570.40224    78.688486     22.71466    25.578194 
   99200    233.00921    -274.5259    216009.12   -18539.546    1355.0792   -19894.625    -640.2173    570.94901    78.687435    22.714455    25.564065 
   99400    225.66959   -375.24458    216009.12   -18571.213    1312.3951   -19883.608   -1038.6432    572.10682    78.690106    22.714887    25.597464 
   99600    241.91601    -154.5514    216009.12   -18521.841    1406.8772   -19928.718   -119.98487    575.02586    78.691717    22.711014    25.625688 
   99800    237.97257   -263.49179    216009.12   -18562.493    1383.9439   -19946.437   -550.93944    576.34117    78.691876    22.711566    25.619885 
  100000    242.88452   -338.55372    216009.12   -18561.068    1412.5096   -19973.577   -849.04997    577.72207    78.691113    22.713038    25.623925 
  100200    236.15153   -269.28046    216009.12   -18637.639    1373.3535   -20010.993   -550.97486    574.47807    78.691671    22.713412    25.643247 
  100400    237.46712   -379.58625    216009.12   -18594.143    1381.0044   -19975.147   -1016.3017     572.8763    78.692234     22.71447    25.648308 
  100600     235.5385   -143.77166    216009.12   -18603.538    1369.7884   -19973.326   -15.746201    573.72343    78.691021    22.714299    25.661655 
  100800    241.56669   -225.74591    216009.12   -18641.227    1404.8457   -20046.073    -368.8984    575.50352    78.689961    22.712215    25.667507 
[...]
 5175800    224.36842    -24.35403    216009.12   -20674.424    1304.8281   -21979.253    507.41254    8010.9746    78.447072    22.847399      25.6093 
 5176000    228.51628    137.33688    216009.12   -20665.371    1328.9502   -21994.322    1161.5942    8006.3447    78.447358    22.847042    25.607046 
 5176200    227.06755    123.01615    216009.12   -20675.915     1320.525    -21996.44    1087.3108    8006.5125    78.448294    22.846975    25.610726 
 5176400    225.34808   -46.263759    216009.12   -20699.908    1310.5254   -22010.433    412.34517    8011.2363    78.447593    22.846616    25.616467 
 5176600    230.37313    75.574704    216009.12   -20663.071    1339.7489    -22002.82    900.78169    8007.9912    78.446925    22.845848    25.612474 
 5176800    231.20684    150.07823    216009.12   -20635.973    1344.5973    -21980.57    1225.6453    8003.9571    78.446737    22.845212     25.60827 
 5177000    230.40029    2.4776953    216009.12   -20618.036    1339.9068   -21957.943    594.52304    8010.3177    78.447347    22.844473    25.613909 
 5177200    231.58161    84.428655    216009.12   -20646.561    1346.7769   -21993.338    939.15572    8008.2567    78.447732    22.844473    25.603155 
 5177400    226.68997    75.914664    216009.12   -20672.827    1318.3292   -21991.156    911.07766    8006.6342    78.447732    22.845028    25.605595 
 5177600    230.03723   -26.703881    216009.12   -20608.219    1337.7954   -21946.014    467.99583    8009.7946     78.44785    22.845198    25.605222 
 5177800    223.96908    65.655559    216009.12   -20649.674    1302.5057    -21952.18    850.07242    8009.0801    78.448079    22.845513    25.605904 
 5178000    227.86311    144.15046    216009.12   -20668.469    1325.1517   -21993.621      1190.41    8006.8796    78.447889    22.845392    25.597572 
 5178200    226.57793    7.8390408    216009.12   -20671.002    1317.6777    -21988.68    579.92837    8009.1152    78.448852    22.845405    25.599436 
 5178400    227.07007    36.308792    216009.12   -20686.082    1320.5397   -22006.621    738.98369     8006.625    78.448486       22.846    25.597278 
 5178600    222.96858    118.16413    216009.12   -20681.394    1296.6873   -21978.082    1079.1806    8004.1236     78.44795    22.845863    25.596239 
 5178800    234.46904   -8.6742892    216009.12   -20639.238    1363.5689   -22002.807    548.07846    8009.0498    78.447102    22.844832    25.598593 
 5179000    229.14146    51.729288    216009.12   -20663.897     1332.586   -21996.483    819.05081    8007.1139    78.447459    22.844623    25.602837 
 5179200    228.03014    120.37245    216009.12   -20640.116     1326.123   -21966.239    1134.0669    8006.0104    78.446988    22.843514    25.594063 
 5179400    222.18787    54.186737    216009.12   -20700.525     1292.147   -21992.672    800.60814    8005.5051    78.446628    22.842464    25.593459 
 5179600    229.49456    6.8116837    216009.12   -20594.653    1334.6395   -21929.292    624.85037    8008.8264    78.446513     22.84323    25.603445 
 5179800    227.43774    99.675871    216009.12   -20653.844    1322.6779   -21976.522    1026.6165    8007.5805    78.446173    22.842994    25.608437 
 5180000    227.73006    42.029748    216009.12    -20682.02    1324.3779   -22006.398    759.98939    8007.7164    78.445489    22.842258    25.604536 
 5180200    221.82399    19.328295    216009.12    -20742.74    1290.0308   -22032.771    673.40698    8009.1694    78.446149    22.842749    25.599792 
 5180400    221.36996    106.28097    216009.12    -20713.57    1287.3904    -22000.96    1059.8801    8006.4362    78.445403    22.842722    25.604648 
 5180600    221.11916      69.1209    216009.12   -20655.674    1285.9319   -21941.606    898.83494    8005.4445    78.445428    22.841302    25.600837 
 5180800    228.28328    6.7134849    216009.12   -20632.536    1327.5952   -21960.131    632.06934    8008.6567     78.44578    22.841684    25.593581 
 5181000    226.32574    56.053189    216009.12   -20675.203     1316.211   -21991.414    823.83803    8005.9431    78.445474    22.841834    25.595156 
 5181200    232.71361    162.64808    216009.12   -20677.326      1353.36   -22030.686    1279.6756    8006.5689    78.444711    22.841453    25.596582 
 5181400    214.91969   -35.718068    216009.12   -20709.449    1249.8784   -21959.328    434.77144    8009.2081    78.443725    22.841117    25.597738 
 5181600    226.97022    6.1345561    216009.12   -20652.163     1319.959   -21972.122    594.94397     8010.079    78.443188    22.841025    25.602321 
 5181800    225.47971    149.62622    216009.12   -20727.104    1311.2909   -22038.395    1218.1248    8007.1148    78.443227    22.840774    25.604412 
 5182000    231.81829    71.841637    216009.12    -20636.16    1348.1533   -21984.313    891.73573    8008.4746    78.443096    22.840106     25.60264 
 5182200    226.86025   -61.261452    216009.12   -20644.883    1319.3195   -21964.203    287.20665    8006.5859    78.442907    22.839432    25.601269 
 5182400    234.50886    77.855758    216009.12   -20639.089    1363.8004   -22002.889    876.70366    8006.9733    78.441798    22.838789    25.599593 
 5182600     224.0537    63.097867    216009.12   -20727.729    1302.9978   -22030.727    837.77284    8008.2092     78.44165    22.838337    25.597042 
 5182800    221.86758    -99.00318    216009.12   -20662.931    1290.2843   -21953.215    117.34462    8009.4554    78.440332    22.838116    25.597651 
 5183000    223.85645    156.17015    216009.12   -20656.188    1301.8507   -21958.038    1246.0334    8006.6069     78.43965    22.837555    25.599564 
 5183200    233.07502    115.68151    216009.12   -20615.361    1355.4618   -21970.823    1077.3563    8005.4292    78.439508    22.838056    25.599155 
 5183400    232.20211   -64.039764    216009.12   -20614.888    1350.3854   -21965.273    305.30863    8010.0806    78.440417    22.838241    25.593292 
 5183600    226.70234    96.151555    216009.12   -20705.685    1318.4012   -22024.087    973.56196    8005.7299    78.440185     22.83854    25.594855 
 5183800    223.55334    179.96868    216009.12    -20734.13     1300.088   -22034.218    1340.3702    8004.0106    78.439895    22.839364    25.593206 
 5184000    222.39812   -10.232933    216009.12   -20734.793    1293.3697   -22028.162    530.49923    8008.9968    78.439418    22.838568    25.599985 
 5184200    233.78771    15.021042    216009.12   -20608.381    1359.6065   -21967.988    651.91252    8009.0372    78.439383    22.837163    25.600734 
 5184400     229.9895    221.62552    216009.12   -20676.212    1337.5178   -22013.729    1519.7801    8004.3191     78.43879    22.837453    25.603434 
 5184600    229.85059   -2.7736737    216009.12   -20601.157      1336.71   -21937.867    572.76814      8008.13    78.438359     22.83673    25.601339 
 5184800     228.2332   -81.227569    216009.12    -20665.78     1327.304   -21993.084    239.27244    8008.5508    78.437006    22.836282     25.60808 
 5185000    223.52502    122.02638    216009.12   -20668.456    1299.9233   -21968.379    1069.1217    8003.1013    78.436136    22.836576    25.612439 
 5185200    227.90249    35.448235    216009.12   -20651.565    1325.3807   -21976.946    696.96195    8006.6077    78.435102    22.836699     25.61059 
 5185400    221.39899   -138.29566    216009.12   -20682.058    1287.5592   -21969.617   -4.6066929    8010.2955    78.435069    22.836429    25.605885 
 5185600    224.85121    77.769362    216009.12   -20642.937    1307.6358   -21950.573    900.36479    8006.0941    78.434616    22.837466    25.602011 
 5185800    222.86539    134.78973    216009.12   -20662.425    1296.0871   -21958.512    1163.9224    8004.6055    78.433684    22.837528    25.603734 
 5186000    226.11131   -93.443696    216009.12   -20620.824     1314.964   -21935.788    184.92575    8007.8152    78.431767    22.836693    25.604649 
 5186200    221.95575    19.916667    216009.12     -20640.2    1290.7971   -21930.997    686.11491    8007.8868    78.430274    22.836621    25.602989 
 5186400    226.04857    134.45229    216009.12   -20652.949    1314.5991   -21967.548    1173.0757    8004.1489    78.428539    22.837285    25.606136 
 5186600    231.19121    6.1928602    216009.12   -20644.458    1344.5064   -21988.965    633.57216    8006.1205    78.427373    22.836772    25.596628 
 5186800    229.77633   -20.425136    216009.12   -20637.862    1336.2781    -21974.14    499.11813     8007.092    78.426241    22.837357    25.607647 
 5187000    225.16808    88.769107    216009.12   -20661.937    1309.4785   -21971.415    959.97929    8006.1724    78.425367    22.836732    25.609951 
 5187200    228.09829    64.497825    216009.12    -20621.92    1326.5194   -21948.439    882.01422    8008.1832    78.426282    22.837261    25.603645 
 5187400    226.27015   -23.285002    216009.12   -20638.776    1315.8877   -21954.664    473.62275    8007.1595    78.425656    22.837064    25.602502 
 5187600    221.55472    109.07872    216009.12   -20685.566    1288.4648   -21974.031    1035.7775    8005.0843    78.425345    22.836751    25.595239 
 5187800    224.08752    75.200609    216009.12   -20634.443    1303.1945   -21937.637    923.29478    8006.8928    78.424274    22.835561    25.604676 
 5188000    224.60566    20.069507    216009.12   -20649.774    1306.2078   -21955.982    641.90283    8006.5407    78.423512    22.835215    25.602985 
 5188200    230.51543    111.65507    216009.12   -20610.688    1340.5764   -21951.264    1092.9811    8005.5445     78.42301    22.834868    25.599807 
 5188400    225.17339    22.145849    216009.12   -20641.701    1309.5094   -21951.211    668.43845    8007.1918    78.423014    22.834502    25.597312 
 5188600    226.13849    20.831825    216009.12   -20643.254    1315.1221   -21958.376    697.95093    8007.7907    78.422651    22.834371    25.600569 
 5188800    228.72381    90.178046    216009.12   -20696.828    1330.1571   -22026.985    949.06261    8005.6631    78.422163    22.834058     25.59894 
 5189000    223.68144    33.070247    216009.12   -20691.376    1300.8329   -21992.209    685.52959    8006.7858    78.422509     22.83473    25.601045 
 5189200     226.7596   -69.774924    216009.12     -20678.9    1318.7342   -21997.634    315.20948    8010.5803    78.422977    22.834301    25.600171 
 5189400     222.5516    61.203657    216009.12    -20744.94    1294.2623   -22039.202    851.79721    8006.9532    78.422537    22.833799    25.604233 
 5189600    223.22708    73.844837    216009.12   -20686.782    1298.1906   -21984.972    882.71518    8007.0841    78.422012    22.833718    25.614807 
 5189800    224.85021   -48.084958    216009.12   -20642.931      1307.63   -21950.561    335.53753    8007.4631    78.422061    22.832753    25.612672 
 5190000    224.71235    103.75894    216009.12   -20678.429    1306.8283   -21985.257    1058.5987    8006.4579    78.421989    22.832604    25.606821 
 5190200    227.41124     147.9234    216009.12   -20661.706    1322.5238   -21984.229    1240.9946    8004.7626    78.421401    22.832402    25.605092 
 5190400    229.14162    24.201367    216009.12   -20672.619     1332.587   -22005.206    734.44227    8008.2936    78.420694    22.832799    25.605713 
 5190600    234.43739    69.025169    216009.12   -20606.021    1363.3848   -21969.406    897.77145    8007.1984     78.42084    22.832692    25.604463 
 5190800    221.98074    71.322189    216009.12    -20681.33    1290.9424   -21972.272    890.91877    8005.6486    78.420958     22.83195    25.606308 
 5191000    225.50409    38.749035    216009.12   -20654.226    1311.4326   -21965.658    755.97775    8007.2145     78.42154      22.8319    25.603264 
 5191200    226.87062    40.008627    216009.12   -20643.104    1319.3798   -21962.484    754.91768     8007.848    78.421111    22.831765    25.605239 
 5191400    227.00335    87.168511    216009.12   -20674.041    1320.1517   -21994.192    927.91123    8005.2662    78.420083    22.831042    25.608426 
 5191600    230.78277    -9.890616    216009.12   -20693.625    1342.1311   -22035.756    545.21735    8007.2594    78.419779    22.830158    25.611373 
 5191800    225.16875   -37.929581    216009.12   -20687.498    1309.4824    -21996.98    418.41167    8007.7278    78.419819    22.830158    25.606731 
 5192000    231.57259     170.9604    216009.12   -20640.195    1346.7244   -21986.919    1300.0621    8004.3975    78.419282    22.829844    25.610488 
 5192200    233.69308    80.279493    216009.12   -20611.377    1359.0562   -21970.433    909.63538    8005.3686    78.419827    22.828046    25.613842 
 5192400    226.81118   -19.046413    216009.12    -20681.22    1319.0341   -22000.254    458.55263    8007.9488    78.419587    22.827824    25.611603 
 5192600    225.80649    141.69183    216009.12   -20667.255    1313.1913   -21980.447    1203.3917    8005.8759     78.41944    22.827775    25.608894 
 5192800    230.82113     182.3695    216009.12   -20681.415    1342.3542   -22023.769    1347.0537    8004.2067    78.419906    22.826599    25.613191 
 5193000    226.90487   -5.2708789    216009.12   -20650.499     1319.579   -21970.078     544.1464    8010.0484    78.418586     22.82605    25.614567 
 5193200    224.06677    40.958352    216009.12   -20727.592    1303.0738   -22030.666     748.2432    8007.3288    78.417833    22.824432    25.615998 
 5193400     231.8351    187.55947    216009.12   -20645.757    1348.2511   -21994.008    1397.3925    8004.0701    78.416371    22.823384    25.617406 
 5193600    227.43484    -10.35258    216009.12   -20666.305    1322.6611   -21988.966    553.28865    8009.8241    78.415506    22.823643    25.616891 
 5193800    232.53227    32.943052    216009.12   -20664.117    1352.3055   -22016.422    708.79013    8007.2733    78.415323    22.822795    25.615574 
 5194000    223.59151    184.18975    216009.12   -20651.287      1300.31   -21951.597    1354.1294    8004.5229    78.413557    22.822023    25.613673 
 5194200    222.99151    5.5814254    216009.12   -20724.273    1296.8206   -22021.094     616.9413    8006.9764    78.412975    22.821952    25.617853 
 5194400    226.30902   -60.571094    216009.12   -20707.825    1316.1138   -22023.939    306.69761    8007.3262    78.412942    22.821358    25.618492 
 5194600    226.00311    130.65737    216009.12   -20671.484    1314.3347   -21985.819    1145.6373    8004.4116    78.412609    22.820308    25.612911 
 5194800    231.06754    88.591349    216009.12   -20625.072    1343.7872    -21968.86    981.19576    8004.7103    78.411664    22.819594    25.620014 
 5195000    222.93358    -87.31635    216009.12   -20688.545    1296.4837   -21985.028    192.89646    8008.4379    78.410645    22.819188    25.620767 
 5195200    233.46519    108.13245    216009.12   -20614.494    1357.7309   -21972.225    1038.2266    8003.6263    78.410063    22.817372    25.623975 
 5195400    223.20402    109.83049    216009.12   -20670.699    1298.0564   -21968.756    1078.8298    8005.5167    78.410484    22.816138    25.623229 
 5195600    230.23206    6.0294743    216009.12   -20631.357    1338.9284   -21970.286    639.98513    8007.5958    78.409737    22.815448    25.622258 
 5195800    223.76101     83.49136    216009.12   -20703.154    1301.2957    -22004.45    921.99149    8006.3794    78.409696     22.81427    25.616322 
 5196000    226.93766    155.37035    216009.12   -20611.391    1319.7697   -21931.161    1220.4568    8005.6945     78.40976    22.813452    25.615853 
 5196200    227.01395    34.258537    216009.12   -20644.957    1320.2133   -21965.171    681.26567    8006.4675    78.409282    22.812877    25.617207 
 5196400    222.98747    46.851804    216009.12   -20686.729    1296.7971   -21983.526    795.74225     8008.475    78.408882    22.812562    25.614915 
 5196600    229.07339    157.97735    216009.12   -20648.412    1332.1902   -21980.602    1251.8573     8006.025    78.408809    22.811657    25.614657 
 5196800    226.41486    39.594043    216009.12   -20669.819    1316.7293   -21986.548    743.24601    8006.4453     78.40753    22.811004    25.617801 
 5197000    230.38092    19.878323    216009.12   -20655.266    1339.7941    -21995.06    666.30395    8007.1167    78.407668    22.810393    25.622073 
 5197200    232.66711     191.1718    216009.12   -20637.101    1353.0896   -21990.191    1411.4828    8006.1765    78.406899    22.809408    25.618807 
 5197400    227.60478    101.64805    216009.12   -20688.106    1323.6493   -22011.755    1027.3558    8004.7875    78.406514    22.808414    25.620835 
 5197600    226.11281    50.111185    216009.12   -20695.876    1314.9727   -22010.849    813.20498     8006.622    78.406891    22.807731    25.617109 
 5197800    223.44931    73.883212    216009.12   -20704.015     1299.483   -22003.498    918.29732    8005.8582    78.407154    22.808349    25.615334 
 5198000    229.16898    91.387268    216009.12   -20740.175    1332.7461   -22072.921    958.40709    8003.5023    78.407607    22.807686    25.620679 
 5198200    226.36132    47.549848    216009.12    -20639.11    1316.4179   -21955.528    769.23978    8005.7833    78.409009    22.808356    25.620793 
 5198400    227.48581   -12.438768    216009.12   -20624.552    1322.9575    -21947.51    512.90736    8007.7656    78.408762    22.808568    25.616858 
 5198600    229.84134    90.780702    216009.12   -20643.169    1336.6562   -21979.825    920.61022    8005.4869    78.408781    22.808142    25.609075 
 5198800    223.63786    96.304836    216009.12   -20717.779    1300.5795   -22018.358    974.37422    8005.1756      78.4082    22.806162    25.611211 
 5199000    222.55402   -53.865429    216009.12   -20682.662    1294.2763   -21976.938     368.0593    8008.1271    78.407789    22.805456    25.619358 
 5199200    235.15274    123.80765    216009.12   -20589.383     1367.545   -21956.928    1069.7868    8005.8812    78.408555    22.804931    25.614284 
 5199400     228.0709    81.961793    216009.12   -20703.979    1326.3601   -22030.339    901.55396    8006.5784    78.407698    22.804368    25.614769 
 5199600    223.94203   -38.506732    216009.12   -20689.036    1302.3484   -21991.384     427.7958     8008.724    78.407314    22.804115    25.611934 
 5199800    236.95923    78.172565    216009.12   -20666.161    1378.0507   -22044.211    910.98782    8004.9555    78.407471    22.804709    25.612021 
 5200000      229.056    118.26519    216009.12   -20674.161     1332.089   -22006.251    1089.5501    8003.8332    78.406236    22.804877    25.617089 
Loop time of 6936.27 on 160 procs for 5200000 steps with 9248 atoms

Performance: 647.726 ns/day, 0.037 hours/ns, 749.683 timesteps/s
97.7% CPU use with 160 MPI tasks x no OpenMP threads

MPI task timing breakdown:
Section |  min time  |  avg time  |  max time  |%varavg| %total
---------------------------------------------------------------
Pair    | 0.23979    | 1433.2     | 5549.8     |5181.6 | 20.66
Neigh   | 0.33252    | 89.686     | 341.89     |1222.6 |  1.29
Comm    | 11.189     | 1669.2     | 5564.2     |4646.8 | 24.06
Output  | 89.549     | 89.625     | 91.49      |   1.6 |  1.29
Modify  | 220.49     | 3555.1     | 6742.1     |4765.7 | 51.25
Other   |            | 99.45      |            |       |  1.43

Nlocal:    57.8 ave 196 max 0 min
Histogram: 72 20 28 0 0 0 0 0 13 27
Nghost:    534.6 ave 923 max 0 min
Histogram: 23 1 0 8 8 35 36 16 23 10
Neighs:    0 ave 0 max 0 min
Histogram: 160 0 0 0 0 0 0 0 0 0
FullNghs:  5871.86 ave 23546 max 0 min
Histogram: 111 9 0 0 0 0 0 1 20 19

Total # of neighbors = 939498
Ave neighs/atom = 101.589
Neighbor list builds = 541002
Dangerous builds = 0
write_data 		${DIR}/data.${NAME}_run
write_data 		run_9/data.${NAME}_run
write_data 		run_9/data.ibeam_cooling_9_run
Total wall time: 1:55:51
