
# Set production fixes - Nose/Hoover
#
fix                 4 water temp/csvr ${START_TEMP} ${END_TEMP} 500.0 928347
fix                 4 water temp/csvr 240 ${END_TEMP} 500.0 928347
fix                 4 water temp/csvr 240 227 500.0 928347


## divide "droplet" into core and surface
#region		core_reg cylinder z 135 135 44.6 20 INF units box
#region		surface_reg cylinder z 135 135 44.6 20 INF units box side out
#group		core dynamic all region core_reg
#group		surface dynamic all region surface_reg

## compute pressure core
#compute        peratom_core core stress/atom NULL
#compute        p_core core reduce sum c_peratom_core[1] c_peratom_core[2] c_peratom_core[3]
#variable       press_core equal -(c_p_core[1]+c_p_core[2]+c_p_core[3])/(3*1249982.5)


## compute pressure surface
#compute        peratom_surf surface stress/atom NULL
#compute        p_surf surface reduce sum c_peratom_surf[1] c_peratom_surf[2] #c_peratom_surf[3]
#variable       press_surf equal -(c_p_surf[1]+c_p_surf[2]+c_p_surf[3])/(3*33365)

## compute total pressure of drop
compute        peratom water stress/atom NULL
compute        p water reduce sum c_peratom[1] c_peratom[2] c_peratom[3]
variable       press equal -(c_p[1]+c_p[2]+c_p[3])/(3*50320)


# compute order parameter
compute        3 all orientorder/atom nnn NULL cutoff 3.5

# compute center of mass of bridge
compute 	4 water com

# Run simulation
thermo_style        custom step c_2 press vol etotal ke pe v_press c_1[4] c_4[*]
thermo              200
dump		     1 water custom 400 ${DIR}/prod.${NAME}.dump id type x y z vx vy vz c_3[*] c_peratom[*]
dump		     1 water custom 400 run_30/prod.${NAME}.dump id type x y z vx vy vz c_3[*] c_peratom[*]
dump		     1 water custom 400 run_30/prod.ibeam_cooling_30.dump id type x y z vx vy vz c_3[*] c_peratom[*]
run                 ${STEPS}
run                 5200000
Neighbor list info ...
  update every 1 steps, delay 0 steps, check yes
  max neighbors/atom: 2000, page size: 100000
  master list distance cutoff = 6.67472
  ghost atom cutoff = 6.67472
  binsize = 3.33736, bins = 48 13 9
  2 neighbor lists, perpetual/occasional/extra = 1 1 0
  (1) pair sw, perpetual
      attributes: full, newton on
      pair build: full/bin/atomonly
      stencil: full/bin/3d
      bin: standard
  (2) compute orientorder/atom, occasional, copy from (1)
      attributes: full, newton on
      pair build: copy
      stencil: none
      bin: none
Per MPI rank memory allocation (min/avg/max) = 6.146 | 6.613 | 7.275 Mbytes
Step c_2 Press Volume TotEng KinEng PotEng v_press c_1[4] c_4[1] c_4[2] c_4[3] 
       0    238.36475   -295.78404    181563.75   -13287.743    980.51765   -14268.261   -556.23801    33.696912    78.724133    25.126179    16.412326 
     200    241.13415   -335.46108    181563.75   -13318.437    991.90965   -14310.347   -637.42926    36.253274    78.725303    25.131385    16.402169 
     400    232.05711   -388.03056    181563.75   -13318.132    954.57107   -14272.703   -818.08781    36.404288    78.724243    25.130611    16.382343 
     600    225.80082   -466.89812    181563.75   -13377.959     928.8357   -14306.795   -1133.8729     37.44568    78.727367    25.130213    16.361146 
     800    231.79314   -264.34827    181563.75    -13389.43    953.48522   -14342.915   -361.70641    39.218603    78.728641     25.12967    16.359754 
    1000    237.98361   -488.68331    181563.75   -13308.476    978.94983   -14287.426   -1164.0764    40.745022    78.729244    25.129976    16.366747 
    1200    237.76234   -378.04319    181563.75   -13382.528    978.03964   -14360.568   -783.57407    42.311545    78.729659     25.12887    16.388107 
    1400    242.50537   -310.99426    181563.75   -13264.413    997.55018   -14261.963   -520.22468    44.430515    78.728453    25.129968    16.398807 
    1600     249.2344    -387.4151    181563.75   -13269.825    1025.2302   -14295.055   -829.00308     45.85584    78.726653    25.132033    16.393871 
    1800    243.70643   -294.05155    181563.75   -13311.916    1002.4908   -14314.407    -470.4759    47.023281    78.724496    25.134332    16.373025 
    2000    244.42358   -255.04302    181563.75    -13222.25    1005.4408    -14227.69   -342.15006    48.097709    78.719258    25.138125    16.394944 
    2200    244.41601    -321.6674    181563.75   -13228.316    1005.4096   -14233.726    -554.5815    49.936214    78.717771    25.144103    16.387702 
    2400    244.71937   -319.43262    181563.75   -13270.076    1006.6575   -14276.734   -526.09396    50.880652    78.717059    25.146117    16.359099 
    2600    233.31674   -415.14258    181563.75   -13302.406    959.75257   -14262.159   -900.02646    53.213322    78.718783    25.149167    16.325303 
    2800    243.81973   -328.33868    181563.75   -13289.064    1002.9568   -14292.021   -608.70264    55.797105    78.717097    25.151595    16.331357 
    3000    239.22799   -215.82016    181563.75   -13369.273    984.06859   -14353.341   -220.39697    58.558754    78.716724    25.153748    16.335718 
    3200    236.84799   -459.32201    181563.75   -13342.249    974.27842   -14316.527   -1028.4854    60.339596    78.717272    25.155951    16.344178 
    3400    237.99337   -293.95153    181563.75   -13315.146    978.98998   -14294.136   -418.48552     61.62151    78.720026    25.155932     16.33331 
    3600    244.18147    -215.0784    181563.75   -13285.732    1004.4448   -14290.177   -200.98785    62.385203    78.719687    25.157732    16.338261 
    3800    242.87913   -518.16237    181563.75   -13299.757    999.08765   -14298.845   -1269.6073    65.309104    78.719282    25.161105    16.334504 
    4000    243.37205   -371.94732    181563.75   -13333.805    1001.1153    -14334.92   -758.72676    68.508913    78.720303    25.162305    16.345053 
    4200    246.56258   -267.05472    181563.75    -13266.81    1014.2396   -14281.049   -407.75701    66.642898    78.720408    25.158961    16.341704 
    4400    242.78015    -275.2445    181563.75   -13229.176    998.68049   -14227.856   -409.74884    65.729327    78.718635    25.157434    16.348687 
    4600     231.6193   -479.69393    181563.75   -13302.802    952.77012   -14255.572   -1136.8654    65.688921    78.716916    25.155592    16.312626 
    4800    245.55102   -337.40874    181563.75   -13278.669    1010.0785   -14288.748   -686.53497    67.749995    78.716002    25.156684    16.301002 
    5000    236.68345   -323.16531    181563.75   -13314.599    973.60159   -14288.201   -580.15496    70.194463    78.710011    25.153643    16.303059 
    5200    236.96682   -371.30902    181563.75    -13282.25    974.76725   -14257.018   -717.95304    71.583478    78.709845    25.160559    16.312479 
    5400    236.87698   -287.00663    181563.75   -13274.235     974.3977   -14248.633   -448.21908    73.809916    78.711671    25.160314    16.320623 
    5600     234.6318   -378.33199    181563.75   -13319.519     965.1621   -14284.681   -759.40682    75.278476     78.71042    25.160511    16.320205 
    5800    242.02196   -283.91125    181563.75   -13189.363    995.56164   -14184.924   -466.13173    76.983013    78.715107     25.16252    16.322853 
    6000    235.49083   -327.33281    181563.75   -13332.886    968.69573   -14301.582   -584.44044     78.34886     78.71595    25.165404     16.32687 
    6200    230.97646   -373.99773    181563.75    -13289.88     950.1258   -14240.006   -804.27467    79.236088    78.718649    25.166734    16.294062 
    6400    237.65441   -489.32539    181563.75   -13281.932    977.59565   -14259.528   -1199.3552    80.518926    78.716952    25.167507    16.322264 
    6600    236.51227   -335.79732    181563.75   -13344.603    972.89745     -14317.5   -659.51129    81.585365    78.718034    25.164302    16.329271 
    6800    238.91376   -371.16853    181563.75   -13338.092    982.77601   -14320.868   -818.04512    83.983594    78.720671    25.168813    16.332953 
    7000    235.39127   -434.05845    181563.75   -13362.531    968.28621   -14330.817   -1029.9313    84.140612     78.72135    25.172629    16.307913 
    7200    237.59328    -312.8149    181563.75   -13270.525    977.34421   -14247.869   -493.49799     84.16832    78.719432    25.173176    16.307461 
    7400    228.63865   -397.60377    181563.75   -13373.996    940.50917   -14314.505    -868.3708    83.521514    78.719962    25.176503    16.319283 
    7600    237.49934   -322.76576    181563.75   -13391.651    976.95776   -14368.609   -609.61475    84.912435    78.720142    25.181191    16.310704 
    7800    239.08994   -342.02575    181563.75   -13332.573    983.50073   -14316.074   -640.67193    86.250501    78.722438    25.176416    16.304997 
    8000    242.11186   -244.43077    181563.75   -13329.672    995.93146   -14325.604   -262.14321     85.88282    78.723175    25.174072    16.307142 
    8200    226.22851   -364.24579    181563.75   -13360.814    930.59503   -14291.409   -741.76547    87.279962    78.720845     25.17028    16.292293 
    8400    229.53677   -390.69043    181563.75   -13350.837    944.20362    -14295.04   -868.02752    87.954313    78.717786    25.169115    16.304143 
    8600    237.36048   -335.31676    181563.75   -13298.614    976.38656       -14275   -644.36771    89.053695    78.716305    25.169549    16.317969 
    8800    245.29999   -288.12024    181563.75    -13292.04    1009.0459   -14301.086   -426.81784    88.537779    78.713054    25.171186    16.311884 
    9000    243.10818   -473.69423    181563.75    -13278.33    1000.0298    -14278.36   -1175.6153    89.993119    78.709524    25.170631    16.325595 
    9200    239.32332   -436.88108    181563.75   -13294.816    984.46073   -14279.277    -991.8797    90.964031    78.708174    25.169392    16.334609 
    9400    234.11764   -460.20006    181563.75   -13311.244    963.04709   -14274.291   -1093.4456    91.204711    78.707154    25.170445    16.364146 
    9600     230.7882   -291.41625    181563.75   -13354.586     949.3514   -14303.938   -530.53928    92.114969    78.704929     25.17152     16.36037 
    9800    228.79742   -286.18708    181563.75   -13322.705    941.16227   -14263.868   -457.42136    93.175058    78.704019    25.172864     16.34199 
   10000    246.37219   -352.11068    181563.75   -13231.847    1013.4564   -14245.304   -657.36449    94.552825    78.705098    25.172553    16.334361 
   10200    240.50065   -546.53845    181563.75     -13267.7    989.30373   -14257.004   -1364.8898    95.806482    78.705609    25.173702    16.324238 
   10400    237.26906   -430.44164    181563.75   -13297.225    976.01053   -14273.236   -925.77056    96.162127    78.707674    25.179617    16.338307 
   10600    237.97157   -522.91906    181563.75   -13291.827    978.90029   -14270.727   -1305.0305    97.743122    78.708514    25.175688    16.307263 
   10800    241.36552   -293.99528    181563.75   -13320.028    992.86137    -14312.89   -462.72893    99.892932    78.710991    25.171751    16.318652 
   11000    236.58051   -403.39265    181563.75   -13330.864    973.17817   -14304.042    -827.6387    103.36236    78.712196    25.175138    16.295094 
   11200    235.67215   -394.32264    181563.75   -13322.342    969.44159   -14291.784   -840.87122    104.63876     78.71498    25.173367    16.273081 
   11400      248.029   -450.01917    181563.75   -13317.833    1020.2717   -14338.105    -1035.245    106.11209    78.717183    25.174822     16.29259 
   11600    244.23806   -254.96732    181563.75   -13316.802    1004.6776   -14321.479   -319.45036    104.62605    78.716784    25.172511    16.292763 
   11800    239.74004   -487.80053    181563.75   -13310.163    986.17493   -14296.338   -1181.1463    104.47819    78.716722    25.171035    16.298619 
   12000    245.80704   -392.22333    181563.75   -13267.076    1011.1317   -14278.207   -822.14356    106.96438    78.715926     25.17039    16.300712 
   12200     241.6727   -212.94556    181563.75    -13294.91    994.12496   -14289.035   -195.23148    109.68797    78.713543    25.166792    16.285647 
   12400    243.22144   -437.88656    181563.75   -13250.875    1000.4957    -14251.37   -979.34638    110.72146     78.71448    25.165019    16.288723 
   12600    243.14621   -331.42661    181563.75   -13234.498    1000.1863   -14234.685   -602.78489    110.61287    78.714039    25.167001    16.293186 
   12800    240.58935   -370.86381    181563.75   -13316.383     989.6686   -14306.052    -753.2595    110.59893    78.711607    25.166106    16.293515 
   13000    231.20565   -330.71811    181563.75   -13349.889    951.06858   -14300.958     -602.668     110.0572    78.712257    25.167737    16.293845 
   13200    235.65479   -321.56093    181563.75   -13281.523    969.37018   -14250.893   -552.45517    109.73566    78.710824       25.167    16.295553 
   13400    249.36488   -259.45678    181563.75   -13243.373    1025.7669    -14269.14   -348.78682    109.61032    78.713972     25.16661    16.310794 
   13600    237.00792   -320.03394    181563.75   -13270.028    974.93632   -14244.965   -536.32999    111.03356    78.715131    25.165309    16.302953 
   13800    230.47415   -308.70288    181563.75   -13317.714    948.05953   -14265.774   -554.89557    111.80868    78.716691    25.169691    16.295637 
   14000    237.29513   -171.14335    181563.75   -13272.008    976.11777   -14248.126   -11.605697    112.52071    78.720675    25.176748     16.30337 
   14200    243.53021    -529.6579    181563.75   -13315.297    1001.7659   -14317.063   -1338.3309    111.32983    78.719247    25.180958    16.278013 
   14400    229.35573   -369.46053    181563.75   -13367.162    943.45888   -14310.621   -730.10779    112.98476    78.722327    25.180373    16.265623 
   14600    236.67434   -248.77306    181563.75   -13336.877    973.56412   -14310.441    -286.2896    113.36707    78.724228    25.180499     16.29358 
   14800    237.53141   -248.18087    181563.75   -13295.008    977.08972   -14272.098   -285.61526    113.61766    78.720545    25.180181    16.299738 
   15000    240.56432   -423.96402    181563.75   -13274.485    989.56563   -14264.051   -986.48167    115.40684    78.717496    25.180238      16.2801 
   15200    231.04612   -385.99036    181563.75   -13333.607    950.41234   -14284.019   -778.24084    115.94507    78.713222    25.183374    16.284116 
   15400    237.25414   -481.43284    181563.75   -13274.176    975.94915   -14250.125   -1199.1502    117.79016    78.715066    25.186915    16.297431 
   15600    234.58428   -238.42999    181563.75   -13320.993    964.96662    -14285.96   -287.04532    119.48581    78.715981    25.190743    16.298033 
   15800    246.04414   -351.66835    181563.75    -13237.31     1012.107   -14249.417   -691.98949     120.0208    78.718154    25.186963    16.275752 
   16000    237.77628   -331.44349    181563.75   -13285.292    978.09697   -14263.389   -611.72719    122.79488    78.719296    25.184345     16.28676 
   16200    250.16557   -274.38432    181563.75   -13219.607    1029.0605   -14248.667   -395.38004    123.81686    78.720145    25.183328    16.282831 
   16400    244.00147   -428.97618    181563.75   -13248.823    1003.7044   -14252.527   -920.71169    125.16611    78.720591    25.183417    16.284322 
   16600    243.20893   -379.32667    181563.75   -13305.361    1000.4443   -14305.806   -747.04405    126.99152    78.722077    25.185478    16.301063 
   16800    243.10664   -509.32539    181563.75   -13310.063    1000.0235   -14310.087   -1210.1171    125.63535    78.726078    25.187429    16.315383 
   17000     241.3965   -474.21195    181563.75   -13331.919    992.98882   -14324.908   -1084.7501    126.79354    78.732039    25.186773     16.33553 
   17200    238.37771   -372.12831    181563.75    -13327.44    980.57096   -14308.011   -768.21006    128.20814    78.735835    25.186646    16.317482 
   17400    239.93925   -397.80923    181563.75   -13309.366    986.99439    -14296.36   -858.91336    129.90185    78.734389    25.184554    16.298333 
   17600    248.59196    -386.6029    181563.75   -13252.141    1022.5875   -14274.729   -814.97766    131.55338     78.73244    25.185367    16.297008 
   17800    242.57504   -436.44091    181563.75   -13288.866    997.83675   -14286.703   -993.69204    132.49677    78.730831    25.188421     16.31645 
   18000    240.07565   -279.00902    181563.75   -13322.911    987.55548   -14310.467   -432.90616    132.04344    78.733129    25.189383    16.311935 
   18200    242.09736   -319.40621    181563.75   -13325.794    995.87183   -14321.666   -547.54256    132.65351    78.732573    25.189354    16.301427 
   18400    241.91099   -200.60647    181563.75   -13318.597    995.10517   -14313.702   -160.19906     133.5946    78.730401    25.191516    16.327194 
   18600    231.12235    -488.2155    181563.75   -13295.026    950.72594   -14245.752   -1197.5377    135.44129    78.731359    25.191576    16.365691 
   18800    247.85226   -411.03532    181563.75   -13303.184    1019.5447   -14322.729   -881.64409    134.92907    78.726758    25.191006    16.357289 
   19000      240.329   -491.79431    181563.75   -13287.303    988.59762   -14275.901   -1206.6995    136.68766    78.729403    25.189204    16.335604 
   19200    244.48365   -401.13824    181563.75   -13269.589    1005.6879   -14275.277   -902.79347    138.38591    78.730009    25.188327    16.375447 
   19400    241.45634   -160.18219    181563.75   -13239.686    993.23498   -14232.921    5.5666348    140.09655    78.732232    25.186804    16.388329 
   19600    238.40108   -347.60934    181563.75   -13294.596    980.66709   -14275.263   -698.24602    142.64718    78.735687    25.183083    16.386467 
   19800    240.56358   -105.85168    181563.75   -13269.119     989.5626   -14258.682    162.59752    143.65087    78.739496    25.180662    16.366839 
   20000    233.50664   -348.45039    181563.75   -13307.956    960.53375    -14268.49   -707.86059     146.2476    78.743948    25.177056     16.38433 
   20200    237.12155   -329.61525    181563.75   -13313.075    975.40371   -14288.479   -601.95759    146.70292    78.747874    25.178479    16.382365 
   20400    232.92375   -231.80276    181563.75   -13380.846    958.13603   -14338.982   -237.86295    148.21326    78.745977    25.178906    16.406419 
   20600    238.83479     -304.308    181563.75   -13296.601    982.45116   -14279.052   -529.74338    149.64672    78.745904    25.182167     16.38641 
   20800    233.68957   -387.16673    181563.75   -13315.838    961.28623   -14277.124   -816.07789    151.35305     78.74695    25.179208    16.355106 
   21000    244.61771   -301.98241    181563.75   -13279.125    1006.2393   -14285.364   -514.40459    153.92287    78.747665    25.177142    16.368204 
   21200     242.2481   -321.90546    181563.75   -13283.071    996.49188   -14279.563   -578.23811     155.5144    78.752688     25.17614    16.356931 
   21400    233.40462   -421.75822    181563.75   -13322.412    960.11409   -14282.526   -937.04247    156.95722    78.754958    25.179135    16.341976 
   21600     244.3146   -519.46602    181563.75   -13259.645    1004.9925   -14264.638    -1319.512    156.66213    78.755921    25.178006     16.35769 
   21800    244.31708   -254.23824    181563.75   -13233.971    1005.0027   -14238.974   -330.92141    155.37285    78.760242    25.176676    16.359051 
   22000    236.02783   -406.40695    181563.75   -13231.648     970.9047   -14202.553   -911.20133    156.36979     78.75891    25.178042     16.37402 
   22200    249.78708   -342.96535    181563.75   -13230.484    1027.5036   -14257.987   -739.41958     157.4992    78.760599    25.178014    16.360596 
   22400    244.99329   -540.32653    181563.75   -13263.873    1007.7843   -14271.658   -1375.6907    158.55942    78.762716    25.175733    16.336786 
   22600    237.76751   -412.85446    181563.75   -13296.596    978.06089   -14274.657   -920.57457    159.23445      78.7655    25.177609    16.374365 
   22800    247.97779   -245.56234    181563.75   -13268.886    1020.0611   -14288.947   -320.81757    159.86941    78.761412    25.180528    16.381003 
   23000    235.49732   -473.25048    181563.75   -13290.971    968.72241   -14259.694   -1132.9366     161.7944    78.761686    25.182226    16.402174 
   23200    240.30446   -324.59734    181563.75   -13283.984    988.49668    -14272.48   -615.75135    164.16047    78.760557    25.181382    16.398675 
   23400    237.36518   -350.50371    181563.75     -13241.8    976.40592   -14218.205   -708.68338    166.22803    78.761793    25.179145    16.410325 
   23600    241.05714   -387.57714    181563.75   -13293.607    991.59285     -14285.2   -811.08827    168.02823    78.763863    25.176479    16.429112 
   23800    236.02394   -297.16776    181563.75   -13323.952    970.88868    -14294.84   -517.63513     168.4121     78.76119    25.174231    16.434676 
   24000    234.33534   -267.07426    181563.75   -13255.891    963.94261   -14219.834    -384.2136    170.14618    78.758964    25.176193    16.407748 
   24200    245.07495   -369.18568    181563.75   -13241.068    1008.1202   -14249.188   -717.45289    172.17848    78.757932    25.178496    16.408561 
   24400    244.74285   -331.88654    181563.75   -13260.644    1006.7541   -14267.398   -632.33057    174.59242    78.757674    25.182064    16.417596 
   24600    245.58644   -478.37295    181563.75   -13271.729    1010.2242   -14281.953    -1130.357    176.40778    78.757585    25.184038    16.416441 
   24800    237.54052   -462.11606    181563.75   -13272.054    977.12717   -14249.181    -1063.678    179.15371     78.75857    25.181595     16.43771 
   25000    235.24831   -229.05151    181563.75    -13308.79    967.69814   -14276.488     -236.421     179.1563    78.760498    25.187001    16.452671 
   25200    238.78062   -359.85127    181563.75   -13283.571    982.22834     -14265.8   -731.94059    180.59644    78.760485    25.191119        16.45 
   25400    241.10804   -219.43371    181563.75   -13318.053    991.80225   -14309.855   -188.89582     180.8363    78.763162    25.193185    16.449705 
   25600    239.14959    -300.5865    181563.75   -13292.312    983.74612   -14276.058   -502.05097    181.98336    78.766042    25.190728    16.449785 
   25800    241.77276    -397.3977    181563.75   -13303.426    994.53658   -14297.962   -836.16742    183.99488    78.767907    25.190464    16.456465 
   26000    234.22183   -363.55369    181563.75   -13327.848    963.47567   -14291.324    -760.6501     184.9731    78.767991    25.188266    16.456996 
   26200    235.02693   -454.99814    181563.75   -13304.003    966.78746    -14270.79   -1049.6929     186.2075    78.766095     25.19198    16.442415 
   26400    239.51072   -270.75771    181563.75    -13341.07    985.23161   -14326.301   -362.16058    186.98122    78.763687    25.191012     16.41334 
   26600    245.81102   -468.72582    181563.75    -13317.01     1011.148   -14328.158   -1085.5205    187.69505    78.763297    25.191911    16.408698 
   26800    239.72295   -314.03254    181563.75   -13244.682    986.10463   -14230.787   -518.01458    189.28922    78.762367      25.1954     16.41023 
   27000    243.37752   -275.57258    181563.75   -13300.989    1001.1378   -14302.127   -420.26765    190.44368    78.764319    25.199053    16.415255 
   27200    241.47889   -379.51623    181563.75   -13242.099    993.32773   -14235.426   -788.84889    192.81535    78.763889    25.202224    16.436514 
   27400    240.56072   -311.27814    181563.75   -13254.633    989.55082   -14244.184    -491.4949    193.34436    78.760914    25.205258    16.410771 
   27600    248.06843   -288.96105    181563.75    -13272.23    1020.4339   -14292.664   -482.57455    192.67283    78.764064    25.204058    16.386165 
   27800    234.22279   -556.52578    181563.75   -13385.398    963.47963   -14348.878   -1440.5837    194.84397    78.768699    25.206467    16.401462 
   28000    239.03377   -412.28621    181563.75   -13361.666    983.26967   -14344.935   -904.97768    195.13928    78.769265    25.204906    16.388516 
   28200    244.43452   -376.93934    181563.75   -13293.979    1005.4858   -14299.465   -775.58429    196.88774    78.772788     25.20402    16.356672 
   28400    237.07434    -441.6781    181563.75   -13318.723    975.20954   -14293.933   -972.14228    196.92799    78.778557    25.209181    16.351202 
   28600    236.48962   -438.33191    181563.75   -13328.346    972.80429    -14301.15   -990.10974    196.46741    78.782689    25.212495    16.378442 
   28800    229.60292    -184.3501    181563.75   -13395.395    944.47572    -14339.87   -93.579798    196.42739    78.784041    25.210187    16.359255 
   29000    237.09738   -260.58313    181563.75    -13339.87    975.30432   -14315.174   -349.81526    197.36361    78.786937    25.206321    16.357025 
   29200    244.29031   -357.07082    181563.75   -13330.321    1004.8926   -14335.213   -731.46932    198.57546    78.789124    25.206456    16.348699 
   29400    246.99714   -380.27886    181563.75   -13325.406    1016.0272   -14341.434   -802.21312    198.14263    78.788975    25.208652    16.344487 
   29600    236.91141   -329.33689    181563.75   -13361.805     974.5393   -14336.344    -590.0109    199.23039    78.790879    25.210624    16.338675 
   29800    248.73044   -389.60903    181563.75   -13321.292    1023.1571   -14344.449   -831.16166     198.3678    78.791637    25.209972    16.390362 
   30000    233.66184   -496.84518    181563.75   -13319.492    961.17216   -14280.664   -1191.5459    198.90187     78.79073    25.211942    16.379629 
   30200    242.41359   -368.04184    181563.75    -13355.05    997.17264   -14352.223    -749.5022    199.30588    78.789485    25.208574    16.382653 
   30400    229.76998   -372.39612    181563.75   -13398.425    945.16291   -14343.588   -778.59262    200.75671    78.788822    25.209112     16.36362 
   30600    230.27436   -335.00809    181563.75   -13359.367    947.23769   -14306.604   -620.47099    202.49079    78.786793    25.211332    16.367915 
   30800    246.51053   -208.20463    181563.75   -13335.548    1014.0255   -14349.573   -193.18937    203.90898    78.785249    25.209504     16.35491 
   31000    234.62398   -369.27585    181563.75   -13318.464    965.12995   -14283.594   -806.43827    205.95942    78.785499    25.208552     16.34028 
   31200    235.94631   -298.97815    181563.75    -13285.49    970.56934   -14256.059   -456.77657    206.28397      78.7848    25.212584    16.329962 
   31400    241.88718    -224.4752    181563.75   -13298.802    995.00724   -14293.809   -218.67221    206.92481    78.782785    25.212351    16.326255 
   31600    245.06874   -205.96796    181563.75   -13235.849    1008.0946   -14243.943   -151.41309    207.29459     78.78335    25.214741    16.340047 
   31800    236.10179   -336.20061    181563.75   -13294.981    971.20893    -14266.19   -643.21467    208.49344    78.784278    25.217666    16.342173 
   32000    243.25487   -251.39071    181563.75   -13274.726    1000.6332   -14275.359   -343.47077    210.77535    78.786297    25.218823    16.346378 
   32200    243.49191   -234.58671    181563.75   -13308.908    1001.6083   -14310.516    -309.9082    215.98025    78.787186     25.21521    16.305849 
   32400     240.9247   -582.79412    181563.75   -13299.135    991.04804   -14290.183   -1491.6639    218.22685    78.788034    25.215057    16.300688 
   32600    246.77409   -283.46238    181563.75   -13279.276    1015.1096   -14294.386    -501.7755    219.15557    78.784961    25.218188     16.31689 
   32800    231.32993   -242.98863    181563.75   -13315.586    951.57979   -14267.165    -298.6663    220.92447    78.782783    25.220232     16.29509 
   33000    238.46407   -244.39237    181563.75   -13267.251    980.92622   -14248.178   -272.46222    222.09623    78.781532    25.222881    16.316058 
   33200    237.86282   -429.09556    181563.75   -13283.494    978.45297   -14261.946   -997.25029    222.71188    78.782731    25.226439    16.312561 
   33400     242.9737   -316.67288    181563.75   -13277.372    999.47665   -14276.848    -533.6819    221.84693    78.783011    25.229657    16.301396 
   33600    242.82535   -423.93151    181563.75   -13310.469     998.8664   -14309.335   -929.70802    222.53894    78.781195    25.234526    16.327406 
   33800    237.60807   -312.32216    181563.75   -13266.599    977.40503   -14244.004   -590.17013    224.43167    78.780277    25.241651    16.349399 
   34000    240.23121    -404.6745    181563.75   -13255.362    988.19539   -14243.558   -876.41644    224.57107    78.778502    25.242077    16.358162 
   34200    233.86706   -410.23513    181563.75   -13290.366    962.01633   -14252.383   -900.72981    225.33344    78.778427    25.241494    16.355227 
   34400     240.1507    -185.6371    181563.75   -13314.409    987.86419   -14302.273   -119.15848    225.17363    78.776148    25.238775    16.370835 
   34600    236.17089   -356.02819    181563.75   -13295.398    971.49319   -14266.891    -745.6044     227.8872    78.776043    25.237462    16.392554 
   34800    245.37585   -433.72546    181563.75   -13278.686    1009.3579   -14288.044   -989.00648    229.69715    78.775539    25.238816     16.37829 
   35000    238.20949   -275.95246    181563.75   -13295.339    979.87901   -14275.218   -389.82901     231.6637    78.773378    25.235812    16.371166 
   35200    243.49518    -378.1755    181563.75   -13267.915    1001.6218   -14269.537   -772.88503      232.868     78.77116    25.238774    16.358928 
   35400    245.36692   -373.97397    181563.75   -13244.886    1009.3212   -14254.207     -778.864    233.35684    78.774442    25.240667    16.341786 
   35600    237.57472   -367.61912    181563.75   -13300.491    977.26784   -14277.759   -705.52207    235.41033    78.774875    25.237024    16.330494 
   35800     238.7584   -489.54506    181563.75   -13253.025    982.13693   -14235.162   -1142.1556    237.79085    78.778834    25.234593    16.308449 
   36000    238.04326   -345.31843    181563.75   -13329.705    979.19522     -14308.9   -661.07737    237.46159    78.778689    25.239967    16.286832 
   36200    232.26716   -481.28519    181563.75   -13309.173    955.43511   -14264.608   -1134.8228    239.42868    78.778113    25.247493    16.274142 
   36400    238.06663   -448.31116    181563.75   -13261.813    979.29134   -14241.104    -1018.868    240.16181    78.776855    25.250582    16.264749 
   36600    238.17018    -335.3608    181563.75   -13305.837    979.71727   -14285.554   -617.06139    242.37303    78.775795    25.249217    16.277718 
   36800     236.6994   -320.24465    181563.75   -13343.989    973.66722   -14317.656   -611.46881    245.56023    78.774355    25.246617    16.278801 
   37000     241.5573    -326.1259    181563.75   -13301.721    993.65028   -14295.371   -612.81787    245.38635    78.774775    25.243238    16.278956 
   37200    233.98062   -295.19489    181563.75   -13362.269    962.48345   -14324.752   -496.55873    247.60035    78.774726     25.24411    16.302587 
   37400    241.75074   -246.35653    181563.75   -13286.887    994.44597   -14281.333   -332.92339     249.5442    78.778644     25.24433    16.284245 
   37600    241.69904   -296.62141    181563.75   -13286.231    994.23332   -14280.465   -492.49419     249.5276    78.782071    25.244374    16.290959 
   37800    238.35103   -341.53896    181563.75   -13329.376     980.4612   -14309.838   -621.98043    250.67135    78.781267     25.24603    16.307844 
   38000    238.28042   -314.07688    181563.75   -13339.497    980.17078   -14319.667   -515.28532    250.71788    78.779724     25.24716    16.325256 
   38200    237.49121   -293.88156    181563.75   -13297.353    976.92435   -14274.277    -452.6459    253.36039     78.77867    25.242864     16.30571 
   38400    248.15665   -341.78815    181563.75   -13269.104    1020.7968   -14289.901   -642.72723    254.05595    78.779795    25.246706    16.326908 
   38600    247.76243   -272.64156    181563.75   -13298.786    1019.1752   -14317.962   -404.70809    254.38223    78.779666    25.248209    16.310439 
   38800    235.58215   -280.59012    181563.75   -13308.599    969.07138    -14277.67   -472.12037     256.3372    78.780485    25.246947    16.288219 
   39000    247.81375   -142.06312    181563.75   -13263.339    1019.3863   -14282.725    61.918889     257.9888    78.781509     25.24164    16.282961 
   39200    233.58171   -453.16875    181563.75   -13337.371    960.84255   -14298.214   -1035.7271    260.83577    78.779943    25.241583    16.275162 
   39400    249.41658   -353.58637    181563.75   -13294.034    1025.9796   -14320.013    -685.6385    261.03695    78.776079    25.242229    16.276879 
   39600    243.71198   -281.15421    181563.75   -13315.864    1002.5136   -14318.378   -397.14126    262.92677    78.772754    25.241169    16.283082 
   39800    244.72185   -395.10804    181563.75   -13227.382    1006.6677    -14234.05   -867.84397    264.42617    78.771923    25.241937    16.274566 
   40000    235.25096   -332.20488    181563.75   -13318.192    967.70901   -14285.901   -612.50917    265.92778    78.772172      25.2418    16.277814 
   40200    240.16555    -348.6459    181563.75   -13354.043    987.92528   -14341.968   -650.30503    265.56502    78.771469    25.243881    16.303242 
   40400    241.55385   -434.80562    181563.75   -13277.404    993.63607    -14271.04    -995.5567     266.4007    78.772144    25.239989    16.306865 
   40600    226.16644   -329.69984    181563.75   -13407.966    930.33967   -14338.305   -622.63486    266.14384    78.774353    25.239687    16.314557 
   40800    238.77213   -341.43022    181563.75   -13323.981    982.19343   -14306.174   -596.02464     266.1479    78.772788    25.239591    16.320552 
   41000    248.23674   -237.56169    181563.75   -13277.718    1021.1263   -14298.844   -285.44418    266.70665    78.770335    25.239754    16.319506 
   41200    246.88939   -387.64841    181563.75   -13273.168    1015.5839   -14288.752   -855.13447    271.93581    78.766771    25.242892    16.301183 
   41400    245.74527   -332.25793    181563.75   -13263.405    1010.8776   -14274.283   -583.49686    273.99406    78.767255    25.242193     16.29342 
   41600    238.27986   -261.67154    181563.75   -13250.941    980.16847   -14231.109   -378.76124    272.05003    78.767747    25.246034      16.2887 
   41800    231.58256   -426.16727    181563.75   -13313.374    952.61898   -14265.993   -940.59203    273.68167    78.768992     25.24918    16.291214 
   42000    234.86164    -222.4489    181563.75   -13301.652    966.10754    -14267.76    -234.6325    274.19839    78.769012    25.249112    16.281779 
   42200    237.78995   -367.73495    181563.75   -13310.293    978.15319   -14288.446   -739.58252    272.68325    78.766377    25.251437     16.27013 
   42400    240.73075   -211.83453    181563.75   -13340.326    990.25023   -14330.577   -205.18362    271.76391    78.762342    25.248954    16.251542 
   42600    243.21402   -458.57024    181563.75    -13289.57    1000.4652   -14290.035   -1006.3292    274.91396    78.763307    25.249549    16.267204 
   42800    244.31169   -252.80275    181563.75   -13277.644    1004.9805   -14282.625   -321.50892    273.79049    78.761256    25.247599     16.27541 
   43000    243.64168   -384.35091    181563.75   -13270.527    1002.2244   -14272.751   -812.24673    271.80164    78.760576    25.244444    16.303698 
   43200    242.32112   -288.78697    181563.75    -13291.69    996.79225   -14288.482   -471.55775    272.63202    78.757479    25.239762    16.287233 
   43400    232.49964   -370.53944    181563.75   -13318.966    956.39143   -14275.357   -742.83948    274.02674    78.757521    25.239299     16.30552 
   43600    235.16815    -286.3948    181563.75   -13350.335     967.3684   -14317.703   -492.08884    274.66499     78.75316    25.240302    16.304654 
   43800     238.0879   -211.74407    181563.75   -13302.436    979.37882   -14281.815   -159.80944    276.09436    78.755455    25.241685    16.321267 
   44000    235.94932   -457.66353    181563.75   -13342.966    970.58174   -14313.547   -1054.1214    277.88212    78.755706    25.243251    16.332069 
   44200    239.76316   -299.11575    181563.75   -13291.037    986.27004   -14277.307   -484.63678    278.48724    78.754612    25.246966    16.330756 
   44400    255.93204   -450.71483    181563.75   -13232.831     1052.781   -14285.612   -1029.9074    279.84503    78.753981     25.24754     16.34257 
   44600    241.10951   -323.41177    181563.75   -13273.469    991.80828   -14265.277    -571.3301    281.27658    78.754219     25.24727    16.352723 
   44800     239.0409   -352.60827    181563.75   -13281.188      983.299   -14264.487   -675.55651    283.07516    78.758517    25.250432    16.352797 
   45000    239.18235   -373.10341    181563.75   -13241.277    983.88086   -14225.158    -807.9617    287.95084     78.75973    25.250359     16.31101 
   45200    250.97575   -368.49304    181563.75   -13178.228    1032.3932   -14210.621    -742.5791    287.50926    78.758316    25.249885    16.322176 
   45400    252.07542   -184.69223    181563.75   -13188.651    1036.9167   -14225.568   -92.858942     287.1182    78.756961    25.248578    16.320473 
   45600    247.62354   -516.16253    181563.75   -13224.083    1018.6039   -14242.687   -1282.2158    288.10536    78.759133    25.246917    16.310237 
   45800    236.02037   -313.63746    181563.75   -13301.133    970.87401   -14272.007   -575.84263    290.59455    78.759029    25.247649    16.302307 
   46000    243.42207   -433.02767    181563.75    -13264.97     1001.321   -14266.291   -957.35753    291.65844    78.754923     25.24725    16.322181 
   46200    246.25594   -371.03559    181563.75   -13266.286    1012.9782   -14279.264    -737.0676    290.82536    78.750655    25.249238    16.329537 
   46400     248.9345   -276.87383    181563.75   -13232.511    1023.9965   -14256.508   -430.80423    291.46111    78.749332    25.246363    16.335831 
   46600     242.1798   -401.37951    181563.75   -13280.407    996.21093   -14276.618    -854.8228    292.20708    78.745876    25.245518    16.339393 
   46800    239.17315   -286.72956    181563.75   -13233.671    983.84302   -14217.514   -442.86073    290.67885    78.745622    25.245492    16.334659 
   47000    242.74854   -263.52552    181563.75    -13189.81    998.55048   -14188.361   -372.72807    292.30815    78.746855    25.246129    16.322369 
   47200    235.61925   -397.83288    181563.75   -13282.143    969.22399   -14251.367   -861.75158    294.56705    78.747249     25.24873    16.329515 
   47400      243.145   -448.72205    181563.75    -13246.62    1000.1813   -14246.802   -1060.0507       296.91    78.741043    25.249748    16.294623 
   47600    241.69748   -305.01096    181563.75   -13242.561    994.22691   -14236.787   -523.91636    297.42489    78.739945    25.249711    16.293802 
   47800    250.17293   -467.48225    181563.75   -13253.771    1029.0908   -14282.862    -1113.041    300.26466    78.740942    25.248704    16.287922 
   48000    246.25738   -244.88936    181563.75   -13284.249    1012.9841   -14297.233    -309.1334    302.91845    78.742426    25.249333    16.293202 
   48200    238.71944   -459.28328    181563.75   -13270.637    981.97669   -14252.614   -1078.8336    305.26251    78.745183     25.25038    16.291628 
   48400     236.2823   -425.13488    181563.75   -13290.602    971.95148   -14262.553     -981.976    307.13401    78.751898    25.248328    16.286041 
   48600     243.9867   -315.69208    181563.75   -13257.594    1003.6436   -14261.238   -577.06976    309.86639    78.753027    25.249052     16.30091 
   48800    237.39466   -392.23392    181563.75    -13284.63    976.52718   -14261.157   -787.00745      311.084    78.753548     25.25203    16.295903 
   49000    241.39588   -414.28926    181563.75   -13271.155    992.98628   -14264.141   -865.67467     311.1553    78.752587    25.252251    16.322896 
   49200     246.1688     -356.674    181563.75   -13282.923    1012.6198   -14295.543   -710.20727    311.59743    78.749777    25.250326    16.329198 
   49400    237.62231   -458.94551    181563.75   -13279.157    977.46364   -14256.621   -1057.6992    311.52384    78.749253    25.248919    16.336212 
   49600    239.66053   -311.08601    181563.75   -13307.493    985.84786   -14293.341   -537.25457    310.52406    78.748112    25.248541    16.316236 
   49800     240.0245    -490.7024    181563.75   -13335.821    987.34508   -14323.166   -1161.7067     314.6217    78.744344      25.2518    16.319476 
   50000    226.65288   -426.20743    181563.75   -13343.575    932.34068   -14275.916   -925.05381    314.52812    78.741813    25.250212    16.346186 
   50200    249.80263   -419.19646    181563.75   -13253.628    1027.5676   -14281.195   -893.28869    317.23884    78.739626    25.252089    16.371489 
   50400    235.99433   -404.54133    181563.75   -13300.626    970.76689   -14271.393   -867.44066    321.08596    78.741148     25.25302    16.396625 
   50600    231.64793   -308.86134    181563.75   -13364.742    952.88788   -14317.629   -510.95881    321.37135    78.744652    25.258456    16.404548 
   50800    234.82773   -376.37363    181563.75   -13355.761    965.96806   -14321.729   -784.45146    321.28061    78.740321    25.262431    16.413514 
   51000    252.00252   -360.55012    181563.75   -13279.968    1036.6169   -14316.585    -670.0287    319.64539    78.735212    25.260047      16.4065 
   51200    236.51098   -429.12386    181563.75   -13339.772    972.89214   -14312.664   -950.43319    322.36186    78.731036    25.262263    16.387936 
   51400    242.86613   -331.12549    181563.75   -13305.293    999.03416   -14304.327   -635.25504     322.4448    78.727154    25.262136    16.387653 
   51600    242.89012   -367.22835    181563.75    -13312.71    999.13283   -14311.843   -766.27594    323.89055    78.725979    25.266191    16.338874 
   51800    242.56634   -535.58513    181563.75   -13286.786    997.80099   -14284.587   -1368.1671    328.03294    78.728249    25.269715    16.353922 
   52000    236.62413    -231.8244    181563.75   -13305.975    973.35759   -14279.332   -280.46891    327.53647    78.732313      25.2695    16.366918 
   52200    237.36459   -451.41417    181563.75   -13300.197    976.40347   -14276.601   -1023.0008    330.96263    78.731682    25.270726    16.356491 
   52400    247.89065   -298.23992    181563.75   -13296.503    1019.7026   -14316.205   -553.34646    330.70122    78.731775     25.27379    16.379538 
   52600    236.43804   -441.37123    181563.75   -13298.131    972.59208   -14270.724   -1012.0721    332.36982    78.730583    25.274571    16.363925 
   52800    238.20081   -276.72451    181563.75   -13389.174    979.84331   -14369.017   -416.68581    329.67487    78.732017    25.270337    16.359963 
   53000    229.11156   -406.41692    181563.75   -13397.664    942.45449   -14340.118   -890.84189    331.72521    78.731414     25.26791    16.368149 
   53200    227.34917   -274.96183    181563.75   -13331.945    935.20485    -14267.15   -401.76287    329.70612    78.734997    25.266765    16.360427 
   53400     245.1531   -468.83238    181563.75   -13307.577    1008.4417   -14316.019   -1052.1707    332.60982    78.737131    25.265094    16.370932 
   53600    244.46731   -357.06698    181563.75   -13284.262    1005.6206   -14289.883   -749.86867     330.1408    78.738102    25.263552    16.367238 
   53800    235.50098   -293.86387    181563.75   -13306.479    968.73751   -14275.217   -498.13847    331.00184    78.736364    25.264281    16.380822 
   54000     244.9829   -401.60455    181563.75   -13235.611    1007.7415   -14243.352   -887.88496     332.7115    78.735406    25.261218    16.380465 
   54200    232.89438   -424.38156    181563.75   -13340.509    958.01519   -14298.524   -956.93462    331.37391    78.734217    25.266272    16.407694 
   54400    242.08175   -414.69884    181563.75   -13327.914     995.8076   -14323.722   -900.89985    330.30952    78.730659    25.266773    16.421025 
   54600    245.62029    -343.4198    181563.75   -13287.585    1010.3634   -14297.948   -679.17745    330.93415    78.729928    25.267436    16.408929 
   54800    246.19626    -326.1676    181563.75   -13239.884    1012.7327   -14252.617   -624.06675    331.57518    78.731119    25.270155    16.361263 
   55000    243.74262   -259.62705    181563.75   -13312.876    1002.6396   -14315.516   -378.95273    332.65672    78.729699    25.271128     16.35376 
   55200    242.88244   -278.49653    181563.75   -13309.713    999.10126   -14308.814   -409.47386    334.03912    78.729948     25.27284    16.344928 
   55400     243.8006   -432.12117    181563.75   -13284.018    1002.8781   -14286.896   -938.47397    334.01123    78.728882    25.272786    16.329902 
   55600    241.77512   -352.30799    181563.75   -13316.338    994.54628   -14310.884   -655.96548    337.71447    78.729521    25.272435    16.328542 
   55800    243.76643   -312.88166    181563.75   -13378.061    1002.7376   -14380.798   -554.33989    337.82335     78.72929    25.269348    16.359597 
   56000    234.59488   -407.10731    181563.75   -13380.698    965.01022   -14345.708   -869.68741    338.16454    78.726661    25.269759    16.333878 
   56200    240.27301   -326.86976    181563.75   -13309.805    988.36733   -14298.172   -620.94057    339.37199    78.722635    25.273352    16.360962 
   56400    238.90672   -463.09181    181563.75   -13334.844    982.74706   -14317.591   -1106.7707    341.50885    78.723431    25.269597    16.364999 
   56600    232.77277    -379.7113    181563.75   -13406.499    957.51497   -14364.014   -790.16139    344.03291    78.720763    25.267593    16.362126 
   56800    228.32058   -327.77369    181563.75   -13393.316    939.20077   -14332.517   -608.14161    343.82185    78.716542    25.264614    16.366492 
   57000    229.24825   -416.93584    181563.75   -13382.765    943.01679   -14325.782   -909.76809    345.35383    78.714265    25.261003    16.372345 
   57200    236.87454   -418.28857    181563.75   -13375.929    974.38766   -14350.316   -930.27281    347.09124    78.713358    25.262705    16.362217 
   57400    236.77677    -448.9018    181563.75   -13327.276    973.98547   -14301.261   -1024.5852    347.90445    78.711684    25.264149     16.36977 
   57600    241.46349   -408.54789    181563.75   -13251.205    993.26438   -14244.469   -881.68273    347.18559    78.715536    25.266509    16.363051 
   57800    238.72329   -241.57792    181563.75    -13287.13    981.99252   -14269.123   -289.11152    347.48613     78.71984    25.266267    16.365986 
   58000    242.25034   -472.38298    181563.75   -13260.296     996.5011   -14256.797   -1081.0926    348.61505     78.72187    25.267541    16.365239 
   58200     238.3532   -274.10956    181563.75   -13300.007    980.47016   -14280.477   -412.05965    349.47238    78.720449    25.267061    16.357351 
   58400    229.35809   -304.02414    181563.75   -13315.445    943.46861   -14258.913   -550.27412    350.65187    78.722142    25.268779    16.324231 
   58600    245.56373   -478.77096    181563.75   -13309.782    1010.1308   -14319.913   -1100.4576    353.24108    78.722654    25.268956    16.331091 
   58800    242.21435   -343.25829    181563.75   -13324.219    996.35305   -14320.572   -634.50785    353.30649    78.723065    25.269935    16.327147 
   59000     246.7163   -429.28423    181563.75   -13332.035    1014.8719   -14346.907    -946.0612    355.58463     78.72489    25.269211    16.342575 
   59200    237.10177   -545.80739    181563.75   -13319.481    975.32236   -14294.803   -1389.0623    357.79213    78.725801    25.270136    16.355748 
   59400    233.57104   -374.68332    181563.75   -13330.802    960.79863     -14291.6   -742.33124    357.75744    78.727711    25.264074    16.348793 
   59600    237.33642   -374.75568    181563.75   -13298.637    976.28761   -14274.924   -783.13748    360.43283     78.72648     25.26157    16.340464 
   59800     236.7126    -297.7035    181563.75   -13301.091    973.72151   -14274.812   -466.82135    360.79004    78.728199    25.263257    16.349704 
   60000    241.14918   -560.72228    181563.75   -13333.247    991.97148   -14325.218   -1434.9447    362.47921    78.732244    25.263816    16.329783 
   60200    250.35507   -312.69717    181563.75   -13300.002    1029.8401   -14329.842   -502.93705    363.17751    78.730197    25.265042    16.328057 
   60400    237.38468   -297.65348    181563.75   -13361.688    976.48611   -14338.174   -459.82794    362.56626    78.728677    25.267978    16.336367 
   60600    227.30292   -421.51066    181563.75   -13323.255    935.01463   -14258.269   -892.92612    365.78823    78.728497    25.269947    16.338885 
   60800    239.16141   -385.50102    181563.75   -13346.985    983.79473    -14330.78   -853.92259    367.11143    78.728039    25.269154    16.355775 
   61000    237.87784   -412.70886    181563.75   -13416.846    978.51476    -14395.36    -909.7588    367.15378    78.727297    25.269906    16.342442 
   61200    238.65042   -265.58425    181563.75   -13396.009    981.69276   -14377.702    -372.1091    369.17275    78.726173    25.266612    16.329155 
   61400    236.89774     -430.583    181563.75   -13376.246     974.4831   -14350.729   -963.76991    370.15525    78.726648    25.265428     16.31806 
   61600    233.72434   -291.92084    181563.75   -13341.503    961.42925   -14302.933   -488.60637    370.62072    78.727373    25.271902    16.303585 
   61800    238.49812   -286.75862    181563.75   -13305.086    981.06627   -14286.152   -508.57842    373.58426    78.725744    25.276878    16.309911 
   62000    237.95232   -515.54554    181563.75   -13308.919     978.8211    -14287.74   -1245.0218    374.62519    78.728035     25.27699    16.336989 
   62200    254.77907   -298.79355    181563.75   -13245.842    1048.0382   -14293.881   -469.35518    374.90939    78.725568     25.27681     16.31423 
   62400    253.06284   -403.90122    181563.75   -13243.825    1040.9785   -14284.803   -885.28785    373.73685    78.727499    25.278956    16.336473 
   62600    233.08545   -384.90167    181563.75   -13305.541    958.80116   -14264.342   -783.97993    373.98484    78.726085    25.279007    16.326174 
   62800    235.54012   -318.38932    181563.75   -13282.771     968.8985    -14251.67   -581.66392    373.94863    78.725068    25.275493    16.320463 
   63000    242.67996   -445.99831    181563.75   -13241.104    998.26835   -14239.373    -987.5307    374.79208    78.724702    25.272923    16.339495 
   63200    245.66404   -422.62094    181563.75   -13324.024    1010.5434   -14334.568   -923.50851    373.69581    78.724288    25.271785    16.317885 
   63400    246.05773   -280.39786    181563.75   -13280.544    1012.1629   -14292.707   -410.00342     372.0236    78.723401    25.276115    16.321789 
   63600     241.1807   -485.97464    181563.75   -13213.343    992.10113   -14205.444   -1165.1889    373.22554    78.719065    25.278907    16.316037 
   63800    238.65589   -420.44823    181563.75     -13253.2    981.71529   -14234.915     -923.513    375.18563    78.721828    25.278061    16.303653 
   64000    241.93402   -381.43363    181563.75    -13279.15    995.19993    -14274.35   -831.82849    376.61162    78.725588    25.281437    16.301282 
   64200    242.70749   -409.04523    181563.75   -13296.724     998.3816   -14295.105   -946.63831    379.23232     78.72657    25.282729    16.285208 
   64400    243.94105    -315.3546    181563.75   -13282.101    1003.4559   -14285.557   -543.70952    377.63856    78.726629    25.286064    16.318278 
   64600    243.83748   -285.18795    181563.75   -13301.085    1003.0298   -14304.115   -452.72517    378.29438    78.728457    25.286824    16.296992 
   64800      234.332   -325.90335    181563.75   -13275.651    963.92888   -14239.579   -594.78166    378.54272    78.731806    25.288821    16.274574 
   65000    233.09045   -323.49121    181563.75   -13312.824    958.82173   -14271.646   -595.25826    378.94892    78.735697    25.286803    16.259673 
   65200    235.63496   -460.95046    181563.75   -13317.023     969.2886   -14286.312   -1057.2078    380.22093    78.739663    25.283909    16.236843 
   65400    251.11697   -287.12318    181563.75   -13132.809    1032.9741   -14165.783   -514.36128    382.25821    78.739185    25.280525    16.228407 
   65600    235.86351   -494.99743    181563.75   -13206.228    970.22876   -14176.457   -1214.0014    383.28008    78.742417    25.278274     16.26725 
   65800    247.91192   -326.51487    181563.75   -13200.915    1019.7901   -14220.705   -594.86675    384.59682    78.741753    25.276825    16.269296 
   66000    241.53309   -267.93225    181563.75   -13291.608    993.55068   -14285.159   -428.13983    383.34418    78.740595    25.275661    16.259339 
   66200    242.20583     -567.915    181563.75   -13298.636      996.318   -14294.954   -1454.0159    384.94109    78.740788    25.274918     16.24061 
   66400    228.83279   -202.82834    181563.75     -13358.8    941.30776   -14300.108   -171.61874    385.16294    78.739168    25.277154     16.23344 
   66600    240.21464   -430.07499    181563.75   -13302.699    988.12722   -14290.826   -992.68549    385.62537    78.740427    25.276462    16.228721 
   66800    238.96655   -150.54616    181563.75   -13305.827    982.99318    -14288.82    53.084639    385.64972    78.743133    25.279085    16.226821 
   67000    239.50526   -325.07993    181563.75   -13324.415    985.20915   -14309.624   -593.70896    388.71149    78.744186    25.283386    16.241502 
   67200     235.1601   -254.03618    181563.75   -13338.448    967.33529   -14305.783   -293.78825     391.6486    78.744732     25.28808    16.225805 
   67400    236.95413   -415.47663    181563.75   -13284.566    974.71505   -14259.281   -916.88124    392.71902    78.748349    25.289209     16.23443 
   67600     236.9881   -346.02536    181563.75   -13301.311    974.85478   -14276.165   -704.26857    390.78844    78.750928    25.289189    16.245117 
   67800    244.61701   -257.02111    181563.75   -13295.406    1006.2365   -14301.642   -390.12889    394.57118    78.750311    25.288762    16.253289 
   68000    238.27763   -279.76022    181563.75   -13301.506     980.1593   -14281.665   -441.63909    393.76491     78.75017    25.290735    16.268167 
   68200    237.26073   -442.37689    181563.75    -13288.85    975.97627   -14264.826   -1014.4891    394.11113    78.751587    25.293063    16.307566 
   68400    236.77954   -451.79141    181563.75   -13241.027    973.99688   -14215.024    -1041.922     395.8024     78.75363     25.29319    16.314578 
   68600    233.17647   -274.32355    181563.75   -13306.323    959.17558   -14265.498   -444.65459    396.32218    78.753655    25.295054    16.309254 
   68800    246.17267   -377.81168    181563.75   -13227.561    1012.6357   -14240.196   -818.22083    394.83913    78.756001    25.292185     16.32667 
   69000    244.98117   -421.55244    181563.75   -13211.819    1007.7344   -14219.554    -945.1298     396.5378    78.757495    25.289943    16.297679 
   69200    241.29687   -268.52002    181563.75   -13243.927    992.57898   -14236.506   -402.47232    397.05234    78.756784    25.288836    16.294049 
   69400    234.01214   -455.74737    181563.75   -13267.797     962.6131    -14230.41    -1044.645    398.04697     78.75378     25.28605    16.294849 
   69600     243.2601   -617.85686    181563.75   -13211.327    1000.6548   -14211.981   -1612.2389    399.18553    78.752364    25.285352    16.282084 
   69800     235.7107   -228.90429    181563.75    -13238.13    969.60018    -14207.73   -215.59773    397.32093    78.749454      25.2848    16.324391 
   70000     238.9797   -612.08283    181563.75   -13284.107    983.04726   -14267.155   -1595.3464    399.74651    78.747235    25.281707    16.323327 
   70200     238.6018   -255.57978    181563.75   -13276.566    981.49277   -14258.059   -343.66619    400.15569    78.745536     25.28106     16.32501 
   70400    228.58514   -328.06986    181563.75   -13238.667    940.28905   -14178.956   -608.52613    402.73168    78.743803    25.286017    16.316302 
   70600    239.73907   -425.91081    181563.75   -13228.256    986.17094   -14214.427   -932.73375      404.485    78.742289     25.28772     16.30512 
   70800    232.46372   -365.34035    181563.75   -13269.234    956.24365   -14225.478   -763.46405    404.79623    78.741448    25.287239    16.271403 
   71000    239.06735   -386.89528    181563.75   -13245.702     983.4078   -14229.109   -802.04745    404.02026     78.74022    25.288423    16.283357 
   71200    247.94389   -365.54306    181563.75   -13143.976    1019.9216   -14163.898   -739.46477    403.41019    78.739843    25.289903    16.280457 
   71400    233.71438   -344.72551    181563.75     -13248.1    961.38828   -14209.488   -672.76154    404.36126    78.741857    25.289718    16.285574 
   71600    235.38105   -375.79682    181563.75    -13285.96    968.24416   -14254.204   -794.99115     404.6537    78.737836    25.287595    16.309674 
   71800    234.72256   -369.50585    181563.75   -13300.887    965.53544   -14266.423   -762.16648    404.77024    78.740893    25.284137    16.290985 
   72000    240.15147    -157.9259    181563.75   -13250.495    987.86737   -14238.362    31.476851      405.343    78.741235     25.28519    16.308192 
   72200    238.14645   -436.14811    181563.75   -13240.981    979.61969   -14220.601   -1012.1423    407.77129    78.741047    25.290262     16.33884 
   72400    239.88963   -336.12612    181563.75   -13231.957    986.79027   -14218.748   -656.13545    409.91828    78.743049    25.292613    16.352357 
   72600    243.93127   -356.90655    181563.75   -13224.325    1003.4156    -14227.74   -722.17267      411.458    78.742902    25.296601     16.32292 
   72800    234.85133   -237.70392    181563.75   -13274.646    966.06516   -14240.712   -276.36989    413.18623    78.741581    25.296304    16.346741 
   73000    238.49654   -299.15722    181563.75   -13236.935    981.05976   -14217.994   -485.57548    415.93027    78.743907     25.29538    16.354936 
   73200    250.13405   -163.06233    181563.75   -13175.358    1028.9309   -14204.289    -22.31453    416.47231    78.743037    25.294554    16.362905 
   73400    240.91419   -309.25229    181563.75    -13247.23    991.00483   -14238.235   -519.24404    417.33651    78.743079    25.292867    16.354612 
   73600    239.62117   -347.58244    181563.75   -13224.441    985.68596   -14210.127   -642.66341    418.95107    78.746229    25.290976    16.339882 
   73800    251.76169   -168.33608    181563.75   -13163.814    1035.6262    -14199.44   -42.740239    419.88025    78.748381     25.29195    16.323829 
   74000    239.63807   -385.48422    181563.75    -13177.19    985.75549   -14162.945   -846.89234    421.11357    78.750549    25.298798    16.327029 
   74200    248.57459    -448.9065    181563.75   -13192.112     1022.516   -14214.628   -1085.9675    420.57396    78.745889    25.300641     16.31364 
   74400    238.34343   -399.45939    181563.75   -13254.974    980.42995   -14235.404   -845.46296    423.09981    78.744929    25.304308    16.304338 
   74600     241.9703   -391.28341    181563.75   -13261.342    995.34916   -14256.691    -790.7664    425.54364    78.746771    25.305761    16.294699 
   74800    248.36591   -267.91303    181563.75   -13247.661    1021.6576   -14269.319   -427.59864    426.27523    78.745065    25.302979     16.29569 
   75000    243.60078   -299.23055    181563.75   -13250.598    1002.0561   -14252.654   -517.48061    428.94477    78.743477     25.30267    16.323493 
   75200    237.37802   -319.16724    181563.75   -13262.238    976.45873   -14238.696   -645.78131    430.40358     78.74239    25.297725    16.333869 
   75400    245.69454   -310.41851    181563.75   -13210.611    1010.6689    -14221.28   -588.49293     431.2231    78.743415      25.2958    16.338114 
   75600    247.61037   -359.08594    181563.75   -13276.845    1018.5497   -14295.395   -752.59813     432.3083    78.743781    25.297211    16.324418 
   75800    244.87641   -298.93154    181563.75    -13267.49    1007.3035   -14274.793   -515.74087     434.7318    78.741155     25.29605    16.331212 
   76000    242.55444   -219.04479    181563.75   -13286.093    997.75201   -14283.845   -203.41855    433.15757    78.744014    25.303015    16.321547 
   76200    235.09637   -455.62036    181563.75    -13338.59    967.07313   -14305.663   -1055.7081    434.23017    78.743013    25.305266    16.324615 
   76400    235.26407    -459.2833    181563.75   -13337.361    967.76297   -14305.124   -1081.7889    435.33884    78.740983    25.301068     16.33126 
   76600    242.60046   -377.81641    181563.75   -13323.449    997.94131   -14321.391   -757.99155    435.55966    78.739521    25.298442    16.320325 
   76800    236.05853   -410.93561    181563.75   -13281.195    971.03098   -14252.226   -909.54372    437.28346    78.736344    25.298332    16.320479 
   77000    237.71986   -379.35772    181563.75   -13301.255    977.86488    -14279.12   -815.11481    438.40042    78.733195    25.297531    16.304303 
   77200    242.11915   -397.76755    181563.75   -13295.816    995.96145   -14291.777   -817.96905    438.67321    78.735449    25.296293    16.324427 
   77400    243.18127   -375.33847    181563.75   -13284.692    1000.3305   -14285.022   -780.29404    438.81469    78.737469    25.291751    16.322247 
   77600    244.10299   -244.23836    181563.75   -13302.738     1004.122    -14306.86   -323.18706    437.45532     78.73664    25.291823    16.318889 
   77800    238.53996   -359.33824    181563.75   -13302.824    981.23838   -14284.062   -685.09944    437.73879    78.733903    25.292282    16.301779 
   78000    227.56788   -392.29876    181563.75   -13360.015    936.10452    -14296.12   -790.65653    437.30318    78.730081    25.286815    16.292717 
   78200    244.78333   -385.22248    181563.75   -13294.705    1006.9206   -14301.625   -762.90212    440.34677    78.724091    25.284524    16.279578 
   78400    241.76256   -360.87365    181563.75   -13307.189     994.4946   -14301.684   -723.55131    439.62423    78.717888    25.281673    16.307119 
   78600    232.89279   -342.94247    181563.75   -13379.038    958.00865   -14337.046   -659.12442    440.17679    78.714371    25.278119      16.3001 
   78800    229.88173   -502.47601    181563.75   -13334.966     945.6226   -14280.589   -1198.1436    441.03717    78.715605     25.27522    16.291288 
   79000     239.0042    -360.9449    181563.75   -13321.364    983.14804   -14304.512   -697.96468    440.84953    78.714567    25.272395      16.2847 
   79200    241.01953   -470.42047    181563.75   -13284.872    991.43815    -14276.31   -1155.3264    442.67784    78.713627    25.273498     16.31087 
   79400    242.53581   -218.58686    181563.75   -13346.932     997.6754   -14344.608   -211.85924    440.57203    78.712095    25.272754     16.31225 
   79600    232.67513   -395.03063    181563.75   -13296.172    957.11332   -14253.285   -828.44181    444.80935    78.707864    25.267498    16.303445 
   79800    236.96458    -399.0924    181563.75   -13313.529    974.75805   -14288.287   -845.89767    444.74303    78.706318    25.265103    16.295994 
   80000    238.55415   -381.15508    181563.75   -13313.552    981.29676   -14294.849   -807.82597    443.63879    78.706462     25.26047    16.317012 
   80200    241.03161   -347.61895    181563.75   -13268.088    991.48784   -14259.576   -691.31393    444.55764    78.707736    25.257427    16.346196 
   80400    236.40562   -349.11841    181563.75   -13274.719    972.45876   -14247.178   -638.74323    447.41026    78.707927    25.255565    16.355035 
   80600    246.28803    -368.7376    181563.75   -13200.839    1013.1102    -14213.95   -756.87612    448.00662    78.707826     25.25035    16.367458 
   80800    237.50197   -401.41375    181563.75   -13280.111     976.9686   -14257.079   -865.80701     450.0265    78.708224    25.246513    16.333209 
   81000     243.1037   -283.91062    181563.75   -13200.044    1000.0114   -14200.056   -462.73398    452.90823    78.706092    25.244644    16.325979 
   81200     243.9561    -426.5313    181563.75   -13244.095    1003.5178   -14247.613   -989.26065    451.21403    78.701959    25.246539    16.322902 
   81400    237.41348   -482.85429    181563.75    -13289.12    976.60459   -14265.725   -1164.9991    454.39612    78.700825    25.250452    16.334584 
   81600    251.36174   -384.77463    181563.75   -13269.627     1033.981   -14303.608   -824.48047    456.32092    78.697878    25.250044    16.339856 
   81800    235.54789   -359.25351    181563.75   -13279.865    968.93047   -14248.795   -679.55781    457.21363      78.6971    25.250334    16.336065 
   82000    247.06765   -246.39124    181563.75   -13266.616    1016.3172   -14282.934   -309.98105    458.14836    78.696882    25.250271    16.340075 
   82200    236.37597   -512.57944    181563.75   -13317.481    972.33679   -14289.818   -1259.7006    457.24075    78.698762    25.244535    16.329611 
   82400    232.48301   -236.20228    181563.75   -13353.198    956.32302   -14309.521   -248.91696    457.83659    78.701165    25.241644     16.34173 
   82600    235.85709    -422.1395    181563.75   -13332.379    970.20237   -14302.581   -928.29281    459.29355    78.702241    25.240766    16.343992 
   82800    239.92552   -373.98329    181563.75   -13273.482     986.9379    -14260.42   -759.84832    461.55043    78.705649    25.245105     16.34472 
   83000    243.73939   -645.85511    181563.75   -13261.554    1002.6263   -14264.181   -1768.8529    465.66551    78.704274    25.247125    16.363342 
   83200    243.84217    -341.4154    181563.75   -13273.518    1003.0491   -14276.567   -676.63791    466.37949    78.702192     25.24943    16.355817 
   83400    239.08182    -507.9272    181563.75   -13299.593    983.46734    -14283.06   -1239.0767    466.80089    78.701965    25.249218     16.34862 
   83600    247.70701   -489.05418    181563.75   -13280.498    1018.9472   -14299.445   -1214.4866    469.23451    78.703971    25.245646    16.331263 
   83800    231.02888   -373.33638    181563.75   -13360.201    950.34144   -14310.542   -764.38938    468.80878    78.705412    25.237933    16.367028 
   84000    235.17044   -346.17698    181563.75   -13356.703    967.37779   -14324.081   -653.04683    469.78632     78.70711    25.234797     16.34772 
   84200    241.39453   -386.37843    181563.75   -13358.948    992.98073   -14351.929   -783.54407    474.38303    78.713106     25.23368    16.343175 
   84400    240.98296   -326.80431    181563.75    -13341.45    991.28771   -14332.738   -626.05684    475.45898    78.717853    25.233782    16.325503 
   84600    247.88548   -423.36802    181563.75   -13316.943    1019.6813   -14336.624   -930.01605    478.32507    78.722407    25.235337    16.330361 
   84800    243.45183   -227.19998    181563.75   -13355.766    1001.4435    -14357.21   -256.52961    478.11198    78.725543    25.232665    16.327782 
   85000    235.55067    -216.7038    181563.75   -13373.273    968.94188   -14342.214   -211.72581    477.24227    78.726734    25.231088    16.347462 
   85200    248.96818   -484.98654    181563.75   -13256.758    1024.1351   -14280.893   -1154.2617    479.07117    78.729948    25.234735    16.328421 
   85400    241.49836   -407.99866    181563.75   -13336.727     993.4078   -14330.135   -870.67005    479.89381     78.73255    25.240433    16.347927 
   85600    247.32481   -415.64829    181563.75   -13324.841     1017.375   -14342.216    -908.7685    478.56061    78.732347     25.24336    16.339975 
   85800    241.53556   -325.73836    181563.75   -13275.811    993.56084   -14269.372   -571.74635    479.88062    78.731996      25.2477    16.340513 
   86000    240.15255   -297.18368    181563.75   -13302.281    987.87182   -14290.153   -513.47051    478.94413    78.732116    25.251763    16.340012 
   86200    238.38893   -473.79008    181563.75   -13361.071    980.61712   -14341.688   -1086.8158    480.35675    78.731728    25.255715    16.347952 
   86400    234.25826   -265.48597    181563.75   -13352.517    963.62553   -14316.143   -358.33083    483.06813    78.733659     25.25803    16.334917 
   86600    240.96137   -350.28072    181563.75   -13344.034    991.19891   -14335.233   -685.14635    483.22303    78.734994     25.26289    16.355112 
   86800    243.77658   -411.14872    181563.75   -13351.152    1002.7793   -14353.932    -879.4599    484.30982    78.733533    25.265171    16.369403 
   87000    235.02895   -407.11206    181563.75   -13357.328    966.79577   -14324.124   -861.88325     487.7337    78.732892    25.263837     16.37307 
   87200     238.3288   -290.04409    181563.75    -13331.95    980.36977    -14312.32   -437.19536    491.01727    78.732347    25.265138     16.37924 
   87400    240.23834   -365.62865    181563.75   -13322.953    988.22472   -14311.178   -727.09464    493.41591    78.735422    25.270902    16.383114 
   87600    244.15902   -361.53206    181563.75   -13302.851    1004.3525   -14307.204   -701.61178     495.8258    78.736077     25.27613    16.390542 
   87800    239.12706   -554.94565    181563.75    -13320.23    983.65345   -14303.884   -1408.4982    496.02296    78.734311     25.27535    16.371019 
   88000    239.22108   -351.75022    181563.75    -13243.65    984.04017    -14227.69   -664.67446    495.50327    78.735548    25.275688    16.365788 
   88200    239.95742   -252.43986    181563.75   -13239.928    987.06914   -14226.997    -334.7538    497.55938    78.737572    25.273489    16.384685 
   88400    251.93725   -401.25612    181563.75   -13270.929    1036.3484   -14307.277      -851.71    501.75775    78.737156    25.273645    16.369713 
   88600    234.75486   -231.63824    181563.75   -13320.264     965.6683   -14285.932   -248.13059    502.42132    78.738095    25.270721    16.376684 
   88800    244.61618   -366.62938    181563.75   -13359.727     1006.233    -14365.96   -742.01368    504.44671    78.737737    25.276124    16.384047 
   89000    225.80175   -310.24894    181563.75   -13385.126    928.83955   -14313.966    -563.0649     504.9695     78.73815     25.27779    16.391141 
   89200    228.22648   -319.13879    181563.75   -13384.484    938.81369   -14323.297   -564.89352    502.81423    78.738414    25.277366    16.391849 
   89400     240.1821   -306.11123    181563.75   -13347.384    987.99337   -14335.377   -508.20383    502.08366    78.738301     25.27636    16.388744 
   89600    236.42669   -354.16907    181563.75   -13383.183     972.5454   -14355.728   -704.94691     505.5595     78.73897    25.272705    16.386883 
   89800    238.35341   -330.83393    181563.75   -13333.003    980.47103   -14313.474   -621.93837     508.5116    78.737237    25.275855    16.391392 
   90000    245.79081   -391.33467    181563.75   -13264.582    1011.0649   -14275.647   -784.60086    510.50053    78.739859     25.27359    16.389559 
   90200    241.06984   -320.76109    181563.75   -13330.745    991.64509    -14322.39   -580.26358    511.70138    78.739567    25.275116    16.370105 
   90400     232.1503    -489.2132    181563.75   -13395.072    954.95441   -14350.026   -1139.8186    513.54444    78.737753    25.270108    16.379777 
   90600    239.73589   -512.45742    181563.75   -13285.517    986.15788   -14271.675   -1219.1925    513.85659    78.735163    25.271641    16.393262 
   90800    245.70755   -399.99539    181563.75   -13269.946    1010.7224   -14280.669   -876.75857    509.66627    78.735513    25.269522    16.390724 
   91000    235.82816   -429.75593    181563.75   -13324.208    970.08334   -14294.292   -901.62607    511.95222    78.735423    25.268875    16.379996 
   91200    242.87342   -308.91499    181563.75   -13335.124    999.06416   -14334.188   -502.36502    513.16245    78.735667    25.272126    16.377642 
   91400    235.91691   -332.33347    181563.75   -13360.929    970.44843   -14331.377   -567.18324    515.64619    78.739119    25.273053    16.380122 
   91600    244.33308   -321.14956    181563.75    -13267.16    1005.0685   -14272.228   -580.14365    517.46612    78.742416    25.271053    16.371696 
   91800    242.36925   -296.69783    181563.75   -13282.194    996.99022   -14279.185   -448.74489    516.65222    78.744134    25.273092    16.385526 
   92000    247.23675   -428.73896    181563.75   -13245.521    1017.0128   -14262.534   -936.36379     518.6106    78.741022    25.275126    16.379673 
   92200    236.26493   -445.00333    181563.75   -13237.464    971.87999   -14209.344   -1021.9435    518.50234    78.742793    25.272912    16.347023 
   92400    246.64321   -481.76374    181563.75   -13209.831    1014.5712   -14224.402   -1141.3139    517.79207    78.745003    25.271744    16.354178 
   92600    240.19155   -474.45788    181563.75   -13272.925    988.03222   -14260.957   -1119.5726    516.70609     78.74667    25.275326     16.36854 
   92800    238.12659   -360.37943    181563.75   -13299.023      979.538   -14278.561    -715.5918    515.98599    78.747425    25.271208    16.360933 
   93000    235.04969   -219.98608    181563.75   -13335.351    966.88109   -14302.232   -163.36725    518.37057    78.747118    25.268743    16.356447 
   93200    234.95267   -381.54408    181563.75   -13278.419      966.482   -14244.901   -737.06595    521.27055     78.74165    25.267926    16.331801 
   93400    242.22148    -250.0768    181563.75   -13301.834    996.38238   -14298.216   -323.13349     517.7594    78.741139    25.268221    16.334097 
   93600     245.3858   -518.70449    181563.75    -13262.92    1009.3989   -14272.319   -1237.0035     521.1794    78.739491    25.270104    16.307733 
   93800    244.58447   -284.23216    181563.75   -13219.546    1006.1026   -14225.649   -415.83415    517.64224    78.736558    25.272627     16.30982 
   94000    235.56847   -410.66709    181563.75   -13291.489     969.0151   -14260.504   -930.95565    521.52778    78.734525    25.272364    16.291655 
   94200    244.44256   -230.45638    181563.75   -13229.371    1005.5188    -14234.89   -247.58946    522.43079    78.732948    25.269601    16.278181 
   94400    246.45717   -413.88452    181563.75   -13212.112     1013.806   -14225.918   -901.61029    523.82639    78.737511    25.268645    16.288971 
   94600    239.13526   -247.63852    181563.75    -13247.72    983.68715   -14231.407   -335.24487    524.09914    78.734144    25.268788    16.280782 
   94800    244.68729   -353.47488    181563.75   -13204.189    1006.5255   -14210.714   -676.90418    525.96458    78.734103    25.270691    16.292164 
   95000    240.61563   -378.06259    181563.75   -13277.188    989.77669   -14266.965   -743.78027    527.40816    78.735295    25.267537    16.261912 
   95200    239.01458   -177.96988    181563.75    -13273.46    983.19074   -14256.651   -81.028816     524.8093    78.734452    25.266526    16.261761 
   95400    229.20112   -380.68762    181563.75   -13283.409    942.82288   -14226.232   -804.75319    526.01707     78.73052    25.266184    16.249928 
   95600    241.05504   -314.44599    181563.75   -13295.495    991.58423   -14287.079   -541.73202    528.01005    78.732808    25.268352    16.216522 
   95800    236.33621   -444.28456    181563.75     -13334.6    972.17323   -14306.773   -1058.2905    527.68888    78.734455     25.26808    16.207717 
   96000    235.15421    -354.0114    181563.75   -13354.585    967.31106   -14321.896   -724.96634    529.20946    78.732416    25.263167    16.194292 
   96200    241.13743   -292.82434    181563.75   -13327.171    991.92311   -14319.094   -511.12543    531.37842    78.732302    25.264361    16.201893 
   96400    240.44918   -303.71113    181563.75   -13293.352    989.09201   -14282.444   -473.07727    531.02224    78.732123    25.263244    16.189615 
   96600    234.35188   -374.72486    181563.75   -13333.734    964.01063   -14297.745   -784.52193    534.55689    78.738963    25.263391    16.189903 
   96800    250.06275   -371.77991    181563.75    -13275.97    1028.6376   -14304.608   -783.94345     533.8094    78.739938    25.261443    16.203889 
   97000    239.40468    -107.2103    181563.75   -13296.788    984.79541   -14281.584    213.63475     533.9084    78.738133    25.259592      16.2066 
   97200    239.00615   -364.79768    181563.75   -13247.172    983.15606   -14230.328   -735.79478    532.05323     78.73751    25.259679    16.213489 
   97400    234.50686   -375.20521    181563.75   -13346.114    964.64818   -14310.762   -753.05216    532.30718    78.736921    25.260109    16.201827 
   97600    239.38919   -361.09017    181563.75   -13306.479    984.73172    -14291.21   -725.56069    532.05873    78.735999     25.25991    16.216709 
   97800    239.77543   -163.12951    181563.75    -13318.52    986.32052   -14304.841    41.311056    534.79511     78.73522    25.260881    16.203805 
   98000    236.42591   -199.51702    181563.75   -13367.195    972.54219   -14339.737   -116.25992    535.02556    78.734007    25.261098    16.192713 
   98200    240.89137   -529.06385    181563.75   -13356.045    990.91094   -14346.956   -1355.8008    537.87934    78.731488    25.260241    16.199207 
   98400    238.17675   -307.77853    181563.75    -13317.16    979.74432   -14296.905   -479.93765     537.6311    78.731146    25.256955    16.214735 
   98600    236.68862   -324.07657    181563.75   -13285.355    973.62288   -14258.977   -594.06987    538.02184    78.728784    25.254517    16.250646 
   98800    252.95241   -330.78546    181563.75   -13178.087    1040.5243   -14218.612   -617.17956    535.74419    78.728002    25.254431    16.234884 
   99000     242.6309   -380.48218    181563.75   -13237.819    998.06654   -14235.886   -794.84109    537.75785    78.726482     25.25075    16.209315 
   99200    242.05082    -400.4598    181563.75   -13243.828    995.68038   -14239.508   -830.05848    538.93234    78.728549    25.252492    16.213545 
   99400     243.9625   -289.46413    181563.75   -13232.377    1003.5441   -14235.922   -446.15624    540.66706    78.726726    25.253889    16.211444 
   99600    241.91459   -351.80615    181563.75   -13242.398       995.12   -14237.518   -697.94136    542.50177     78.72604    25.262832    16.221093 
   99800    238.52966   -380.22117    181563.75   -13240.167    981.19601   -14221.363   -779.87685    544.44331    78.728205    25.264026    16.210281 
  100000    244.14674   -255.32544    181563.75   -13286.021     1004.302   -14290.323   -377.24933    547.23258    78.728456    25.265434    16.200827 
  100200    252.02516   -336.67705    181563.75   -13241.244      1036.71   -14277.954   -654.00354    545.76015    78.729449    25.267369    16.215334 
  100400    241.53439   -452.81688    181563.75   -13296.542    993.55603   -14290.098   -1034.0713    545.80905    78.731903    25.265769    16.215894 
  100600    228.17905    -256.3434    181563.75   -13312.451    938.61858    -14251.07   -413.29801    544.79854    78.734841    25.266498    16.222406 
  100800    239.52843    -395.4474    181563.75   -13230.087    985.30447   -14215.392   -833.56828    545.62305    78.737267    25.263306    16.239088 
[...]
 5175800    217.91552   -391.20607    181563.75     -14685.1    896.39938   -15581.499   -758.23223    7552.1238    80.495941     25.86579    16.341019 
 5176000    226.22157   -368.89614    181563.75   -14641.218    930.56648   -15571.784   -670.62511    7553.9536     80.49833    25.865384    16.341302 
 5176200    235.42831   -503.35355    181563.75   -14656.774    968.43856   -15625.212   -1153.5876    7557.5231    80.499904    25.865028    16.341003 
 5176400      225.348   -514.61829    181563.75   -14701.971    926.97302   -15628.944   -1199.4833    7555.0783    80.501543    25.864555    16.337284 
 5176600    222.71424   -446.28009    181563.75   -14645.673    916.13899   -15561.812   -965.11191    7552.1193     80.50157     25.86476     16.33506 
 5176800    218.26914   -426.26869    181563.75   -14662.554    897.85402   -15560.408   -843.86251    7555.3549    80.502547    25.865718    16.337223 
 5177000    224.69895   -445.34303    181563.75   -14671.912    924.30314   -15596.215   -947.38044    7554.8144    80.503677    25.866072    16.333718 
 5177200    231.92309   -446.09766    181563.75   -14629.401    954.01978   -15583.421   -970.80911    7555.5052    80.504822    25.867696    16.337912 
 5177400    227.68897   -412.95016    181563.75   -14651.555    936.60265   -15588.158   -859.36127    7554.7614    80.505944    25.868677    16.335327 
 5177600    226.34304   -399.62768    181563.75   -14659.567    931.06614   -15590.634    -744.3953    7555.1099    80.505973    25.868378    16.338412 
 5177800    222.63747   -454.65339    181563.75   -14672.321    915.82322   -15588.144    -984.8257    7556.3948     80.50434     25.86855    16.334356 
 5178000    228.41539   -411.78751    181563.75    -14658.47     939.5908   -15598.061   -835.98796    7554.9144    80.506311    25.868487    16.339771 
 5178200    225.96222   -383.74072    181563.75   -14674.429    929.49963   -15603.929   -748.85902    7555.1407    80.505918    25.869332    16.340499 
 5178400     231.3603   -363.82235    181563.75   -14654.159    951.70472   -15605.863   -653.34796    7552.8676    80.505199    25.872788    16.342085 
 5178600    230.40062   -364.23877    181563.75   -14645.908    947.75707   -15593.665   -669.92915    7553.3743    80.506067     25.87357    16.347288 
 5178800    228.58199   -385.10665    181563.75   -14613.191    940.27608   -15553.468   -686.55235    7553.4678    80.506412    25.873758    16.348691 
 5179000     230.6478   -508.58446    181563.75   -14611.852    948.77385   -15560.625   -1183.3033    7555.0401    80.506269    25.872419    16.339279 
 5179200    226.36271   -491.94186    181563.75   -14648.585    931.14704   -15579.732   -1125.3912    7555.0964    80.506713    25.873403    16.340985 
 5179400    226.74575   -368.11935    181563.75    -14655.55     932.7227   -15588.272   -624.62964    7553.1103    80.507054     25.87359    16.341362 
 5179600    226.54157   -383.64438    181563.75   -14672.922     931.8828   -15604.804   -709.42923     7553.379    80.506223     25.87274    16.343628 
 5179800    229.75448   -413.33446    181563.75   -14633.833    945.09917   -15578.932   -867.49769    7555.5164    80.506314    25.872576    16.352946 
 5180000    219.14934   -442.73358    181563.75   -14660.013    901.47475   -15561.488   -936.22227      7554.85    80.507389    25.872835    16.349089 
 5180200    221.15756   -365.32988    181563.75   -14654.924    909.73557    -15564.66    -620.3675    7553.6758    80.508157    25.873342    16.346496 
 5180400    226.66142   -413.16254    181563.75   -14638.318    932.37582   -15570.694   -838.13746    7556.0784    80.508804    25.874428    16.345513 
 5180600    222.09515   -482.28619    181563.75   -14692.668    913.59235    -15606.26   -1134.8915    7553.6684      80.5095    25.874962    16.348961 
 5180800    228.83309   -455.07655    181563.75   -14663.174    941.30901   -15604.483   -960.62588    7553.2654    80.508438    25.877978    16.348774 
 5181000    224.12522   -426.38763    181563.75    -14673.68    921.94308   -15595.623   -866.52228     7553.302    80.508895    25.877803     16.36073 
 5181200    227.77074   -418.62917    181563.75   -14647.153      936.939   -15584.092      -865.99    7554.5237    80.509589    25.878433    16.353362 
 5181400    226.75136   -509.30503    181563.75   -14631.246    932.74575   -15563.992   -1191.5976    7556.0586    80.510631    25.877624     16.34886 
 5181600    225.29428   -410.88515    181563.75   -14628.327    926.75205   -15555.079   -790.62648    7553.8513    80.510738    25.878413    16.349277 
 5181800    230.20234   -372.98522    181563.75   -14605.739    946.94144   -15552.681   -684.93162    7553.0557    80.509383    25.878096    16.357665 
 5182000     220.3999   -475.20054    181563.75   -14681.489    906.61893   -15588.108   -1034.2402    7556.8631     80.50783    25.879303    16.349447 
 5182200    216.50837   -399.16047    181563.75   -14745.086    890.61104   -15635.697   -774.55204    7554.5428    80.508125    25.881484    16.345739 
 5182400    225.76375   -428.75168    181563.75   -14650.302    928.68322   -15578.985   -873.78473    7554.8588    80.509359    25.883871    16.348077 
 5182600    234.66496   -403.68032    181563.75   -14625.024    965.29851   -15590.322   -760.67737    7555.7452    80.510172    25.884731    16.344282 
 5182800     227.2243    -453.7255    181563.75   -14654.932    934.69124   -15589.623   -964.45776    7555.6223    80.511291    25.884158    16.343702 
 5183000    226.94681   -428.59968    181563.75   -14646.743    933.54977   -15580.293    -876.5397    7556.2013    80.510618    25.883436    16.337303 
 5183200     231.5326   -353.07164    181563.75   -14616.198    952.41348   -15568.612   -628.73137     7552.654    80.510403    25.884441    16.350772 
 5183400    221.94908   -434.46389    181563.75   -14666.815    912.99149   -15579.807    -967.4208    7557.6563    80.509475    25.885275    16.343004 
 5183600    224.02388   -412.94461    181563.75   -14650.288    921.52625   -15571.814   -836.35001    7556.0992    80.509643    25.886654    16.343669 
 5183800    220.83073   -337.35417    181563.75   -14684.148    908.39117   -15592.539   -566.43947    7553.2819    80.510589    25.888254    16.347721 
 5184000     225.2175   -393.65097    181563.75    -14667.49    926.43622   -15593.926   -766.45255    7556.3096    80.511265    25.889956    16.339197 
 5184200    223.57439   -442.68494    181563.75   -14654.593    919.67725    -15574.27   -912.91171    7558.8083    80.513082    25.893018    16.342475 
 5184400     220.1165   -400.28271    181563.75   -14670.697    905.45314    -15576.15   -786.17635    7555.5503    80.515059    25.894423    16.345329 
 5184600    223.90127   -440.56596    181563.75   -14642.177    921.02189   -15563.199   -967.04863    7553.6343    80.515722    25.895865    16.348147 
 5184800    231.94326   -518.97679    181563.75   -14598.763    954.10276   -15552.865   -1203.0056    7555.8483    80.515693    25.897731    16.346058 
 5185000     231.3003   -416.01814    181563.75   -14592.286    951.45791   -15543.744   -823.58602    7554.9721    80.512888    25.898075    16.350703 
 5185200    226.28619   -402.21546    181563.75   -14638.835    930.83228   -15569.667    -773.7431    7557.3107    80.512341    25.897995    16.345544 
 5185400    220.58051    -444.5875    181563.75   -14653.069    907.36188   -15560.431   -952.45786    7558.0951    80.509694    25.900735    16.350389 
 5185600    221.03819   -500.91461    181563.75   -14702.651    909.24453   -15611.896   -1130.9284    7554.2872    80.508623      25.9023    16.350619 
 5185800     223.3097   -366.78835    181563.75   -14643.198    918.58843   -15561.786   -667.18829    7554.8084    80.507188    25.905328    16.348689 
 5186000    232.59619   -467.91192    181563.75   -14610.948     956.7886   -15567.736   -1041.9308    7556.5038    80.506542    25.906171    16.354919 
 5186200    230.21116   -404.00495    181563.75   -14594.722    946.97772   -15541.699   -755.04523    7558.0634    80.506547    25.909118    16.349137 
 5186400     232.9089   -393.70762    181563.75   -14666.444    958.07493   -15624.519   -754.99991    7555.6519    80.504589    25.910545    16.347876 
 5186600    221.99083   -390.08133    181563.75   -14649.924    913.16326   -15563.087   -733.73406    7556.1705    80.502916    25.912241    16.342178 
 5186800    230.77085   -495.95334    181563.75   -14613.026    949.28002   -15562.306   -1122.3904    7558.9599    80.502038    25.912836    16.350996 
 5187000    221.14826   -415.44296    181563.75   -14653.248     909.6973   -15562.945    -863.6981     7556.911    80.501868    25.915869    16.345626 
 5187200    228.81138   -387.76787    181563.75   -14633.577    941.21968   -15574.797   -731.42014    7554.4049    80.501351    25.916153    16.357147 
 5187400    226.63094   -486.03916    181563.75   -14688.802    932.25042   -15621.052   -1096.4065    7559.9613    80.499888    25.917911     16.34551 
 5187600    225.81518   -529.15591    181563.75   -14664.614     928.8948   -15593.509   -1243.4537    7558.7828    80.499301    25.919716    16.340657 
 5187800    231.50861   -397.90361    181563.75   -14638.111    952.31481   -15590.426   -826.14795     7555.263    80.497263    25.921123    16.343245 
 5188000    222.10914    -431.6774    181563.75   -14659.754    913.64993   -15573.404   -908.96719    7554.7185    80.497474    25.923185    16.352474 
 5188200    223.50687   -413.20186    181563.75   -14621.601    919.39948   -15541.001   -817.08703    7558.6786    80.498026    25.924682    16.341184 
 5188400    229.40959   -383.16594    181563.75   -14641.149    943.68045    -15584.83   -688.30635    7556.1783    80.499771    25.924473    16.340216 
 5188600    227.47559   -429.35519    181563.75   -14663.928     935.7249   -15599.653   -967.81438    7554.5608    80.500708    25.925356    16.333839 
 5188800    222.37279   -451.36323    181563.75   -14617.114    914.73445   -15531.848   -993.79462    7557.0272    80.500599    25.925441     16.33995 
 5189000    225.49004   -456.91448    181563.75     -14639.3    927.55729   -15566.857   -955.28813    7558.4411    80.501705    25.927603    16.334649 
 5189200    234.07186   -412.83276    181563.75   -14621.792    962.85877   -15584.651   -866.02612     7557.017    80.501573     25.92857    16.329794 
 5189400    225.12063   -464.10753    181563.75   -14644.895    926.03774   -15570.933   -1014.2111    7557.8245    80.502405    25.928461    16.339322 
 5189600    217.35967   -515.97833    181563.75   -14659.478    894.11288    -15553.59   -1227.9153     7556.263    80.502788    25.929278    16.332212 
 5189800    218.96079   -407.06517    181563.75   -14661.256    900.69914   -15561.956   -750.80285    7558.5344    80.504231    25.930118    16.334252 
 5190000    222.64168   -322.72576    181563.75   -14649.199    915.84055   -15565.039   -508.13065    7556.7742    80.505511    25.931754    16.332052 
 5190200    221.80787   -449.08134    181563.75    -14677.89    912.41065     -15590.3   -970.17586    7556.1443    80.505705    25.934838    16.335133 
 5190400    222.45167   -455.94626    181563.75   -14637.473    915.05894   -15552.531   -934.75309    7557.4544    80.505584    25.936265    16.331207 
 5190600     233.7387   -407.46147    181563.75    -14620.12    961.48832   -15581.609   -831.07932     7556.774    80.507663    25.937147    16.342522 
 5190800    228.59586   -359.34151    181563.75   -14643.551    940.33315   -15583.884   -683.28201    7555.9153    80.505621    25.939403    16.337229 
 5191000    223.67368   -460.93197    181563.75   -14693.114    920.08568   -15613.199   -1008.6619    7555.2663    80.506351    25.940321    16.340331 
 5191200    227.26671   -338.61859    181563.75   -14670.626    934.86566   -15605.492   -513.91042    7555.2393    80.507792    25.940403    16.334456 
 5191400    227.05619   -361.90948    181563.75   -14653.491    933.99969    -15587.49   -626.94518    7556.2585    80.508118    25.942408    16.332929 
 5191600    222.17041    -417.5882    181563.75    -14645.75    913.90196   -15559.652   -868.93084    7558.2863    80.510186    25.944699    16.331984 
 5191800    217.64864   -435.42796    181563.75   -14667.102    895.30157   -15562.403   -908.51964    7554.6799    80.512306    25.945127    16.324874 
 5192000    228.43054   -342.15053    181563.75   -14629.714     939.6531   -15569.367   -573.02937    7556.3533    80.513128    25.945388     16.32489 
 5192200    230.27397   -382.01726    181563.75   -14576.546     947.2361   -15523.782   -711.25192    7554.7731    80.515736    25.946308    16.331655 
 5192400     230.5536   -430.32211    181563.75   -14566.658    948.38637   -15515.045   -899.29981    7556.4864    80.517463    25.946107    16.331463 
 5192600     224.0911   -477.53429    181563.75   -14646.982    921.80275   -15568.785   -1079.1497    7555.4555    80.517911    25.947639    16.332985 
 5192800    223.02542   -432.04376    181563.75   -14659.246    917.41905   -15576.665   -934.20102    7556.9222    80.517553    25.949565    16.335911 
 5193000    225.29802   -429.12562    181563.75   -14633.499    926.76742   -15560.266   -892.82283    7555.1756    80.518709    25.948095    16.334485 
 5193200    220.70704   -449.25222    181563.75   -14622.525    907.88237   -15530.408   -938.94512    7558.6937    80.518971    25.948923    16.337315 
 5193400    218.48201   -384.90146    181563.75    -14682.77    898.72964   -15581.499   -708.43602    7555.1905    80.519643    25.951462    16.332388 
 5193600    224.29904   -425.78401    181563.75   -14615.959    922.65811   -15538.617   -865.20561    7554.8288    80.519689     25.95113    16.326888 
 5193800    220.30454   -469.66156    181563.75   -14647.448    906.22666   -15553.674   -1031.1445    7553.6352    80.519472    25.952461    16.314539 
 5194000    235.02302   -378.86926    181563.75   -14602.012    966.77139   -15568.784   -697.35658    7554.3364    80.520502    25.952616    16.316374 
 5194200    222.75236   -426.84564    181563.75   -14620.522    916.29582   -15536.818   -866.61314    7552.9674    80.520492    25.952968    16.307895 
 5194400    227.25353   -486.91112    181563.75   -14588.926    934.81145   -15523.738   -1113.5681    7553.3509    80.519931    25.953386     16.31316 
 5194600    225.65897   -413.49593    181563.75   -14636.475    928.25222   -15564.727   -856.95117    7551.4957    80.519827    25.953697    16.316783 
 5194800    230.21928   -351.27581    181563.75   -14601.174    947.01114   -15548.185   -614.36499    7551.2458     80.51791    25.954108     16.31518 
 5195000    228.37909   -479.62681    181563.75   -14606.347    939.44146   -15545.788   -1074.3393    7551.5915    80.517591     25.95366    16.321921 
 5195200    224.71244   -494.90628    181563.75   -14656.218    924.35865   -15580.576   -1128.2951    7552.3324    80.516002    25.952557    16.318284 
 5195400    226.84738   -382.01937    181563.75   -14636.118    933.14076   -15569.258   -687.53898    7549.0418    80.514277    25.951437    16.324241 
 5195600    224.01351   -457.48514    181563.75   -14639.996    921.48358   -15561.479   -1028.8256    7552.4122    80.513862     25.95034    16.328648 
 5195800    221.60076   -466.83715    181563.75   -14649.383     911.5587   -15560.941   -1035.2049    7551.3635    80.511672     25.95159    16.330732 
 5196000    236.21309    -423.6743    181563.75   -14606.425    971.66677   -15578.091   -824.45346     7553.985    80.510193    25.951102     16.33629 
 5196200    225.81595   -371.03609    181563.75   -14630.545    928.89794   -15559.442   -688.97566    7550.1483    80.510457     25.94844    16.328976 
 5196400    229.96194   -366.82336    181563.75   -14588.459    945.95256   -15534.411   -660.95084    7554.8617    80.510857    25.948267    16.335634 
 5196600     225.5042   -440.86707    181563.75   -14666.488    927.61557   -15594.103   -959.13754    7551.1801    80.509731     25.94628    16.332444 
 5196800    222.39627   -419.54838    181563.75   -14656.105    914.83104   -15570.936   -855.87057    7551.6037    80.510117    25.945315    16.331917 
 5197000     224.5789   -389.94483    181563.75    -14630.49    923.80932   -15554.299   -708.41788    7549.9425    80.508273    25.941379    16.338179 
 5197200    226.82426   -455.89109    181563.75   -14641.656    933.04563   -15574.701   -989.93037    7556.2171    80.504781    25.937702    16.332603 
 5197400    232.14185   -359.31552    181563.75   -14579.094    954.91965   -15534.014   -647.48518    7551.5311    80.504163    25.935204    16.335526 
 5197600    227.55171   -387.76026    181563.75   -14617.191    936.03801   -15553.229   -751.65266    7549.2619    80.502567    25.931285    16.344777 
 5197800    225.53859   -471.22677    181563.75   -14619.571    927.75703   -15547.328   -1040.4917    7552.7442    80.500152    25.928656    16.334325 
 5198000    227.62127   -386.73087    181563.75   -14585.756    936.32416    -15522.08   -735.71903    7552.3654    80.498509    25.928362    16.337887 
 5198200    227.27758   -370.14816    181563.75    -14630.34    934.91038   -15565.251   -688.26688    7550.0229    80.495942    25.925765    16.339239 
 5198400     224.1012   -469.60581    181563.75   -14646.646    921.84429   -15568.491   -1066.0489    7553.1448     80.49346    25.923176     16.33841 
 5198600    229.85867   -489.69138    181563.75   -14624.233    945.52773   -15569.761    -1103.164    7553.4827    80.491429    25.920433    16.326144 
 5198800     223.5321   -343.65109    181563.75   -14670.199    919.50329   -15589.703   -568.11382    7548.2905    80.488343    25.916948    16.328875 
 5199000     228.7521    -405.1763    181563.75   -14640.632    940.97585   -15581.608   -793.86775    7551.0519    80.485212    25.915716    16.328239 
 5199200    226.23527   -446.31829    181563.75   -14635.939    930.62284   -15566.562   -961.14547    7552.1325    80.482415    25.914069    16.326065 
 5199400    220.65738   -399.17037    181563.75   -14677.079    907.67809   -15584.757   -801.36734    7549.3853    80.480951    25.911696    16.334964 
 5199600    222.58531   -380.71128    181563.75    -14676.17    915.60866   -15591.779   -725.52245    7550.9865     80.48018    25.909896    16.336884 
 5199800    228.30521   -410.63459    181563.75   -14624.884    939.13755   -15564.022    -822.1708    7551.6919    80.478956    25.910567    16.331773 
 5200000    226.53679   -431.17348    181563.75   -14621.737    931.86313     -15553.6   -887.47744    7554.4458    80.477109    25.912683    16.329606 
Loop time of 7868.99 on 100 procs for 5200000 steps with 9253 atoms

Performance: 570.950 ns/day, 0.042 hours/ns, 660.822 timesteps/s
97.7% CPU use with 100 MPI tasks x no OpenMP threads

MPI task timing breakdown:
Section |  min time  |  avg time  |  max time  |%varavg| %total
---------------------------------------------------------------
Pair    | 0.49955    | 2152.6     | 6428.7     |5140.8 | 27.36
Neigh   | 4.517      | 148.43     | 346.42     | 983.1 |  1.89
Comm    | 111.9      | 1554.2     | 5631.1     |3968.0 | 19.75
Output  | 85.621     | 85.722     | 88.634     |   3.2 |  1.09
Modify  | 140.32     | 3848.3     | 7594.4     |5144.6 | 48.90
Other   |            | 79.77      |            |       |  1.01

Nlocal:    92.53 ave 189 max 0 min
Histogram: 30 1 10 9 0 0 0 4 34 12
Nghost:    794.05 ave 1099 max 578 min
Histogram: 23 7 0 22 13 4 8 11 2 10
Neighs:    0 ave 0 max 0 min
Histogram: 100 0 0 0 0 0 0 0 0 0
FullNghs:  9938.84 ave 22831 max 0 min
Histogram: 34 16 0 0 0 0 0 24 20 6

Total # of neighbors = 993884
Ave neighs/atom = 107.412
Neighbor list builds = 531676
Dangerous builds = 0
write_data 		${DIR}/data.${NAME}_run
write_data 		run_30/data.${NAME}_run
write_data 		run_30/data.ibeam_cooling_30_run
Total wall time: 2:11:25
