

### IMPORT ATOMS ###
read_data ../Box_Setup/data.Ibeam_240K
  orthogonal box = (0 0 0) to (157.504 42.9242 26.8557)
  10 by 5 by 2 MPI processor grid
  reading atoms ...
  9253 atoms
  reading velocities ...
  9253 velocities
group water type 2
1381 atoms in group water
group graphite type 1
7872 atoms in group graphite


# Define potential
#
pair_style          sw
pair_coeff * * MLC_e.sw C mW

# Add velocity/set timestep
#

fix		1 graphite setforce 0.0 0.0 0.0
velocity 	graphite set 0.0 0.0 0.0
velocity            water create ${START_TEMP} ${SEED} rot yes dist gaussian
velocity            water create 240 ${SEED} rot yes dist gaussian
velocity            water create 240 20066 rot yes dist gaussian
timestep            5.0

# Define output
#
compute 1 water msd
compute 2 water temp


thermo	            100
thermo_style custom step c_2 press vol etotal ke pe c_1[4] density

# Neighbor lists
#
neigh_modify        delay 0 every 1 check yes


# Set fixes
#
fix                 2 water momentum 10 linear 1 1 1 rescale
fix                 3 all nve
fix                 4 water temp/csvr ${START_TEMP} ${START_TEMP} 500.0 928347
fix                 4 water temp/csvr 240 ${START_TEMP} 500.0 928347
fix                 4 water temp/csvr 240 240 500.0 928347

# Run 0.05 ns equilibration
#
dump                1 all custom 100 ${DIR}/eq.${NAME}.dump id type x y z vx vy vz
dump                1 all custom 100 run_30/eq.${NAME}.dump id type x y z vx vy vz
dump                1 all custom 100 run_30/eq.ibeam_cooling_30.dump id type x y z vx vy vz
run                 10000
Neighbor list info ...
  update every 1 steps, delay 0 steps, check yes
  max neighbors/atom: 2000, page size: 100000
  master list distance cutoff = 6.67472
  ghost atom cutoff = 6.67472
  binsize = 3.33736, bins = 48 13 9
  1 neighbor lists, perpetual/occasional/extra = 1 0 0
  (1) pair sw, perpetual
      attributes: full, newton on
      pair build: full/bin/atomonly
      stencil: full/bin/3d
      bin: standard
Per MPI rank memory allocation (min/avg/max) = 3.369 | 4.254 | 4.745 Mbytes
Step c_2 Press Volume TotEng KinEng PotEng c_1[4] Density 
       0          240   -344.39513    181563.75    -13284.54    987.24429   -14271.784            0    1.0922001 
     100    235.81841   -176.17548    181563.75   -13242.284    970.04326   -14212.327   0.86212401    1.0922001 
     200    237.71165   -243.93931    181563.75   -13277.574    977.83114   -14255.406    1.2644582    1.0922001 
     300    237.34818   -417.02479    181563.75   -13271.778    976.33596   -14248.114    1.6547957    1.0922001 
     400    242.37124   -388.56997    181563.75   -13282.914    996.99844   -14279.912    2.1411318    1.0922001 
     500    234.15466   -309.60349    181563.75   -13283.851    963.19937   -14247.051    2.5401598    1.0922001 
     600    235.03195   -380.63761    181563.75   -13358.983    966.80812   -14325.791    2.9136722    1.0922001 
     700    235.93236   -366.01592    181563.75   -13348.616    970.51196   -14319.128    3.4758113    1.0922001 
     800     233.5982    -281.1562    181563.75     -13388.2    960.91038   -14349.111    3.5456529    1.0922001 
     900    238.01262    -398.1831    181563.75   -13351.161    979.06915    -14330.23    3.7681902    1.0922001 
    1000    241.15306   -249.90174    181563.75   -13305.165    991.98741   -14297.153    4.0659024    1.0922001 
    1100    240.25167   -352.48321    181563.75   -13332.937    988.27952   -14321.217     4.583672    1.0922001 
    1200    235.50188   -341.75074    181563.75   -13374.033    968.74119   -14342.774    4.9910566    1.0922001 
    1300    237.12814   -415.20822    181563.75   -13341.104    975.43083   -14316.534    5.2280653    1.0922001 
    1400    248.28738   -379.15648    181563.75    -13286.47    1021.3346   -14307.805    5.6805168    1.0922001 
    1500      244.189   -406.67881    181563.75   -13302.558    1004.4758   -14307.034    5.9373569    1.0922001 
    1600    246.69317   -403.12284    181563.75   -13279.379    1014.7767   -14294.156    6.3179908    1.0922001 
    1700    237.78849   -287.77099    181563.75   -13285.248    978.14722   -14263.396    6.6090069    1.0922001 
    1800    241.30452   -374.38037    181563.75   -13293.521    992.61046   -14286.131    6.9169685    1.0922001 
    1900     250.5116   -336.08015    181563.75    -13239.46    1030.4839   -14269.944    7.3495726    1.0922001 
    2000    247.58376   -253.34923    181563.75   -13214.742    1018.4402   -14233.182    7.8136254    1.0922001 
    2100    246.23323   -381.60819    181563.75   -13220.926    1012.8848   -14233.811    8.2730319    1.0922001 
    2200    243.23602   -518.26149    181563.75   -13216.133    1000.5557   -14216.689    8.7389151    1.0922001 
    2300    238.64422   -457.78737    181563.75   -13263.981    981.66726   -14245.648    9.0541583    1.0922001 
    2400    241.90559   -273.94351    181563.75   -13277.701    995.08295   -14272.784    9.7973274    1.0922001 
    2500    241.05308   -429.15997    181563.75   -13265.615    991.57617   -14257.192     10.13018    1.0922001 
    2600     234.0609    -262.3784    181563.75   -13297.186    962.81368       -14260    10.299455    1.0922001 
    2700    241.31451    -279.0319    181563.75   -13273.997    992.65157   -14266.648    10.693213    1.0922001 
    2800    244.67275   -368.94538    181563.75   -13284.101    1006.4657   -14290.567    11.056951    1.0922001 
    2900    236.61105   -245.00184    181563.75   -13335.501    973.30376   -14308.805    11.298677    1.0922001 
    3000    236.38119   -420.86105    181563.75   -13354.007    972.35824   -14326.365    11.505728    1.0922001 
    3100    232.61434   -377.23793    181563.75   -13338.872    956.86323   -14295.735     11.87969    1.0922001 
    3200    232.96714   -186.97611    181563.75   -13353.406    958.31448    -14311.72    12.197301    1.0922001 
    3300    245.49491   -359.35966    181563.75   -13315.425    1009.8477   -14325.273     12.22811    1.0922001 
    3400    247.65706   -350.99485    181563.75    -13339.22    1018.7417   -14357.962    12.436604    1.0922001 
    3500    244.19651    -344.8411    181563.75   -13349.084    1004.5067    -14353.59    12.763841    1.0922001 
    3600    248.75825   -405.61084    181563.75   -13342.457    1023.2715   -14365.728    13.074103    1.0922001 
    3700    235.86873   -348.18757    181563.75   -13378.822    970.25025   -14349.072    13.164613    1.0922001 
    3800    238.40746   -514.43578    181563.75   -13369.256    980.69334   -14349.949    13.242161    1.0922001 
    3900    235.31128   -529.92088    181563.75   -13384.985    967.95716   -14352.942    13.401128    1.0922001 
    4000    235.99254    -354.6189    181563.75       -13389    970.75954   -14359.759    13.740537    1.0922001 
    4100    240.52699   -276.34993    181563.75   -13349.398    989.41208    -14338.81    13.773313    1.0922001 
    4200    234.80052   -348.91789    181563.75   -13310.923    965.85614    -14276.78    14.170558    1.0922001 
    4300    256.61753   -249.09197    181563.75   -13248.117    1055.6008   -14303.718    14.415594    1.0922001 
    4400    251.90411   -392.74008    181563.75   -13252.067     1036.212   -14288.279    14.837315    1.0922001 
    4500    243.33257   -343.10294    181563.75   -13299.775    1000.9529   -14300.728    15.256002    1.0922001 
    4600    235.54112   -220.96012    181563.75   -13317.256    968.90262   -14286.158    15.523813    1.0922001 
    4700    238.39232   -379.79994    181563.75   -13316.363    980.63107   -14296.994    15.858146    1.0922001 
    4800    241.03393   -362.04794    181563.75    -13297.58    991.49736   -14289.077     16.15628    1.0922001 
    4900    239.72159    -432.1495    181563.75   -13320.361    986.09905    -14306.46    16.511499    1.0922001 
    5000    239.03596   -468.30502    181563.75   -13336.746    983.27868   -14320.025    16.667854    1.0922001 
    5100     239.2484    -365.8888    181563.75   -13340.112    984.15256   -14324.264     16.80005    1.0922001 
    5200    232.56035   -273.30662    181563.75   -13328.812    956.64116   -14285.453    17.078259    1.0922001 
    5300    233.45113   -488.27374    181563.75   -13368.026    960.30539   -14328.331    17.469641    1.0922001 
    5400    234.81058   -341.17237    181563.75   -13335.749     965.8975   -14301.646    17.627559    1.0922001 
    5500    233.42609   -355.40293    181563.75   -13366.784    960.20241   -14326.986    17.961296    1.0922001 
    5600    240.08407   -392.54632    181563.75   -13380.298     987.5901   -14367.888    18.090529    1.0922001 
    5700    239.49557   -381.84987    181563.75   -13335.666    985.16931   -14320.835    18.235007    1.0922001 
    5800    239.77292   -442.99496    181563.75   -13265.171     986.3102   -14251.482    18.543332    1.0922001 
    5900    238.72562   -368.64903    181563.75   -13298.627    982.00212   -14280.629     18.56378    1.0922001 
    6000    238.43051   -325.09236    181563.75    -13362.94    980.78814   -14343.728    19.149165    1.0922001 
    6100    229.99496   -379.18498    181563.75    -13348.99    946.08837   -14295.079    19.821663    1.0922001 
    6200    235.09719   -347.78309    181563.75   -13326.834     967.0765   -14293.911    20.030434    1.0922001 
    6300    237.95698   -134.48583    181563.75   -13298.138    978.84029   -14276.978     20.62455    1.0922001 
    6400    237.70388   -155.00872    181563.75   -13296.248    977.79917   -14274.047    21.027787    1.0922001 
    6500    240.70361    -445.4567    181563.75   -13314.992     990.1386   -14305.131    21.344506    1.0922001 
    6600    230.58984   -504.04706    181563.75   -13345.406    948.53541   -14293.942    21.216596    1.0922001 
    6700    238.38973   -407.98396    181563.75   -13353.961    980.62043   -14334.582    21.603306    1.0922001 
    6800     228.5367   -228.27413    181563.75   -13321.753    940.08978   -14261.843    22.132547    1.0922001 
    6900     232.0712   -281.58347    181563.75   -13359.897    954.62903   -14314.526    22.094224    1.0922001 
    7000    237.49826   -349.40769    181563.75   -13354.791    976.95334   -14331.744    22.514697    1.0922001 
    7100    237.94854   -413.57695    181563.75   -13276.578    978.80557   -14255.384    22.847109    1.0922001 
    7200    238.27742   -344.13579    181563.75   -13287.328    980.15841   -14267.486    23.112096    1.0922001 
    7300    233.24349     -381.166    181563.75   -13349.364    959.45125   -14308.815    23.140196    1.0922001 
    7400    231.23444   -431.86114    181563.75   -13360.076      951.187   -14311.263    23.436466    1.0922001 
    7500     227.7822   -225.27936    181563.75    -13361.39    936.98617   -14298.376    23.715712    1.0922001 
    7600    231.83739   -390.89124    181563.75   -13373.926    953.66724   -14327.594    23.788527    1.0922001 
    7700    235.71622   -474.64406    181563.75   -13363.553    969.62287   -14333.176    24.254049    1.0922001 
    7800    235.28202   -384.55953    181563.75   -13328.925    967.83679   -14296.761    24.564039    1.0922001 
    7900    244.11979   -507.10725    181563.75    -13325.65    1004.1911   -14329.841    24.769158    1.0922001 
    8000    239.36999   -178.07963    181563.75   -13332.382    984.65273   -14317.035    24.995699    1.0922001 
    8100     239.9726   -301.49586    181563.75   -13346.847    987.13158   -14333.979    25.308027    1.0922001 
    8200     236.3507   -206.74665    181563.75   -13373.111    972.23283   -14345.344    25.621514    1.0922001 
    8300    231.89205   -474.65201    181563.75    -13389.83    953.89208   -14343.722    26.292805    1.0922001 
    8400    228.33629   -321.86205    181563.75   -13378.272    939.26541   -14317.537    26.956669    1.0922001 
    8500     240.0079   -328.26582    181563.75   -13361.757    987.27678   -14349.033    27.114274    1.0922001 
    8600     239.8606   -450.76154    181563.75   -13340.468    986.67085   -14327.139      27.2909    1.0922001 
    8700    233.31291   -400.32823    181563.75   -13393.392    959.73681   -14353.129    27.586505    1.0922001 
    8800    234.83847   -242.50092    181563.75   -13335.812    966.01226   -14301.824    27.975145    1.0922001 
    8900    238.89486   -407.40418    181563.75   -13356.586    982.69828   -14339.284    28.474332    1.0922001 
    9000    242.82353   -453.99714    181563.75   -13318.619    998.85894   -14317.478    28.953363    1.0922001 
    9100    241.48049   -404.77025    181563.75   -13319.509    993.33431   -14312.843    29.138646    1.0922001 
    9200    233.91609   -406.02293    181563.75    -13365.61    962.21802   -14327.828    29.842312    1.0922001 
    9300    241.50339   -332.78396    181563.75   -13384.978    993.42849   -14378.407    30.266716    1.0922001 
    9400     240.6177   -470.70522    181563.75   -13400.489    989.78521   -14390.274    30.484929    1.0922001 
    9500    236.88756   -383.56923    181563.75   -13389.755    974.44121   -14364.197    30.623322    1.0922001 
    9600    231.10612   -385.59836    181563.75   -13445.833    950.65914   -14396.493    31.259843    1.0922001 
    9700    241.28643    -497.1735    181563.75   -13381.677    992.53602   -14374.213    32.200541    1.0922001 
    9800    230.87528   -225.83771    181563.75   -13397.042    949.70957   -14346.751    32.664248    1.0922001 
    9900    236.82668   -344.65403    181563.75   -13343.689     974.1908    -14317.88     33.20008    1.0922001 
   10000    238.36475   -295.78404    181563.75   -13287.743    980.51765   -14268.261    33.696912    1.0922001 
Loop time of 15.7314 on 100 procs for 10000 steps with 9253 atoms

Performance: 274.611 ns/day, 0.087 hours/ns, 635.673 timesteps/s
97.6% CPU use with 100 MPI tasks x no OpenMP threads

MPI task timing breakdown:
Section |  min time  |  avg time  |  max time  |%varavg| %total
---------------------------------------------------------------
Pair    | 0.00096941 | 4.421      | 13.128     | 237.1 | 28.10
Neigh   | 0.0047445  | 0.15606    | 0.36535    |  31.6 |  0.99
Comm    | 0.20208    | 2.9638     | 11.437     | 184.9 | 18.84
Output  | 0.13805    | 0.1382     | 0.14527    |   0.2 |  0.88
Modify  | 0.3173     | 7.9013     | 15.256     | 231.6 | 50.23
Other   |            | 0.1511     |            |       |  0.96

Nlocal:    92.53 ave 189 max 0 min
Histogram: 30 0 10 10 0 0 0 4 36 10
Nghost:    792.57 ave 1110 max 571 min
Histogram: 24 6 0 24 14 2 8 11 1 10
Neighs:    0 ave 0 max 0 min
Histogram: 100 0 0 0 0 0 0 0 0 0
FullNghs:  9993.86 ave 23287 max 0 min
Histogram: 34 16 0 0 0 0 3 22 21 4

Total # of neighbors = 999386
Ave neighs/atom = 108.007
Neighbor list builds = 554
Dangerous builds = 0
write_data 	    ${DIR}/data.${NAME}_eq
write_data 	    run_30/data.${NAME}_eq
write_data 	    run_30/data.ibeam_cooling_30_eq

undump              1
unfix               4



################################################
#######         Run Simulation         #########
################################################

reset_timestep      0
timestep	    10.0
log                 ${DIR}/log.run_${NAME}
log                 run_30/log.run_${NAME}
log                 run_30/log.run_ibeam_cooling_30
