
### Dimensions ###


### IMPORT ATOMS ###
read_data ../Box_Setup/data.Ibeam_240K
Reading data file ...
  orthogonal box = (0.0000000 0.0000000 0.0000000) to (68.908000 85.848302 27.975384)
  8 by 8 by 2 MPI processor grid
  reading atoms ...
  8493 atoms
  reading velocities ...
  8493 velocities
  read_data CPU = 0.023 seconds
group water type 2
1689 atoms in group water
group graphite type 1
6804 atoms in group graphite


# Define potential
#
pair_style          sw
pair_coeff * * MLC_e.sw C mW

# Add velocity/set timestep
#

fix		1 graphite setforce 0.0 0.0 0.0
velocity 	graphite set 0.0 0.0 0.0
velocity            water create ${START_TEMP} ${SEED} rot yes dist gaussian
velocity            water create 240 ${SEED} rot yes dist gaussian
velocity            water create 240 19560 rot yes dist gaussian
timestep            5.0

# Define output
#
compute 1 water msd
compute 2 water temp


thermo	            100
thermo_style custom step c_2 press vol etotal ke pe c_1[4] density

# Neighbor lists
#
neigh_modify        delay 0 every 1 check yes


# Set fixes
#
fix                 2 water momentum 10 linear 1 1 1 rescale
fix                 3 all nve
fix                 4 water temp/csvr ${START_TEMP} ${START_TEMP} 500.0 928347
fix                 4 water temp/csvr 240 ${START_TEMP} 500.0 928347
fix                 4 water temp/csvr 240 240 500.0 928347

# Run 0.05 ns equilibration
#
dump                1 all custom 100 ${DIR}/eq.${NAME}.dump id type x y z vx vy vz
dump                1 all custom 100 run_10/eq.${NAME}.dump id type x y z vx vy vz
dump                1 all custom 100 run_10/eq.ibeam_cooling_10.dump id type x y z vx vy vz
run                 10000
Neighbor list info ...
  update every 1 steps, delay 0 steps, check yes
  max neighbors/atom: 2000, page size: 100000
  master list distance cutoff = 6.6747184
  ghost atom cutoff = 6.6747184
  binsize = 3.3373592, bins = 21 26 9
  1 neighbor lists, perpetual/occasional/extra = 1 0 0
  (1) pair sw, perpetual
      attributes: full, newton on
      pair build: full/bin/atomonly
      stencil: full/bin/3d
      bin: standard
Per MPI rank memory allocation (min/avg/max) = 3.603 | 4.507 | 4.728 Mbytes
Step c_2 Press Volume TotEng KinEng PotEng c_1[4] Density 
       0          240   -298.97748    165492.15   -16025.669    1207.5858   -17233.255            0    1.1252403 
     100    243.99699    -476.7306    165492.15   -16005.727    1227.6971   -17233.424    0.9021995    1.1252403 
     200    235.17768   -668.97265    165492.15   -16054.017    1183.3217   -17237.339    1.4503761    1.1252403 
     300    244.39757   -508.40518    165492.15   -16029.595    1229.7126   -17259.308    1.8760515    1.1252403 
     400    239.65915   -462.23519    165492.15   -16042.852    1205.8708   -17248.723    2.4900306    1.1252403 
     500    244.41827   -386.67084    165492.15   -16052.656    1229.8168   -17282.473    3.1142308    1.1252403 
     600    227.51741   -523.49461    165492.15   -16139.903    1144.7783   -17284.681    3.5781169    1.1252403 
     700    231.99688    -424.6986    165492.15   -16117.581    1167.3172   -17284.898    3.9899257    1.1252403 
     800    236.19411   -160.14423    165492.15   -16173.851     1188.436   -17362.287    4.3392479    1.1252403 
     900    235.70441   -492.20837    165492.15   -16140.759    1185.9721   -17326.731    4.6205848    1.1252403 
    1000    237.59759   -653.96673    165492.15   -16089.893    1195.4978   -17285.391    4.9476412    1.1252403 
    1100    233.86684   -449.72877    165492.15    -16101.25    1176.7261   -17277.976     5.323961    1.1252403 
    1200    225.55669   -497.07611    165492.15   -16138.182    1134.9127   -17273.095    5.7584105    1.1252403 
    1300    235.33128   -564.63238    165492.15   -16092.068    1184.0946   -17276.162    6.1678703    1.1252403 
    1400    240.10526   -464.74497    165492.15   -16032.179    1208.1154   -17240.295    6.5024526    1.1252403 
    1500    238.47299   -662.97113    165492.15   -16022.612    1199.9024   -17222.515    6.8156249    1.1252403 
    1600    246.39285   -595.71776    165492.15   -16010.149    1239.7521   -17249.901    6.9308463    1.1252403 
    1700    244.40071   -587.68274    165492.15   -16027.047    1229.7284   -17256.776    7.2939331    1.1252403 
    1800    245.34072   -497.39179    165492.15   -16037.718    1234.4582   -17272.176    7.5898654    1.1252403 
    1900    246.85592   -471.71772    165492.15   -15962.132     1242.082   -17204.214    7.7357847    1.1252403 
    2000    245.81806   -466.34155    165492.15   -15951.643      1236.86   -17188.503      7.89005    1.1252403 
    2100    257.04356   -625.83473    165492.15   -15966.427    1293.3423   -17259.769     8.126637    1.1252403 
    2200    244.15844   -293.53714    165492.15   -15975.373    1228.5094   -17203.882     8.347465    1.1252403 
    2300    246.05767   -473.67603    165492.15   -16028.107    1238.0656   -17266.172    8.6823222    1.1252403 
    2400    250.12577   -346.79651    165492.15   -16043.262    1258.5347   -17301.797    9.0864596    1.1252403 
    2500    245.61251   -508.09144    165492.15   -16046.533    1235.8257   -17282.359    9.6137843    1.1252403 
    2600    243.42361   -389.22037    165492.15   -16092.574    1224.8121   -17317.386    9.9166241    1.1252403 
    2700    245.22248   -540.10296    165492.15   -16062.579    1233.8632   -17296.442    10.132167    1.1252403 
    2800    249.41662    -390.3239    165492.15   -16078.837    1254.9665   -17333.803    10.593222    1.1252403 
    2900    234.53378   -371.50885    165492.15   -16136.558    1180.0819    -17316.64    10.850894    1.1252403 
    3000    234.95889   -471.22041    165492.15    -16138.06    1182.2209   -17320.281    11.121201    1.1252403 
    3100    238.91097   -499.56565    165492.15   -16119.049    1202.1062   -17321.155    11.537209    1.1252403 
    3200    230.21511   -338.17914    165492.15   -16131.674    1158.3521   -17290.026    11.926715    1.1252403 
    3300    239.45375   -409.28279    165492.15   -16104.814    1204.8372   -17309.652    12.281631    1.1252403 
    3400     233.3019   -569.51922    165492.15   -16111.196    1173.8836    -17285.08    12.705479    1.1252403 
    3500    241.24348   -462.79545    165492.15   -16097.853    1213.8425   -17311.695    12.947386    1.1252403 
    3600    243.36706   -444.10427    165492.15   -16104.002    1224.5275   -17328.529    13.306289    1.1252403 
    3700    237.41612   -336.52878    165492.15   -16132.729    1194.5847   -17327.314      13.6855    1.1252403 
    3800    242.03729   -285.60505    165492.15       -16115    1217.8366   -17332.837    13.818516    1.1252403 
    3900    238.33218   -586.30805    165492.15   -16132.098     1199.194   -17331.292    13.933641    1.1252403 
    4000    240.93965   -211.32262    165492.15   -16153.226    1212.3137   -17365.539    14.362414    1.1252403 
    4100    240.61367   -552.30202    165492.15    -16126.94    1210.6735   -17337.614    14.864085    1.1252403 
    4200    238.79209    -575.4275    165492.15   -16087.491     1201.508   -17288.999    15.246641    1.1252403 
    4300    251.35403   -521.50337    165492.15   -16018.873    1264.7148   -17283.587    15.401436    1.1252403 
    4400    246.58019    -518.1939    165492.15   -16035.918    1240.6947   -17276.613    15.929143    1.1252403 
    4500    236.55987   -436.07857    165492.15   -16073.102    1190.2764   -17263.379    16.032958    1.1252403 
    4600    242.32266   -591.53834    165492.15   -16106.395    1219.2725   -17325.667    16.261671    1.1252403 
    4700    236.66885   -574.56042    165492.15   -16120.139    1190.8247   -17310.964    16.412707    1.1252403 
    4800     239.1523   -166.28162    165492.15   -16084.215    1203.3205   -17287.536     16.61357    1.1252403 
    4900    242.56242   -421.51293    165492.15   -16098.399    1220.4788   -17318.878    16.641878    1.1252403 
    5000    232.87222   -299.17754    165492.15   -16108.344    1171.7216   -17280.065    16.849996    1.1252403 
    5100    227.93868   -274.47478    165492.15   -16114.291     1146.898   -17261.189     17.06944    1.1252403 
    5200    235.14663   -532.52502    165492.15   -16079.331    1183.1655   -17262.496    17.609825    1.1252403 
    5300    233.40478   -478.70723    165492.15   -16125.599    1174.4012       -17300    18.245127    1.1252403 
    5400    237.66732   -549.89499    165492.15   -16089.794    1195.8487   -17285.642    18.684262    1.1252403 
    5500    235.48638    -446.0644    165492.15   -16118.652     1184.875   -17303.527    19.183895    1.1252403 
    5600    236.23732   -486.46446    165492.15    -16143.32    1188.6534   -17331.973    19.478893    1.1252403 
    5700    239.14864    -474.8007    165492.15   -16107.781    1203.3021   -17311.083    19.767392    1.1252403 
    5800    244.64742   -504.84521    165492.15   -16026.095    1230.9698   -17257.065    19.910461    1.1252403 
    5900    245.42344   -397.71396    165492.15   -16067.701    1234.8744   -17302.575    19.904793    1.1252403 
    6000    237.29056   -453.74977    165492.15   -16147.426    1193.9529   -17341.379    20.290587    1.1252403 
    6100    235.89332   -387.44313    165492.15   -16133.175    1186.9226   -17320.098    20.582663    1.1252403 
    6200    233.80089   -421.58167    165492.15   -16103.246    1176.3943    -17279.64    21.112382    1.1252403 
    6300    243.01466   -477.77912    165492.15   -16073.345    1222.7543   -17296.099    21.567171    1.1252403 
    6400    248.15111   -357.53413    165492.15   -16077.455     1248.599   -17326.054    21.900295    1.1252403 
    6500    234.57175   -261.47738    165492.15    -16101.84     1180.273   -17282.113    22.276078    1.1252403 
    6600    235.46509   -519.41635    165492.15   -16136.217    1184.7679   -17320.985    22.538084    1.1252403 
    6700    230.09322   -471.01432    165492.15   -16167.422    1157.7388    -17325.16    23.108572    1.1252403 
    6800    238.05799   -593.32111    165492.15   -16137.123    1197.8143   -17334.937    23.327924    1.1252403 
    6900    230.16814   -411.40373    165492.15    -16157.67    1158.1157   -17315.786     23.77583    1.1252403 
    7000    234.71836    -489.9382    165492.15   -16163.789    1181.0106   -17344.799    24.247876    1.1252403 
    7100    243.49652   -491.94876    165492.15   -16090.617    1225.1789   -17315.796    24.346749    1.1252403 
    7200    235.07585   -526.37403    165492.15   -16080.409    1182.8094   -17263.218    24.367674    1.1252403 
    7300    230.91704   -457.82538    165492.15   -16148.851    1161.8839   -17310.735    24.422819    1.1252403 
    7400    232.15101   -590.55346    165492.15   -16146.133    1168.0928   -17314.226    24.746719    1.1252403 
    7500    229.75547   -354.46621    165492.15   -16170.812    1156.0393   -17326.851    24.680847    1.1252403 
    7600    238.35832   -517.43725    165492.15   -16175.931    1199.3255   -17375.257     24.88021    1.1252403 
    7700    230.17268   -488.27843    165492.15   -16161.761    1158.1386   -17319.899    25.352604    1.1252403 
    7800    236.01596   -300.60746    165492.15   -16117.613    1187.5396   -17305.152    25.382206    1.1252403 
    7900    243.61271   -454.60499    165492.15   -16118.417    1225.7635    -17344.18    25.543656    1.1252403 
    8000    236.74681   -510.66194    165492.15   -16108.138     1191.217   -17299.355    26.082888    1.1252403 
    8100    238.12081   -521.78276    165492.15   -16129.842    1198.1304   -17327.973    26.014492    1.1252403 
    8200    233.95443   -421.17258    165492.15   -16163.108    1177.1669   -17340.275    26.153056    1.1252403 
    8300    239.77708   -518.59137    165492.15   -16178.123    1206.4641   -17384.587    26.272332    1.1252403 
    8400    240.82233   -429.09249    165492.15   -16167.582    1211.7234   -17379.305    26.342296    1.1252403 
    8500    233.02718   -558.26163    165492.15    -16203.17    1172.5013   -17375.671    26.605447    1.1252403 
    8600    247.01222   -384.58708    165492.15   -16152.857    1242.8685   -17395.726    26.937591    1.1252403 
    8700      228.641   -715.03565    165492.15   -16217.518    1150.4318    -17367.95     27.26611    1.1252403 
    8800    238.55736   -619.36407    165492.15   -16154.472     1200.327   -17354.799    27.713586    1.1252403 
    8900    231.17485   -619.34314    165492.15   -16166.076    1163.1811   -17329.257    27.774876    1.1252403 
    9000    243.29765   -482.76636    165492.15   -16117.596    1224.1782   -17341.774    28.191931    1.1252403 
    9100    244.61149   -675.42749    165492.15   -16110.115     1230.789   -17340.904    28.541521    1.1252403 
    9200    234.38945    -543.8198    165492.15   -16140.487    1179.3557   -17319.843    28.905783    1.1252403 
    9300     240.1396   -465.03416    165492.15   -16157.108    1208.2882   -17365.396    29.514552    1.1252403 
    9400    224.27649    -511.2875    165492.15   -16178.639    1128.4712   -17307.111    29.580393    1.1252403 
    9500    240.35036   -484.63286    165492.15   -16129.595    1209.3486   -17338.944    29.893164    1.1252403 
    9600    234.22872   -433.63116    165492.15   -16176.594    1178.5469   -17355.141    30.068844    1.1252403 
    9700    236.36335   -598.58656    165492.15   -16130.937    1189.2876   -17320.224    30.333754    1.1252403 
    9800    233.94388   -458.01118    165492.15   -16116.423    1177.1138   -17293.537    30.412057    1.1252403 
    9900    247.31308   -483.32558    165492.15   -16077.002    1244.3823   -17321.384    30.788751    1.1252403 
   10000    248.28832   -535.02586    165492.15   -16008.631    1249.2894    -17257.92     31.12885    1.1252403 
Loop time of 5.95963 on 128 procs for 10000 steps with 8493 atoms

Performance: 724.878 ns/day, 0.033 hours/ns, 1677.957 timesteps/s
96.8% CPU use with 128 MPI tasks x no OpenMP threads

MPI task timing breakdown:
Section |  min time  |  avg time  |  max time  |%varavg| %total
---------------------------------------------------------------
Pair    | 0.00078821 | 1.8489     | 4.3419     | 115.8 | 31.02
Neigh   | 0.0042324  | 0.13361    | 0.30911    |  27.8 |  2.24
Comm    | 0.20666    | 1.7184     | 4.0325     |  82.1 | 28.83
Output  | 0.1508     | 0.15087    | 0.15181    |   0.0 |  2.53
Modify  | 0.28662    | 2.031      | 5.5233     | 133.0 | 34.08
Other   |            | 0.07681    |            |       |  1.29

Nlocal:        66.3516 ave         139 max           0 min
Histogram: 33 2 12 17 0 0 2 29 22 11
Nghost:        698.734 ave         918 max         491 min
Histogram: 18 3 16 16 9 18 10 22 4 12
Neighs:         0.00000 ave           0 max           0 min
Histogram: 128 0 0 0 0 0 0 0 0 0
FullNghs:      6951.42 ave       16606 max           0 min
Histogram: 41 23 0 0 0 0 14 28 14 8

Total # of neighbors = 889782
Ave neighs/atom = 104.76651
Neighbor list builds = 568
Dangerous builds = 0
write_data 	    ${DIR}/data.${NAME}_eq
write_data 	    run_10/data.${NAME}_eq
write_data 	    run_10/data.ibeam_cooling_10_eq
System init for write_data ...

undump              1
unfix               4



################################################
#######         Run Simulation         #########
################################################

reset_timestep      0
timestep	    10.0
log                 ${DIR}/log.run_${NAME}
log                 run_10/log.run_${NAME}
log                 run_10/log.run_ibeam_cooling_10
