
### Dimensions ###


### IMPORT ATOMS ###
read_data ../Box_Setup/data.Ibeam_240K
  orthogonal box = (0 0 0) to (157.504 36.4877 39.8503)
  10 by 4 by 4 MPI processor grid
  reading atoms ...
  8943 atoms
  reading velocities ...
  8943 velocities
group water type 2
2223 atoms in group water
group graphite type 1
6720 atoms in group graphite


# Define potential
#
pair_style          sw
pair_coeff * * MLC_e.sw C mW

# Add velocity/set timestep
#

fix		1 graphite setforce 0.0 0.0 0.0
velocity 	graphite set 0.0 0.0 0.0
velocity            water create ${START_TEMP} ${SEED} rot yes dist gaussian
velocity            water create 240 ${SEED} rot yes dist gaussian
velocity            water create 240 436 rot yes dist gaussian
timestep            5.0

# Define output
#
compute 1 water msd
compute 2 water temp


thermo	            100
thermo_style custom step c_2 press vol etotal ke pe c_1[4] density

# Neighbor lists
#
neigh_modify        delay 0 every 1 check yes


# Set fixes
#
fix                 2 water momentum 10 linear 1 1 1 rescale
fix                 3 all nve
fix                 4 water temp/csvr ${START_TEMP} ${START_TEMP} 500.0 928347
fix                 4 water temp/csvr 240 ${START_TEMP} 500.0 928347
fix                 4 water temp/csvr 240 240 500.0 928347

# Run 0.05 ns equilibration
#
dump                1 all custom 100 ${DIR}/eq.${NAME}.dump id type x y z vx vy vz
dump                1 all custom 100 run_14/eq.${NAME}.dump id type x y z vx vy vz
dump                1 all custom 100 run_14/eq.ibeam_cooling_14.dump id type x y z vx vy vz
run                 10000
Neighbor list info ...
  update every 1 steps, delay 0 steps, check yes
  max neighbors/atom: 2000, page size: 100000
  master list distance cutoff = 6.67472
  ghost atom cutoff = 6.67472
  binsize = 3.33736, bins = 48 11 12
  1 neighbor lists, perpetual/occasional/extra = 1 0 0
  (1) pair sw, perpetual
      attributes: full, newton on
      pair build: full/bin/atomonly
      stencil: full/bin/3d
      bin: standard
Per MPI rank memory allocation (min/avg/max) = 0.463 | 3.758 | 4.742 Mbytes
Step c_2 Press Volume TotEng KinEng PotEng c_1[4] Density 
       0          240   -163.35224    229018.04   -21211.582    1589.6064   -22801.188            0   0.87555383 
     100    245.52472   -142.89035    229018.04   -21180.121    1626.1986    -22806.32   0.79479053   0.87555383 
     200    239.10817   -262.93808    229018.04   -21230.373    1583.6994   -22814.072    1.2262465   0.87555383 
     300    245.31603   -385.93743    229018.04   -21225.482    1624.8164   -22850.298    1.5656846   0.87555383 
     400      245.827   -212.72524    229018.04   -21245.435    1628.2007   -22873.636    1.8636517   0.87555383 
     500    243.50565   -219.79187    229018.04    -21245.69    1612.8256   -22858.515    2.1948356   0.87555383 
     600    228.10372   -304.55578    229018.04   -21350.552     1510.813   -22861.365    2.4265792   0.87555383 
     700    238.64994   -221.16417    229018.04   -21326.489    1580.6644   -22907.154    2.6865853   0.87555383 
     800    236.68392   -316.47524    229018.04   -21366.806    1567.6428   -22934.449    2.9622674   0.87555383 
     900    237.55277   -350.49267    229018.04   -21314.298    1573.3975   -22887.695    3.3001193   0.87555383 
    1000    238.23893   -254.08179    229018.04   -21256.696    1577.9422   -22834.638    3.5599661   0.87555383 
    1100    237.63519    -443.9889    229018.04   -21269.454    1573.9434   -22843.397    3.8557214   0.87555383 
    1200    245.10645   -390.75711    229018.04   -21327.725    1623.4282   -22951.154    4.1659972   0.87555383 
    1300    236.40237   -231.24658    229018.04   -21282.769     1565.778   -22848.546    4.3334323   0.87555383 
    1400    242.41674   -208.94219    229018.04   -21216.161    1605.6133   -22821.775     4.485668   0.87555383 
    1500      242.071   -340.03121    229018.04   -21208.371    1603.3233   -22811.695    4.7348744   0.87555383 
    1600    245.36313   -443.56758    229018.04   -21192.021    1625.1283   -22817.149    4.9805086   0.87555383 
    1700     241.2049   -368.79232    229018.04   -21219.461    1597.5868   -22817.048    5.4395506   0.87555383 
    1800    240.89241    -172.3149    229018.04   -21213.157    1595.5171   -22808.674    5.7814892   0.87555383 
    1900    249.74992   -372.83159    229018.04   -21130.143    1654.1836   -22784.327    6.0762834   0.87555383 
    2000    252.53097   -342.00677    229018.04   -21113.516    1672.6035   -22786.119    6.3580928   0.87555383 
    2100    243.25202   -292.04064    229018.04   -21141.336    1611.1457   -22752.482    6.8401613   0.87555383 
    2200    247.09728   -261.77715    229018.04   -21131.168    1636.6142   -22767.782    7.1534677   0.87555383 
    2300    242.76442   -261.13819    229018.04   -21172.519    1607.9161   -22780.435    7.6326874   0.87555383 
    2400    239.23893   -287.16856    229018.04   -21159.712    1584.5656   -22744.278    7.8271159   0.87555383 
    2500    246.96493   -330.82445    229018.04   -21147.742    1635.7376   -22783.479    7.9693391   0.87555383 
    2600    245.44483   -226.82482    229018.04   -21199.031    1625.6695   -22824.701    8.3802111   0.87555383 
    2700    240.95735   -140.56946    229018.04   -21186.187    1595.9472   -22782.135    8.7381603   0.87555383 
    2800    247.41392   -321.56661    229018.04    -21193.85    1638.7114   -22832.562    8.7966241   0.87555383 
    2900    236.61865   -292.28899    229018.04   -21268.587    1567.2105   -22835.797    9.2315282   0.87555383 
    3000    231.41383   -184.33533    229018.04   -21284.484    1532.7371   -22817.222    9.6810097   0.87555383 
    3100    236.49157   -233.35233    229018.04   -21267.755    1566.3688   -22834.124      10.1452   0.87555383 
    3200    236.63037   -332.44154    229018.04   -21274.358    1567.2881   -22841.646    10.482592   0.87555383 
    3300    236.13182    -272.4313    229018.04   -21228.728     1563.986   -22792.714    10.885811   0.87555383 
    3400    239.09607   -276.82274    229018.04    -21219.38    1583.6193   -22802.999    11.069076   0.87555383 
    3500    242.66499   -394.36638    229018.04   -21237.925    1607.2576   -22845.183    11.514578   0.87555383 
    3600    241.62388   -426.23468    229018.04   -21232.889    1600.3619   -22833.251    12.065884   0.87555383 
    3700    240.94195   -232.51109    229018.04   -21258.965    1595.8453    -22854.81    12.398618   0.87555383 
    3800    234.94871   -362.98684    229018.04   -21252.839    1556.1499   -22808.989    12.654205   0.87555383 
    3900    237.96491   -100.52773    229018.04    -21254.47    1576.1273   -22830.598     12.75562   0.87555383 
    4000    235.55676   -467.30061    229018.04    -21295.49    1560.1772   -22855.667    13.164533   0.87555383 
    4100    232.95832    -449.6461    229018.04   -21255.114    1542.9668    -22798.08    13.456047   0.87555383 
    4200    240.34974   -310.83339    229018.04   -21217.442    1591.9228   -22809.365    13.865461   0.87555383 
    4300    248.03177   -324.74369    229018.04   -21115.746    1642.8037   -22758.549    14.203356   0.87555383 
    4400    249.40099   -407.29474    229018.04   -21127.829    1651.8725   -22779.702    14.302922   0.87555383 
    4500     247.1713   -284.86808    229018.04   -21168.965    1637.1045    -22806.07     14.42083   0.87555383 
    4600    239.39617   -286.48693    229018.04    -21211.81     1585.607   -22797.417     14.59018   0.87555383 
    4700    239.92959    -365.2653    229018.04    -21264.97    1589.1401    -22854.11    14.820163   0.87555383 
    4800    239.96488   -211.57395    229018.04    -21223.89    1589.3737   -22813.264    15.161087   0.87555383 
    4900    240.63574   -378.63466    229018.04   -21230.017    1593.8171   -22823.834    15.484332   0.87555383 
    5000    230.67273   -414.76613    229018.04   -21254.521    1527.8285   -22782.349    16.007905   0.87555383 
    5100    235.51394   -309.18752    229018.04   -21252.584    1559.8936   -22812.477    16.218728   0.87555383 
    5200     241.3891   -118.30079    229018.04   -21221.612    1598.8069   -22820.419    16.431629   0.87555383 
    5300     235.8939   -271.48329    229018.04    -21279.23    1562.4102   -22841.641    16.531243   0.87555383 
    5400    235.73706   -409.85965    229018.04    -21243.82    1561.3714   -22805.192     16.75959   0.87555383 
    5500     236.9458   -443.35794    229018.04   -21269.965    1569.3773   -22839.342    17.114949   0.87555383 
    5600    240.55081   -255.68845    229018.04   -21285.936    1593.2546   -22879.191    17.443051   0.87555383 
    5700    234.87478   -77.243364    229018.04   -21258.525    1555.6602   -22814.185    17.700362   0.87555383 
    5800    237.05731   -195.83646    229018.04   -21175.717    1570.1159   -22745.833    17.940619   0.87555383 
    5900    238.01793   -290.46386    229018.04   -21203.871    1576.4784    -22780.35     18.14371   0.87555383 
    6000    233.42668   -189.44674    229018.04   -21290.456    1546.0689   -22836.525    18.511793   0.87555383 
    6100    241.56331   -414.96389    229018.04   -21263.167    1599.9607   -22863.127    18.904535   0.87555383 
    6200    236.22864   -391.05583    229018.04     -21237.1    1564.6273   -22801.728    19.328561   0.87555383 
    6300    241.18597   -356.23922    229018.04    -21190.92    1597.4615   -22788.381    19.429803   0.87555383 
    6400     240.0574   -308.50717    229018.04   -21177.365    1589.9866   -22767.351     19.81464   0.87555383 
    6500    246.95554    -293.3809    229018.04   -21211.228    1635.6754   -22846.904    20.097973   0.87555383 
    6600    237.33238   -329.07135    229018.04   -21250.448    1571.9378   -22822.386    20.466083   0.87555383 
    6700    229.70151   -311.53483    229018.04   -21282.611    1521.3958   -22804.006    20.798671   0.87555383 
    6800    238.25319   -358.87172    229018.04   -21242.318    1578.0367   -22820.355    21.330917   0.87555383 
    6900    231.98019   -420.72714    229018.04   -21269.627    1536.4883   -22806.115     21.95429   0.87555383 
    7000    231.21883   -353.38449    229018.04   -21283.774    1531.4455    -22815.22     22.22666   0.87555383 
    7100    243.44421   -162.48829    229018.04   -21192.109    1612.4187   -22804.528     22.40566   0.87555383 
    7200    241.03444   -257.80659    229018.04   -21191.437    1596.4578   -22787.895    22.843956   0.87555383 
    7300     231.3873   -198.47992    229018.04       -21250    1532.5614   -22782.562    22.867491   0.87555383 
    7400    235.99411   -210.68071    229018.04   -21247.677     1563.074   -22810.751    23.109137   0.87555383 
    7500    237.83721   -435.33735    229018.04   -21261.733    1575.2815   -22837.015    23.198481   0.87555383 
    7600    233.46919   -448.92989    229018.04   -21276.347    1546.3505   -22822.698    23.748045   0.87555383 
    7700    236.35456   -303.49621    229018.04   -21234.861    1565.4613   -22800.322    24.002506   0.87555383 
    7800    245.39718   -274.44085    229018.04   -21191.943    1625.3539   -22817.297    24.334933   0.87555383 
    7900    241.98361   -380.55274    229018.04    -21174.23    1602.7445   -22776.974    24.775281   0.87555383 
    8000    238.17249    -288.8979    229018.04   -21162.408    1577.5021    -22739.91    25.093979   0.87555383 
    8100    245.79256   -454.22414    229018.04   -21215.499    1627.9726   -22843.472    25.323453   0.87555383 
    8200     238.5544   -329.02323    229018.04   -21260.975    1580.0317   -22841.007    25.731038   0.87555383 
    8300    242.67302   -166.34425    229018.04   -21278.394    1607.3108   -22885.704    25.999958   0.87555383 
    8400    233.30709   -252.68958    229018.04   -21282.919    1545.2769   -22828.196    26.337298   0.87555383 
    8500    236.82011    -155.0274    229018.04   -21286.217    1568.5448   -22854.762    26.870142   0.87555383 
    8600    237.77961   -342.89087    229018.04   -21229.628    1574.8999   -22804.528    26.945903   0.87555383 
    8700    230.55823   -221.23985    229018.04   -21296.603    1527.0701   -22823.673     27.27172   0.87555383 
    8800    244.22615   -295.86573    229018.04     -21235.7    1617.5977   -22853.298    27.533399   0.87555383 
    8900    237.59258    -303.8106    229018.04   -21273.578    1573.6612   -22847.239    27.826511   0.87555383 
    9000    240.40204   -348.20971    229018.04   -21225.735    1592.2692   -22818.004    28.043083   0.87555383 
    9100      243.656   -129.65301    229018.04   -21204.317    1613.8214   -22818.138    28.457622   0.87555383 
    9200    239.41475   -255.57053    229018.04   -21240.506    1585.7301   -22826.236    28.903849   0.87555383 
    9300    239.88335    -398.8456    229018.04   -21269.635    1588.8338   -22858.469    29.015798   0.87555383 
    9400    230.30564   -186.89727    229018.04   -21317.137    1525.3972   -22842.535    29.377693   0.87555383 
    9500    237.09406    -329.4721    229018.04   -21282.258    1570.3593   -22852.617    29.493493   0.87555383 
    9600    234.63381     -358.484    229018.04   -21346.244    1554.0642   -22900.308    29.976578   0.87555383 
    9700    243.95266   -239.58326    229018.04   -21305.531    1615.7863   -22921.318    30.430167   0.87555383 
    9800     236.8304   -324.59791    229018.04   -21316.678     1568.613   -22885.291    30.990028   0.87555383 
    9900    239.55377    -186.7519    229018.04   -21272.847    1586.6509   -22859.498    31.144618   0.87555383 
   10000     240.1654   -361.74531    229018.04   -21180.127    1590.7019   -22770.829    31.292535   0.87555383 
Loop time of 14.8995 on 160 procs for 10000 steps with 8943 atoms

Performance: 289.942 ns/day, 0.083 hours/ns, 671.162 timesteps/s
97.8% CPU use with 160 MPI tasks x no OpenMP threads

MPI task timing breakdown:
Section |  min time  |  avg time  |  max time  |%varavg| %total
---------------------------------------------------------------
Pair    | 0.00043321 | 3.0643     | 12.6       | 239.6 | 20.57
Neigh   | 0.00036311 | 0.10076    | 0.38377    |  39.1 |  0.68
Comm    | 0.014087   | 4.0824     | 12.067     | 220.2 | 27.40
Output  | 0.17411    | 0.1743     | 0.18334    |   0.2 |  1.17
Modify  | 0.38986    | 7.3008     | 14.547     | 229.1 | 49.00
Other   |            | 0.177      |            |       |  1.19

Nlocal:    55.8937 ave 177 max 0 min
Histogram: 72 6 42 0 0 0 0 0 4 36
Nghost:    540.913 ave 955 max 0 min
Histogram: 24 0 0 8 7 48 23 17 21 12
Neighs:    0 ave 0 max 0 min
Histogram: 160 0 0 0 0 0 0 0 0 0
FullNghs:  5630.46 ave 22215 max 0 min
Histogram: 90 30 0 0 0 0 0 2 19 19

Total # of neighbors = 900874
Ave neighs/atom = 100.735
Neighbor list builds = 569
Dangerous builds = 0
write_data 	    ${DIR}/data.${NAME}_eq
write_data 	    run_14/data.${NAME}_eq
write_data 	    run_14/data.ibeam_cooling_14_eq

undump              1
unfix               4



################################################
#######         Run Simulation         #########
################################################

reset_timestep      0
timestep	    10.0
log                 ${DIR}/log.run_${NAME}
log                 run_14/log.run_${NAME}
log                 run_14/log.run_ibeam_cooling_14
