
# Set production fixes - Nose/Hoover
#
fix                 4 water temp/csvr ${START_TEMP} ${END_TEMP} 500.0 928347
fix                 4 water temp/csvr 240 ${END_TEMP} 500.0 928347
fix                 4 water temp/csvr 240 227 500.0 928347


## divide "droplet" into core and surface
#region		core_reg cylinder z 135 135 44.6 20 INF units box
#region		surface_reg cylinder z 135 135 44.6 20 INF units box side out
#group		core dynamic all region core_reg
#group		surface dynamic all region surface_reg

## compute pressure core
#compute        peratom_core core stress/atom NULL
#compute        p_core core reduce sum c_peratom_core[1] c_peratom_core[2] c_peratom_core[3]
#variable       press_core equal -(c_p_core[1]+c_p_core[2]+c_p_core[3])/(3*1249982.5)


## compute pressure surface
#compute        peratom_surf surface stress/atom NULL
#compute        p_surf surface reduce sum c_peratom_surf[1] c_peratom_surf[2] #c_peratom_surf[3]
#variable       press_surf equal -(c_p_surf[1]+c_p_surf[2]+c_p_surf[3])/(3*42395)

## compute total pressure of drop
compute        peratom water stress/atom NULL
compute        p water reduce sum c_peratom[1] c_peratom[2] c_peratom[3]
variable       press equal -(c_p[1]+c_p[2]+c_p[3])/(3*58301)


# compute order parameter
compute        3 all orientorder/atom nnn NULL cutoff 3.5

# compute center of mass of bridge
compute 	4 water com

# Run simulation
thermo_style        custom step c_2 press vol etotal ke pe v_press c_1[4] c_4[*]
thermo              200
dump		     1 water custom 400 ${DIR}/prod.${NAME}.dump id type x y z vx vy vz c_3[*] c_peratom[*]
dump		     1 water custom 400 run_14/prod.${NAME}.dump id type x y z vx vy vz c_3[*] c_peratom[*]
dump		     1 water custom 400 run_14/prod.ibeam_cooling_14.dump id type x y z vx vy vz c_3[*] c_peratom[*]
run                 ${STEPS}
run                 5200000
Neighbor list info ...
  update every 1 steps, delay 0 steps, check yes
  max neighbors/atom: 2000, page size: 100000
  master list distance cutoff = 6.67472
  ghost atom cutoff = 6.67472
  binsize = 3.33736, bins = 48 11 12
  2 neighbor lists, perpetual/occasional/extra = 1 1 0
  (1) pair sw, perpetual
      attributes: full, newton on
      pair build: full/bin/atomonly
      stencil: full/bin/3d
      bin: standard
  (2) compute orientorder/atom, occasional, copy from (1)
      attributes: full, newton on
      pair build: copy
      stencil: none
      bin: none
Per MPI rank memory allocation (min/avg/max) = 0.8532 | 6.01 | 7.264 Mbytes
Step c_2 Press Volume TotEng KinEng PotEng v_press c_1[4] c_4[1] c_4[2] c_4[3] 
       0     240.1654   -361.74531    229018.04   -21180.127    1590.7019   -22770.829   -934.69861    31.292535    78.591937    15.909725    29.512822 
     200    240.17244   -467.10887    229018.04   -21165.515    1590.7485   -22756.263   -1344.1913    33.417264    78.593458    15.911496    29.534384 
     400    241.80168   -279.03912    229018.04   -21150.969    1601.5395   -22752.509   -577.00857    34.076509    78.596185    15.914651    29.543922 
     600    228.42662   -245.49684    229018.04   -21263.391    1512.9517   -22776.343   -492.76324    35.214441    78.596502    15.918996    29.561845 
     800    237.90308    -281.8443    229018.04   -21256.044    1575.7177   -22831.762   -639.44971    36.087998    78.595923    15.922138    29.560001 
    1000    243.95338    -351.6312    229018.04   -21143.316     1615.791   -22759.107   -873.42615    37.590794    78.594179    15.923223     29.56381 
    1200     239.8042   -286.27059    229018.04     -21240.2    1588.3095    -22828.51   -625.38636    38.994766      78.5919    15.924314      29.5684 
    1400    243.33008   -293.50863    229018.04   -21081.769    1611.6627   -22693.432   -662.59246    39.632211    78.592147    15.923128    29.553627 
    1600    238.40363   -430.76255    229018.04   -21081.297     1579.033    -22660.33   -1206.0614    42.170304    78.589976    15.920926    29.520502 
    1800    238.38111   -94.925564    229018.04   -21143.359    1578.8839   -22722.243    78.879534    42.752562    78.589064    15.921023    29.518134 
    2000    244.73118   -344.32493    229018.04   -20996.303    1620.9427   -22617.246   -869.70114      44.1283    78.588457    15.919215    29.516316 
    2200    243.17392   -294.93088    229018.04   -21064.225    1610.6284   -22674.853   -682.65271    45.756184    78.587627    15.916596     29.49377 
    2400    239.04519   -242.87082    229018.04   -21109.688    1583.2823    -22692.97   -466.31258    46.512296    78.590192    15.914046    29.515853 
    2600    237.97595    -308.6041    229018.04   -21134.806    1576.2003   -22711.006   -730.17997    47.230455    78.591548    15.910635    29.529772 
    2800    241.58218   -315.16193    229018.04   -21110.021    1600.0858   -22710.107    -716.8063    49.739507    78.590912    15.910435     29.54011 
    3000    233.70866   -255.86826    229018.04   -21221.075    1547.9366   -22769.012   -517.12482    51.121116     78.58908    15.909607    29.527661 
    3200     241.6693   -306.36553    229018.04   -21210.288    1600.6627    -22810.95   -686.70874     52.43552    78.590146    15.911572     29.51931 
    3400     243.4195   -335.91288    229018.04   -21175.889     1612.255   -22788.144   -850.56772    54.208217    78.590727    15.911554    29.518865 
    3600    236.27322   -363.55647    229018.04   -21154.288    1564.9226   -22719.211    -905.1098    55.489893    78.591416    15.913514    29.531837 
    3800     240.1312   -284.02856    229018.04   -21181.604    1590.4754   -22772.079   -568.77327    56.482216     78.59034    15.915156     29.55559 
    4000      237.511   -182.90951    229018.04   -21171.811    1573.1208   -22744.932   -255.47843    58.078096    78.588211    15.914249    29.556891 
    4200    238.64031   -297.65158    229018.04   -21106.116    1580.6007   -22686.717   -690.22348    59.568786    78.587332    15.913513    29.549722 
    4400    244.65523   -309.78007    229018.04   -21067.741    1620.4396    -22688.18   -726.27116    61.348275    78.586569    15.913654    29.535307 
    4600    241.30268   -272.37841    229018.04   -21150.242    1598.2345   -22748.477   -559.64761        62.38    78.587426    15.912462    29.523747 
    4800    242.94498   -228.48808    229018.04   -21097.055     1609.112   -22706.167    -387.8884    63.492064    78.587444    15.912098    29.527168 
    5000    240.64213   -232.82181    229018.04   -21161.428    1593.8594   -22755.288   -390.80385    65.349672    78.587424     15.91137    29.518927 
    5200    241.29843   -162.28887    229018.04   -21113.927    1598.2063   -22712.133   -133.59667    66.572856    78.586062    15.910358    29.496234 
    5400    245.10165   -394.53483    229018.04    -21121.08    1623.3964   -22744.476   -1097.8034    67.738589    78.587151    15.910376    29.517245 
    5600    235.57187   -426.70721    229018.04   -21209.234    1560.2773   -22769.511   -1225.8023    70.001962    78.588035    15.910702    29.518591 
    5800    239.49058   -322.64588    229018.04   -21033.839    1586.2323   -22620.072   -739.09982    70.996304    78.585246    15.911569    29.531442 
    6000    233.51688   -333.03718    229018.04   -21201.857    1546.6663   -22748.524   -831.49333    72.836789    78.584148     15.91267    29.534332 
    6200    240.21202   -237.43045    229018.04   -21081.002    1591.0107   -22672.012   -432.77049    74.319311     78.58235    15.913138    29.527361 
    6400    240.88623   -228.04024    229018.04    -21044.69    1595.4762   -22640.166   -431.23923    77.051816    78.582113    15.914499    29.501984 
    6600    229.08523   -184.77284    229018.04   -21139.089    1517.3139   -22656.403   -223.10669    78.307016    78.581747    15.911482    29.527586 
    6800    232.17824   -347.47151    229018.04   -21073.122    1537.8001   -22610.922   -875.56978    79.873187    78.579209    15.909548    29.528158 
    7000    230.92128   -282.01874    229018.04   -21136.981    1529.4747   -22666.456   -588.20154    81.250518    78.580133    15.909422    29.537381 
    7200    246.50444   -322.42228    229018.04    -21100.62    1632.6876   -22733.308   -752.25742    82.986756     78.57942     15.90891    29.534493 
    7400    233.15796   -460.01391    229018.04   -21203.548    1544.2891   -22747.837   -1318.0432    84.343505    78.580222    15.908734    29.558608 
    7600    233.97215   -193.52997    229018.04   -21242.353    1549.6817   -22792.035   -291.86851    84.797763    78.579282    15.907025    29.557501 
    7800    241.27468   -299.64995    229018.04   -21112.857     1598.049   -22710.906   -684.17755    85.810318    78.577275    15.903902    29.579815 
    8000    240.76195   -221.26851    229018.04   -21098.058     1594.653   -22692.711   -409.63572    86.438215    78.577286    15.901132    29.588218 
    8200    243.35039   -356.46985    229018.04   -21175.585    1611.7973   -22787.382    -898.0622    87.075018    78.576394    15.899618    29.584961 
    8400    234.62898   -350.23741    229018.04   -21171.368    1554.0322     -22725.4   -878.20375    89.061874    78.576014    15.901758    29.585347 
    8600    243.07592   -246.25619    229018.04   -21109.185    1609.9793   -22719.164   -485.51937    91.160361    78.577363    15.901663    29.602715 
    8800     233.2247   -304.63047    229018.04   -21124.439    1544.7312   -22669.171   -728.00041    93.203758    78.577781    15.903398    29.592944 
    9000    244.48141   -185.64124    229018.04   -21112.465    1619.2884   -22731.753   -257.24466    94.078243    78.578077    15.905897    29.602627 
    9200    239.77602   -318.90782    229018.04   -21166.989    1588.1229   -22755.112   -754.31761    94.195632    78.579163    15.904774    29.597132 
    9400    236.24281   -300.11574    229018.04   -21205.943    1564.7212   -22770.664   -685.39514    95.629807    78.580178    15.904824    29.589231 
    9600    237.79338   -444.00816    229018.04   -21229.787    1574.9911   -22804.778   -1257.1602    97.494176    78.580667    15.906957    29.568942 
    9800    236.92769   -287.63526    229018.04    -21166.03    1569.2574   -22735.287   -648.45148    98.977319    78.581384    15.908692    29.566525 
   10000    247.19467   -264.14224    229018.04    -21005.23    1637.2593   -22642.489   -532.30741    101.01946    78.581306    15.909749    29.582678 
   10200     245.4263   -171.64331    229018.04    -21082.51    1625.5467   -22708.057   -183.16582    102.96015    78.582107    15.910071    29.587685 
   10400    236.72739   -331.32747    229018.04   -21153.178    1567.9307   -22721.109   -825.05941    104.85753     78.58049    15.911695     29.60037 
   10600    242.23718   -220.52699    229018.04   -21100.077     1604.424   -22704.501   -392.33074     106.5967    78.581298    15.913449    29.601797 
   10800    242.41898   -291.73866    229018.04   -21094.819    1605.6281   -22700.447    -660.7063    107.92949    78.582452    15.916549    29.625163 
   11000    244.52521   -161.79547    229018.04   -21130.665    1619.5785   -22750.244   -136.42863    108.62184    78.585019    15.915298    29.628797 
   11200    238.36228   -347.01431    229018.04   -21139.569    1578.7592   -22718.328   -822.40513    110.44308    78.585959    15.917072    29.627061 
   11400     238.6728   -329.52553    229018.04   -21162.908    1580.8158   -22743.723     -775.162    110.52758    78.585547    15.918954    29.627527 
   11600    241.41226   -361.24869    229018.04   -21119.638    1598.9603   -22718.598   -965.07515    112.49982    78.584861    15.917966    29.615666 
   11800    236.08366   -389.08976    229018.04   -21091.107    1563.6671   -22654.774   -1039.6907     114.8913    78.586746     15.91519    29.616168 
   12000    244.01237   -165.55544    229018.04   -20982.959    1616.1818    -22599.14   -180.01819    116.81308    78.585795    15.912974    29.617245 
   12200    240.35571   -145.41242    229018.04   -21061.343    1591.9624   -22653.306   -87.946786    117.53367    78.585695    15.911003    29.615801 
   12400    242.94507   -349.43213    229018.04   -20987.164    1609.1126   -22596.277   -904.10089    118.54726    78.586225    15.907169    29.609411 
   12600    246.73969   -185.55467    229018.04   -20971.131    1634.2458   -22605.377   -253.39838    120.43615    78.585409     15.90667    29.607849 
   12800    239.53128   -321.93042    229018.04   -21072.173    1586.5019   -22658.675   -782.34794    122.54351    78.585297    15.905544    29.616123 
   13000    237.94981   -213.96734    229018.04   -21104.184    1576.0272   -22680.211   -357.01535     123.8143    78.584068    15.906074    29.608465 
   13200    242.44387   -283.60649    229018.04   -21117.848     1605.793   -22723.641   -633.28807    124.25404    78.584049    15.908411    29.609941 
   13400    245.60244   -400.81961    229018.04   -21076.025    1626.7133   -22702.739   -1098.7129    126.70437    78.584142    15.909496    29.623233 
   13600    242.32327   -159.73707    229018.04   -21122.188    1604.9942   -22727.182   -128.70004    127.70399    78.584493    15.914453    29.602912 
   13800     238.9806   -355.58426    229018.04    -21184.52    1582.8545   -22767.374   -890.13361    129.66556    78.584754    15.918598    29.615243 
   14000    239.35246   -348.93716    229018.04   -21158.942    1585.3175    -22744.26    -883.2292    130.54827    78.584899    15.920431    29.593876 
   14200    235.78622   -317.96981    229018.04   -21243.422     1561.697   -22805.119   -734.53454    133.11277    78.584952    15.918132    29.597206 
   14400    233.26824   -168.31791    229018.04   -21292.099    1545.0195   -22837.119    -164.3544    133.66409    78.588119    15.915232    29.606259 
   14600    242.62557   -419.51975    229018.04   -21227.958    1606.9965   -22834.955   -1189.4266    134.02052    78.588532    15.913024    29.614718 
   14800     240.4376   -289.05505    229018.04   -21190.427    1592.5047   -22782.932   -649.61169    136.19822    78.585833    15.911739    29.602861 
   15000    236.80706   -232.53754    229018.04   -21165.286    1568.4584   -22733.745    -427.6248    138.52547    78.586695    15.912406    29.584791 
   15200    239.05241   -146.12756    229018.04   -21221.998    1583.3302   -22805.328   -95.466981    138.79483    78.585889    15.910632    29.578325 
   15400     234.0324   -201.94136    229018.04   -21142.198    1550.0808   -22692.279   -252.04318    139.77578     78.58644     15.90986    29.583489 
   15600    231.20211   -203.24271    229018.04   -21229.488    1531.3348   -22760.822   -275.36959    141.01793    78.586692    15.910604    29.588026 
   15800    244.31809   -426.34939    229018.04   -21055.701    1618.2066   -22673.907   -1168.9528    142.95949    78.587746    15.913415    29.605717 
   16000    241.29382   -259.06405    229018.04   -21102.704    1598.1758    -22700.88    -543.4381    143.61667    78.587211    15.911207    29.631447 
   16200    253.18709   -245.61543    229018.04   -21016.146    1676.9492   -22693.096   -518.40998    145.12158    78.585826    15.911904     29.64179 
   16400     243.5576   -324.86203    229018.04   -21012.134    1613.1697   -22625.304   -845.13348    147.50743    78.587015    15.913062    29.656089 
   16600    240.09585   -334.61782    229018.04    -21036.02    1590.2412   -22626.262   -827.38312    149.13588     78.58411    15.914161    29.670692 
   16800    245.63784   -203.33804    229018.04   -21005.196    1626.9478   -22632.144   -282.85218    150.62749    78.583976    15.914292    29.666879 
   17000    242.03013   -54.435172    229018.04   -21026.447    1603.0527   -22629.499    262.24079    153.27529     78.58317    15.914361    29.675394 
   17200    237.20134   -236.44741    229018.04     -21081.6    1571.0699    -22652.67   -458.15002    155.21997    78.583063    15.913771    29.662167 
   17400     240.8026   -439.01741    229018.04   -21021.363    1594.9223   -22616.285   -1213.2292    158.59085    78.584204    15.914119    29.654829 
   17600     245.8969   -435.65638    229018.04   -20955.405    1628.6637   -22584.068   -1244.8309    159.15333    78.583118    15.914736       29.637 
   17800    239.21706   -151.33703    229018.04   -21021.268    1584.4207   -22605.689    -118.3213    162.34452    78.583907    15.915458    29.632735 
   18000    244.03547   -397.85362    229018.04   -21029.313    1616.3348   -22645.648   -1093.4212    163.14049    78.582292     15.91239    29.627451 
   18200    238.82323   -27.725816    229018.04   -21050.789    1581.8122   -22632.602    362.49704    165.32541     78.58265    15.909391    29.642381 
   18400    236.90807   -320.08646    229018.04   -21049.498    1569.1274   -22618.626    -747.7496    166.53717    78.580833    15.908268    29.653811 
   18600    234.24253   -95.142643    229018.04   -21016.864    1551.4726   -22568.337    78.919855    167.27363    78.580028    15.905377    29.662845 
   18800    242.96611   -244.65172    229018.04   -21051.017     1609.252   -22660.269   -438.11639    169.35249    78.579354    15.903755    29.655846 
   19000    235.26696   -155.45515    229018.04   -21048.873    1558.2577   -22607.131   -137.58756    171.38926    78.580721    15.902216    29.667705 
   19200    240.39991   -409.96893    229018.04   -21040.966    1592.2552   -22633.221   -1155.4429    174.00742    78.581078    15.898262    29.682461 
   19400    241.19032   -186.34456    229018.04   -21044.877    1597.4903   -22642.367    -255.2689    175.45656    78.581556    15.897245    29.671016 
   19600    235.40795   -260.05368    229018.04   -21089.011    1559.1916   -22648.202   -517.95694    177.03671     78.58153    15.896506    29.665121 
   19800    240.80637   -228.57477    229018.04   -21120.305    1594.9473   -22715.253   -430.80451    178.21488     78.58148    15.893068    29.676392 
   20000    237.76419   -141.53436    229018.04   -21137.283    1574.7978   -22712.081   -90.976222    178.33577    78.579505     15.89214    29.661827 
   20200    237.15552   -286.64659    229018.04   -21109.205    1570.7663   -22679.972   -639.72064    178.83457    78.578631    15.892297    29.635001 
   20400    236.34973   -168.50088    229018.04   -21199.697    1565.4293   -22765.126   -203.34681    179.43526     78.57829    15.891874    29.618081 
   20600    242.93053   -300.03434    229018.04   -21161.663    1609.0164    -22770.68   -708.23648    179.85786    78.579674    15.892073    29.611925 
   20800    236.49398    -359.7837    229018.04   -21121.251    1566.3848   -22687.636   -900.13385     181.1764    78.579972    15.890424    29.600089 
   21000    236.77939   -340.77813    229018.04   -21118.018    1568.2751   -22686.293   -863.92158    182.91372    78.578886    15.890739    29.568283 
   21200    243.70586   -167.81436    229018.04   -21078.441    1614.1516   -22692.592   -163.01877    184.11694    78.579634    15.891702    29.573225 
   21400    235.17485   -340.96395    229018.04   -21172.951    1557.6476   -22730.599   -835.03226    187.08939    78.579216    15.891597    29.569708 
   21600    239.33379   -249.77576    229018.04   -21096.624    1585.1938   -22681.818   -473.01251    187.63743    78.579388    15.892127    29.549055 
   21800    236.33013   -349.81817    229018.04   -21101.502    1565.2995   -22666.802   -888.46414    188.79646    78.577602    15.894313    29.545822 
   22000    239.58196   -374.23758    229018.04   -21128.112    1586.8375    -22714.95    -1005.922    189.94788    78.575629    15.893873    29.561843 
   22200    235.14702   -253.98527    229018.04   -21103.061    1557.4634   -22660.524    -503.5693    191.66093    78.575455    15.894214    29.563749 
   22400    232.50402   -309.84622    229018.04   -21156.674    1539.9578   -22696.632   -750.46592    194.55926    78.574651    15.892714    29.573653 
   22600    242.58334   -174.61279    229018.04   -21132.871    1606.7168   -22739.588    -200.6039    196.28529    78.573037    15.894147    29.575496 
   22800      240.095   -281.88247    229018.04   -21071.885    1590.2356   -22662.121    -604.8333    198.19989    78.572785    15.894847    29.568096 
   23000    238.94176   -354.27158    229018.04   -21150.207    1582.5973   -22732.805   -926.40022    198.40021    78.572109    15.895158     29.56613 
   23200     234.6081   -150.39789    229018.04   -21168.209    1553.8939   -22722.103   -134.56343    199.09997    78.574456    15.896216    29.578099 
   23400     240.5566   -299.96588    229018.04   -21059.744     1593.293   -22653.037   -689.15881    199.23302    78.574697    15.893968    29.578743 
   23600    232.58054   -189.87942    229018.04   -21147.993    1540.4646   -22688.458   -231.95891     201.0325    78.576021    15.892281    29.582422 
   23800    233.57999   -286.79307    229018.04   -21165.048    1547.0843   -22712.132   -647.07792    202.10862    78.575942     15.89188    29.577144 
   24000    240.82692    -176.2536    229018.04   -21088.279    1595.0834   -22683.362   -234.40171    203.14558    78.572753    15.890491    29.597304 
   24200    235.47308   -310.76279    229018.04   -21104.018     1559.623   -22663.641   -755.99667    204.34447    78.575273    15.893061    29.609561 
   24400    240.95908   -165.47808    229018.04   -21049.721    1595.9587    -22645.68   -197.91006    206.63367    78.576233    15.893227    29.612699 
   24600    239.99054   -309.84291    229018.04   -21123.107    1589.5437   -22712.651   -697.73247    207.11612    78.574515    15.893033    29.631812 
   24800    235.04043   -530.32077    229018.04   -21077.902    1556.7574   -22634.659   -1619.9637    209.07452    78.574681    15.891962    29.630176 
   25000    239.95557   -57.006741    229018.04   -21061.015    1589.3121   -22650.327    271.38551    208.61131    78.575223    15.893635    29.643284 
   25200    237.37415   -269.95135    229018.04   -21046.985    1572.2144   -22619.199   -590.57412    210.21088    78.575307    15.896031     29.64341 
   25400    238.34759   -295.26098    229018.04   -21054.079    1578.6619   -22632.741   -701.05102    212.30922    78.574833    15.895754    29.656085 
   25600    238.41508   -390.71767    229018.04   -21033.492    1579.1089   -22612.601   -1071.6628    213.35883    78.573827     15.89477    29.651663 
   25800     243.3292    -286.7267    229018.04   -21075.717    1611.6569   -22687.374   -644.18729    214.89694    78.573757    15.892003    29.660741 
   26000    234.55837   -356.77323    229018.04   -21133.302    1553.5645   -22686.867   -881.86317    217.34747    78.575412    15.892249    29.645159 
   26200    242.48511   -227.97254    229018.04    -21081.96    1606.0662   -22688.027   -416.93961    218.60036    78.576901    15.892842    29.648485 
   26400    236.98984   -266.64426    229018.04   -21158.168     1569.669   -22727.837   -552.71499    220.28963     78.57603    15.891011    29.652865 
   26600    237.80795   -418.03589    229018.04   -21140.766    1575.0876   -22715.854   -1149.4205    221.53521    78.577019    15.891253    29.656175 
   26800    244.33568   -350.73891    229018.04   -21105.371    1618.3232   -22723.694   -870.65822    221.49292    78.576842    15.889591    29.637547 
   27000    242.16236   -218.89752    229018.04   -21148.414    1603.9285   -22752.343   -390.65582    221.50311     78.58068    15.888222    29.641419 
   27200    250.19707   -424.10597    229018.04   -21084.889    1657.1453   -22742.034   -1171.6691    223.45545    78.581529      15.8879    29.658805 
   27400    242.16836   -181.09518    229018.04   -21131.899    1603.9682   -22735.867   -256.52065    223.14509    78.582632    15.887345    29.657587 
   27600    237.84083    -273.1615    229018.04   -21108.555    1575.3054    -22683.86   -588.64657     225.8248    78.583808    15.887168    29.667202 
   27800    231.91574   -382.95217    229018.04   -21200.236    1536.0614   -22736.297   -1007.7158    226.76919    78.585311    15.887476    29.685126 
   28000    233.36576    -124.2293    229018.04   -21140.847    1545.6654   -22686.513   -4.9510268    227.90712    78.587482    15.885645     29.70209 
   28200    240.80809   -280.81289    229018.04   -21085.112    1594.9587   -22680.071   -622.22782     229.5831    78.588009    15.887868    29.687972 
   28400    246.82066   -376.06214    229018.04     -21079.8     1634.782   -22714.582   -998.40578    231.91975    78.589884    15.888323    29.697116 
   28600    242.45902   -388.75239    229018.04   -21093.248    1605.8934   -22699.141   -1025.5193    232.98841    78.591295    15.887474    29.674447 
   28800    237.02843   -395.26344    229018.04   -21173.519    1569.9246   -22743.443   -1040.3457    234.91633    78.590806    15.888212    29.669897 
   29000    243.71945   -253.37374    229018.04   -21122.929    1614.2416   -22737.171   -477.83373    236.52687    78.590315    15.888659    29.691289 
   29200    233.69961   -303.50468    229018.04   -21122.837    1547.8767   -22670.714   -691.32832    236.97806    78.589244    15.886919    29.714427 
   29400    245.68579   -319.45716    229018.04   -21086.049    1627.2654   -22713.314   -752.38537     238.0585    78.592198    15.885798    29.707883 
   29600    241.31921   -340.03482    229018.04   -21132.158     1598.344   -22730.502   -878.87878    240.08636    78.593792    15.884827    29.708189 
   29800    243.82064   -423.83584    229018.04   -21098.147    1614.9118   -22713.059   -1159.8197    242.57848    78.592301    15.885857    29.730033 
   30000    237.60668   -115.79889    229018.04   -21125.817    1573.7546   -22699.571    29.046379    242.00422      78.5898    15.888447     29.72592 
   30200     233.5513   -309.04617    229018.04   -21125.318    1546.8943   -22672.212   -691.78939    241.72896    78.588341    15.889457    29.717099 
   30400    235.74435   -193.27257    229018.04   -21155.246    1561.4197   -22716.665   -264.40619     242.9782    78.589775     15.88846    29.738721 
   30600    233.45698   -399.99071    229018.04   -21260.055    1546.2696   -22806.324   -1080.3041    245.16868     78.59001    15.889444    29.747892 
   30800    239.81942    -409.5275    229018.04   -21203.704    1588.4104   -22792.114   -1107.0997    246.21365     78.58972    15.888354    29.749473 
   31000    232.40122   -410.36152    229018.04   -21124.998    1539.2769   -22664.275   -1130.1421    248.25488    78.589906    15.888711    29.756248 
   31200    243.64678   -285.30724    229018.04   -21057.158    1613.7603   -22670.919   -639.66966    248.30242    78.589393     15.89108    29.760691 
   31400    242.12081   -339.73333    229018.04   -21084.827    1603.6533    -22688.48   -823.10403    248.36753    78.590113    15.893382    29.754804 
   31600    247.05069   -370.88684    229018.04   -21037.592    1636.3057   -22673.898   -959.02492    249.96211    78.590149    15.896311    29.746723 
   31800    236.58409   -360.22067    229018.04   -21124.749    1566.9816   -22691.731   -891.43105    251.19803    78.590772    15.895409    29.729341 
   32000    241.72405   -302.05349    229018.04   -21115.471    1601.0254   -22716.496   -657.44314    253.52836    78.591485    15.894105    29.728712 
   32200    233.18248   -255.47482    229018.04   -21192.012    1544.4515   -22736.463   -534.24614    254.73046    78.592842    15.893783    29.762298 
   32400    236.81003   -215.73865    229018.04   -21164.175     1568.478   -22732.653   -363.19835    257.23538    78.592414    15.891989    29.744675 
   32600    242.54725   -346.10206    229018.04   -21195.788    1606.4778   -22802.266   -829.96675    257.03522    78.592494    15.893616     29.75088 
   32800    237.61698   -168.91682    229018.04   -21188.547    1573.8228    -22762.37   -180.54556    256.13001    78.592924    15.893703    29.762183 
   33000    242.21462    -293.9917    229018.04   -21143.577    1604.2746   -22747.851    -642.9918    257.13453    78.593575    15.893047    29.766258 
   33200    237.20636   -425.46093    229018.04   -21188.799    1571.1031   -22759.902   -1198.9796    257.84434    78.595842    15.892854    29.735048 
   33400    244.55916   -363.10318    229018.04   -21191.881    1619.8034   -22811.685   -937.11586     260.8177     78.59528    15.893642    29.754134 
   33600    233.57631   -319.70806    229018.04   -21274.066      1547.06   -22821.126   -726.82733    260.91763    78.594498    15.896551    29.760478 
   33800    241.32724   -282.62587    229018.04   -21170.797    1598.3972   -22769.194   -575.58148    262.34776    78.594983    15.898451    29.755822 
   34000    239.21297    -291.3112    229018.04   -21231.702    1584.3936   -22816.095   -689.91551    262.92876    78.596094    15.898497    29.747013 
   34200    242.39721   -531.52792    229018.04   -21182.741    1605.4839   -22788.225   -1558.8616    264.66362    78.596334    15.898573    29.757006 
   34400    233.94477   -457.08213    229018.04   -21181.135    1549.5004   -22730.635    -1292.428    264.70588    78.594797    15.901261    29.756273 
   34600    240.31902   -366.25171    229018.04    -21133.25    1591.7194   -22724.969   -951.02086    264.04606    78.594338     15.90241    29.757037 
   34800    242.38389   -310.34162    229018.04   -21119.991    1605.3957   -22725.387   -710.79802    264.56256    78.592687     15.90411     29.74402 
   35000    237.00655   -386.87355    229018.04   -21101.959    1569.7797   -22671.738   -1013.2767    265.35159    78.592654    15.904577    29.726243 
   35200     241.2564   -388.23996    229018.04   -21080.637     1597.928   -22678.565   -1038.4981    268.31386    78.594124    15.903967    29.725203 
   35400    245.75168   -256.70347    229018.04   -21013.163    1627.7018   -22640.864   -486.64528    268.44482    78.596063    15.901113    29.728194 
   35600    234.99478   -219.02554    229018.04    -21080.04     1556.455   -22636.495   -349.24506    270.26981    78.596354    15.900069    29.721632 
   35800    241.22885    -518.6941    229018.04   -21037.811    1597.7455   -22635.556   -1591.4476     272.4756    78.596354    15.900248    29.705646 
   36000    237.19303   -316.04274    229018.04   -21108.221    1571.0148   -22679.235   -727.84633     274.0503    78.596388    15.898802     29.74281 
   36200      234.023   -219.52477    229018.04     -21130.9    1550.0185   -22680.918   -399.02879    273.51044    78.597067     15.89988    29.722338 
   36400    235.60344   -424.93382    229018.04   -21082.932    1560.4864   -22643.419   -1191.8368    275.91382    78.597831    15.898947    29.740605 
   36600    238.81681    -297.6903    229018.04   -21138.912    1581.7697   -22720.682   -685.62303    276.25398    78.596981    15.903119    29.716749 
   36800    236.00549   -261.42322    229018.04   -21110.784    1563.1493   -22673.933   -571.91625    278.40838    78.600263    15.903365    29.719339 
   37000    242.00914   -225.63493    229018.04   -21044.548    1602.9136   -22647.462    -426.5756    279.68202    78.601421    15.903493    29.713457 
   37200    230.88637   -301.38272    229018.04   -21160.244    1529.2435   -22689.487   -698.34961    281.12027    78.601451    15.904155    29.695786 
   37400     236.9476   -372.57454    229018.04    -21113.27    1569.3892   -22682.659   -987.99454    282.54073    78.601811    15.901591    29.664418 
   37600     236.6047   -398.56157    229018.04   -21048.644    1567.1181   -22615.762   -1066.4384    283.44706    78.603972    15.898885    29.675466 
   37800    235.69057   -227.95453    229018.04   -21147.545    1561.0635   -22708.609     -449.849    284.69765    78.601922    15.897384    29.685555 
   38000    243.66149   -243.11422    229018.04   -21110.461    1613.8578   -22724.319   -498.99995    285.85378    78.603793    15.895721    29.688877 
   38200    236.94014   -311.09662    229018.04   -21106.541    1569.3398   -22675.881    -778.9549    287.26614    78.605303    15.895947    29.694427 
   38400    240.87851   -369.85026    229018.04   -21110.225    1595.4251    -22705.65   -953.74342    287.67608    78.604513    15.896654    29.679692 
   38600    239.82295   -209.30621    229018.04   -21125.479    1588.4337   -22713.912   -377.05262    288.81714    78.604292    15.899666    29.696519 
   38800    239.69664   -373.19036    229018.04   -21158.674    1587.5971   -22746.271   -953.58797    290.44747    78.605731    15.898277    29.713505 
   39000    237.76441   -397.08788    229018.04   -21122.271    1574.7993    -22697.07    -1106.035    290.77238    78.605059    15.899737       29.694 
   39200    230.23112    -158.9243    229018.04   -21249.156    1524.9036    -22774.06   -148.42428     291.0978     78.60454    15.898653    29.683584 
   39400    238.17057   -313.79148    229018.04   -21173.151    1577.4894    -22750.64   -755.39393    291.03815    78.604305    15.899305    29.674328 
   39600    238.16699   -296.18847    229018.04   -21157.832    1577.4657   -22735.297   -662.11493    293.20775    78.603816    15.898831    29.681108 
   39800    247.87536   -176.96665    229018.04   -20993.063    1641.7678    -22634.83   -198.27885    293.96054    78.603341    15.899778    29.683182 
   40000    243.92919   -251.25335    229018.04   -21129.199    1615.6308    -22744.83   -495.37554    295.63718    78.604056    15.900241    29.703395 
   40200    229.56094   -269.15913    229018.04   -21238.617    1520.4647   -22759.081   -631.86781    297.83914    78.603815    15.902155    29.702372 
   40400    244.13085   -364.82352    229018.04   -21070.405    1616.9665   -22687.371   -939.82204    300.31474    78.603878    15.903596    29.704023 
   40600    231.73382    -249.5286    229018.04   -21202.506    1534.8565   -22737.363   -451.98977    299.79129    78.604075     15.90456    29.701594 
   40800    242.47871   -276.87768    229018.04   -21186.908    1606.0238   -22792.932   -593.18653    302.10902    78.603708    15.904619    29.701632 
   41000    244.47798   -452.99158    229018.04   -21129.963    1619.2656   -22749.229    -1293.018    303.30363    78.602986    15.905369    29.688594 
   41200    240.58125   -303.99899    229018.04   -21076.973    1593.4562   -22670.429    -663.5194    305.76316    78.604278     15.90575    29.691446 
   41400    243.26556   -358.89669    229018.04   -21127.164    1611.2354   -22738.399   -917.17947    308.47763     78.60275    15.905358    29.709744 
   41600    244.48443   -345.89823    229018.04   -21052.972    1619.3084    -22672.28   -884.18617    310.46731    78.604015    15.908142    29.722427 
   41800    242.02904   -281.90837    229018.04   -21122.097    1603.0455   -22725.142   -644.63746    311.14154    78.605579    15.910082    29.725378 
   42000    240.62105   -415.03527    229018.04   -21146.992    1593.7198   -22740.712   -1142.1419    312.26849     78.60661    15.909336    29.709626 
   42200    239.11641   -354.12611    229018.04   -21104.377    1583.7541   -22688.131    -880.6095     312.4412    78.608037      15.9099    29.709413 
   42400    245.71928   -335.80444    229018.04   -21107.183    1627.4873    -22734.67   -842.63823    313.54555    78.607169    15.911572    29.716031 
   42600    237.81493   -314.50827    229018.04    -21160.06    1575.1339   -22735.193    -761.2357    315.77301    78.605827    15.911608    29.713432 
   42800    245.77202   -180.45927    229018.04   -21069.978    1627.8365   -22697.815   -242.20265    317.39473    78.605733    15.911164    29.719738 
   43000    245.37152   -374.73887    229018.04   -21053.356    1625.1839    -22678.54   -971.64386    317.60814    78.605262    15.911176    29.726428 
   43200    242.36529   -321.76396    229018.04   -21064.574    1605.2725   -22669.846   -786.46104     319.4323     78.60331    15.912358    29.754397 
   43400    237.33494   -489.03676    229018.04    -21110.47    1571.9548   -22682.425   -1431.2259    320.89693    78.601915    15.912697    29.753467 
   43600    236.98303   -329.55311    229018.04    -21160.93    1569.6239   -22730.554   -784.63867     320.6345     78.60206    15.912042    29.774737 
   43800    238.17693   -178.36566    229018.04   -21141.499    1577.5316   -22719.031   -183.75696    321.28475    78.600921    15.913929    29.790312 
   44000    237.76854   -393.07337    229018.04   -21184.017    1574.8266   -22758.844   -1065.3431    321.73514    78.600801    15.912068    29.796465 
   44200    235.89225   -433.80126    229018.04    -21137.81    1562.3993    -22700.21   -1241.0905    324.30443      78.6011    15.910928    29.778647 
   44400      245.589   -193.06523    229018.04   -21104.959    1626.6244   -22731.584   -263.08975    325.09743    78.598892    15.909996    29.772961 
   44600     238.1941   -187.65504    229018.04   -21089.967    1577.6453   -22667.612   -281.43678    324.94939    78.596451    15.907109    29.772114 
   44800    239.19475   -244.41179    229018.04   -21094.706    1584.2729   -22678.979   -460.27255    323.81378    78.596998    15.904348    29.758541 
   45000    236.02698   -345.67312    229018.04   -21117.813    1563.2917   -22681.104   -858.76117    325.04471    78.598517    15.902009    29.765501 
   45200      244.198   -238.81124    229018.04   -20971.122    1617.4112   -22588.533    -447.2199    327.04206    78.599224    15.898907    29.760113 
   45400    249.16057   -215.16752    229018.04   -20899.655    1650.2801   -22549.935   -312.92334    327.46635    78.598112    15.898238    29.757856 
   45600     247.6702   -255.08937    229018.04   -20955.244    1640.4089   -22595.653   -477.68583    327.00604    78.599215    15.897294    29.765637 
   45800    232.65244   -301.20785    229018.04   -21061.953    1540.9409   -22602.894   -697.34369    328.00039    78.600523    15.898765    29.758336 
   46000    234.53249   -243.41839    229018.04   -21071.452    1553.3931   -22624.845   -471.88047    326.96748    78.597922    15.897952    29.753997 
   46200    242.05699   -314.20991    229018.04   -21030.971    1603.2305   -22634.202   -756.89851    329.95832    78.598395    15.897766    29.773648 
   46400    242.67831   -368.96457    229018.04   -21044.496    1607.3458   -22651.842   -939.32045    331.47084    78.599246    15.899574    29.766444 
   46600    242.03873   -226.05979    229018.04   -21113.633    1603.1096   -22716.743    -416.5189    332.09164    78.599265    15.897738    29.761103 
   46800    250.18577   -284.50863    229018.04   -21086.418    1657.0704   -22743.488   -622.64884    334.84993    78.600233    15.898414    29.767344 
   47000    244.31692   -336.37639    229018.04   -21011.309    1618.1989   -22629.508   -814.44501    336.80072    78.598925    15.899162    29.775594 
   47200     242.2315   -295.35057    229018.04   -21071.375    1604.3864   -22675.762   -655.98558    335.73685    78.599548    15.898008    29.799811 
   47400    236.17253   -255.63889    229018.04   -21106.646    1564.2557   -22670.902   -510.03684    336.46582    78.599115    15.897778    29.800098 
   47600    241.95931   -303.11972    229018.04    -21051.85    1602.5836   -22654.434   -709.78486    339.78813    78.601403    15.898215     29.81118 
   47800    245.38753    -171.9796    229018.04   -21066.796    1625.2899   -22692.086    -185.1699     340.0618    78.602129    15.899354    29.835509 
   48000    240.53893   -377.45708    229018.04   -21095.894    1593.1759    -22689.07   -974.85086    341.90739    78.601151     15.89849    29.822998 
   48200    236.11513   -170.60558    229018.04   -21103.257    1563.8755   -22667.133   -190.98639    341.00049    78.599807     15.89913    29.804825 
   48400    239.87451   -192.94041    229018.04   -21091.606    1588.7752   -22680.381   -275.29722    343.66531     78.59952    15.901074    29.798721 
   48600    241.14638   -334.35791    229018.04    -21097.69    1597.1993   -22694.889   -811.30687    343.37383    78.599827    15.901234    29.811257 
   48800    248.33185   -257.33585    229018.04   -21059.238    1644.7912   -22704.029   -508.83992     344.8879    78.601228    15.902932     29.82379 
   49000    238.02103   -315.95627    229018.04   -21126.811    1576.4989    -22703.31   -772.26689    346.16018     78.60227    15.904905    29.838264 
   49200    237.76545   -257.59249    229018.04    -21136.39    1574.8062   -22711.196   -528.06255    346.23403     78.60175    15.907888    29.841255 
   49400    245.05875   -203.38624    229018.04   -21135.035    1623.1123   -22758.148   -286.89769    347.61035    78.602985    15.909095    29.813824 
   49600      241.513   -255.98184    229018.04    -21135.17    1599.6275   -22734.798   -534.54387    350.85496    78.602089    15.908317    29.825714 
   49800    241.68352   -440.95253    229018.04   -21201.757     1600.757   -22802.514    -1226.367    350.88548    78.601271    15.910396     29.81144 
   50000    234.46514   -344.98089    229018.04   -21170.317     1552.947   -22723.264   -895.03904    350.82822    78.598728    15.912889    29.819565 
   50200    245.62679   -196.92498    229018.04   -21165.962    1626.8746   -22792.836   -264.56862    351.41918    78.597292    15.914668    29.823194 
   50400    238.26932   -251.02747    229018.04   -21138.191    1578.1435   -22716.335   -522.02128    352.81254    78.597626    15.915881    29.830198 
   50600    236.35808   -342.17019    229018.04   -21180.759    1565.4846   -22746.243   -852.99726     354.3319    78.598134    15.917466    29.831216 
   50800     235.5511   -223.81085    229018.04   -21162.037    1560.1397   -22722.177   -389.00362    356.13682    78.598835    15.917421    29.826818 
   51000    238.14821   -318.04389    229018.04   -21130.426    1577.3413   -22707.767    -752.5747    357.53333    78.599136    15.916288     29.85392 
   51200     238.2095   -352.22246    229018.04   -21097.652    1577.7473   -22675.399   -857.54241    358.18666    78.599957    15.916237    29.837074 
   51400    236.50551   -226.84259    229018.04   -21144.827    1566.4611   -22711.288   -386.75108    359.09348    78.600752    15.914901    29.816973 
   51600    238.17889   -247.60278    229018.04   -21154.269    1577.5445   -22731.813    -507.7251    362.21158    78.603016    15.914383     29.84105 
   51800    241.46178   -288.37774    229018.04   -21115.823    1599.2883   -22715.112   -621.53482    362.71996    78.603606    15.912887    29.862037 
   52000    244.16737   -243.37719    229018.04   -21113.009    1617.2084   -22730.217   -481.32261    366.01878    78.604768    15.912283     29.86991 
   52200    240.37921   -231.77675    229018.04   -21069.332     1592.118    -22661.45   -452.21215    367.16502    78.604987    15.910585    29.879609 
   52400    246.43308   -419.24302    229018.04   -21093.915     1632.215    -22726.13   -1173.3124    367.89031    78.605044    15.912615    29.891871 
   52600    244.54391   -127.09169    229018.04   -21053.457    1619.7024    -22673.16    18.583572    367.85873    78.604631     15.91432    29.889833 
   52800    234.68287    -258.8979    229018.04   -21150.954    1554.3891   -22705.343    -521.2335    368.21865    78.605809    15.917003    29.890598 
   53000    233.75266   -277.04716    229018.04   -21131.226     1548.228   -22679.454   -591.78347    368.42065    78.603754    15.916022    29.893172 
   53200    237.30456   -361.89048    229018.04   -21097.567    1571.7535   -22669.321   -910.96606    369.99361    78.601927    15.918238    29.895461 
   53400    244.23829    -396.6665    229018.04   -21120.672    1617.6781    -22738.35   -1085.5671    370.66457    78.602515    15.917807    29.900523 
   53600     233.7933   -325.01062    229018.04   -21145.408    1548.4972   -22693.905   -763.73184    372.25516    78.600462    15.920279    29.896214 
   53800    242.37993   -264.17533    229018.04   -21172.903    1605.3695   -22778.272   -559.77112    371.17446    78.597825    15.921537    29.904852 
   54000    240.69648   -260.51368    229018.04    -21028.42    1594.2195   -22622.639   -509.78072    372.89434    78.596921    15.924736    29.892036 
   54200    238.76321   -191.00554    229018.04   -21132.406    1581.4147    -22713.82   -255.41128     372.9342    78.596677    15.925285    29.893597 
   54400    231.48733   -241.97863    229018.04   -21184.509    1533.2239   -22717.733   -472.83559    373.83903     78.59665    15.926126    29.902674 
   54600    240.27428   -125.99551    229018.04   -21090.834     1591.423   -22682.257    11.424347    376.84221    78.593142    15.928009    29.893962 
   54800    239.36873   -316.87524    229018.04   -21035.676    1585.4253   -22621.101   -747.62142    378.42144     78.59453    15.926916    29.898683 
   55000    240.78317   -304.24113    229018.04   -21089.459    1594.7936   -22684.252   -652.54753    379.55873    78.594782    15.928672    29.869015 
   55200    235.12862   -221.65473    229018.04   -21066.264    1557.3415   -22623.606   -408.44963    379.39175    78.594161     15.92876    29.872577 
   55400    246.63188   -109.70741    229018.04   -21110.054    1633.5317   -22743.585    78.346557    381.24109    78.593622     15.92972    29.847714 
   55600    243.22565   -389.88651    229018.04    -21079.11     1610.971   -22690.081   -1060.0566    382.95508     78.59236    15.927786    29.856634 
   55800    238.03859   -114.55782    229018.04   -21118.082    1576.6152   -22694.698    19.995274    383.72006    78.592748    15.925397    29.854617 
   56000     238.2904   -327.00687    229018.04   -21091.478    1578.2831   -22669.761   -791.44544     385.0702    78.592417    15.925007    29.845704 
   56200    243.02002   -294.92059    229018.04   -21064.199    1609.6091   -22673.809   -679.15763    387.29799    78.594334     15.92554    29.850696 
   56400    237.32709    -207.4404    229018.04   -21094.115    1571.9028   -22666.017   -309.88105    387.43872    78.593993    15.924649    29.858413 
   56600    237.80643   -342.94795    229018.04   -21212.083    1575.0776    -22787.16   -827.54022    389.54463    78.592821     15.92495    29.853877 
   56800    239.49137   -264.33793    229018.04   -21193.325    1586.2375   -22779.562   -524.89829    389.69692    78.591198    15.927521    29.832478 
   57000    236.79702   -277.13418    229018.04   -21267.207    1568.3919   -22835.599   -581.70594    391.24884    78.592361    15.930734    29.835343 
   57200    234.41289   -464.19908    229018.04   -21227.725    1552.6009   -22780.326   -1316.5571    391.67269    78.594968    15.929706      29.8111 
   57400    235.50303    -341.8463    229018.04   -21240.345    1559.8213   -22800.166   -842.86095    393.25592    78.595395    15.927616    29.814906 
   57600    248.04382    -370.9411    229018.04   -21123.996    1642.8835   -22766.879   -965.85821    393.47567    78.595836    15.929048    29.807952 
   57800    234.59884   -290.32689    229018.04    -21129.77    1553.8325   -22683.603   -624.70245    393.40304    78.596663    15.929336    29.793793 
   58000    239.00416   -393.70017    229018.04   -21085.155    1583.0106   -22668.166   -1046.7275    394.93755    78.595617    15.929685    29.779261 
   58200    247.86594   -299.83249    229018.04   -21057.258    1641.7053   -22698.964    -688.1287    397.04498     78.59471    15.930473    29.749041 
   58400    234.85535   -201.32742    229018.04   -21171.238    1555.5315    -22726.77   -325.01135    396.41005    78.593404    15.928589    29.741568 
   58600    238.77124   -274.78848    229018.04   -21088.675    1581.4679   -22670.143    -607.5243    397.55867    78.594109    15.928207    29.742823 
   58800    248.06155   -289.85505    229018.04   -21125.325    1643.0009   -22768.326   -640.03424    398.68401    78.595145    15.927606     29.73276 
   59000    229.80854   -299.05443    229018.04   -21106.635    1522.1047    -22628.74   -680.97311    400.79219    78.593488    15.931319    29.709855 
   59200    237.45151   -268.92108    229018.04   -21142.103    1572.7268    -22714.83   -648.78096    401.37817    78.595047    15.932438    29.706765 
   59400    240.40391   -336.69766    229018.04   -21093.031    1592.2816   -22685.313   -828.17438    400.80578     78.59382    15.932839    29.722796 
   59600    246.49682   -201.61604    229018.04   -21013.166    1632.6372   -22645.803   -295.43162    401.62389      78.5946    15.934722    29.721578 
   59800    252.60074   -422.67493    229018.04   -20983.473    1673.0656   -22656.539   -1176.7315    403.15398    78.595674    15.934187    29.705596 
   60000    235.81384   -208.15451    229018.04   -21120.715    1561.8799   -22682.595   -315.45427    405.80597    78.595636    15.932957    29.716977 
   60200    247.75915   -258.58572    229018.04   -21047.865     1640.998   -22688.863   -537.59345    406.47744    78.596125    15.935608    29.718356 
   60400    237.80943   -333.41667    229018.04   -21131.249    1575.0975   -22706.347   -802.40378    405.55286     78.59564    15.935903    29.718026 
   60600    234.98109   -168.89338    229018.04   -21101.427    1556.3643   -22657.792   -181.75283    406.49544    78.594299    15.935019    29.722353 
   60800    236.70627    -271.6776    229018.04   -21132.172    1567.7908   -22699.963   -557.31812    408.57512    78.594084    15.937604    29.748744 
   61000    234.52022   -208.01676    229018.04   -21143.936    1553.3118   -22697.248   -292.47806    410.93666    78.594889    15.937558    29.742509 
   61200    232.28434   -296.56163    229018.04   -21215.823    1538.5028   -22754.326   -662.81765    413.72931    78.593544    15.938255     29.71652 
   61400    236.47008   -295.04719    229018.04   -21152.959    1566.2264   -22719.185   -671.33286    414.60574    78.592504    15.937782    29.734082 
   61600    240.28649   -208.27717    229018.04   -21109.261    1591.5039   -22700.765   -331.22093    415.78766    78.592579    15.937805    29.745208 
   61800    243.16068    -347.7949    229018.04    -21058.23    1610.5407   -22668.771   -857.42005    419.38653      78.5938    15.936586    29.741162 
   62000    238.38175   -353.44286    229018.04   -21159.433    1578.8882   -22738.321   -899.48722    419.22005    78.595153    15.932717    29.705503 
   62200    235.06894   -305.81119    229018.04   -21091.207    1556.9462   -22648.153   -726.62969     420.3624    78.595267      15.9297    29.713672 
   62400    235.42729   -358.97108    229018.04   -21052.611    1559.3197   -22611.931   -924.40582    422.62679    78.595023    15.929433    29.717003 
   62600    247.49181   -124.60586    229018.04   -21079.635    1639.2273   -22718.862    -14.88333    423.24136    78.596643    15.928592    29.720851 
   62800     246.5716     -383.298    229018.04   -21083.973    1633.1324   -22717.105   -1055.0953    425.86523    78.595945    15.927323    29.702072 
   63000    237.46792   -250.68623    229018.04    -21117.87    1572.8355   -22690.706   -519.45062    425.54961    78.595669    15.928499    29.675153 
   63200    233.98521   -286.33959    229018.04   -21243.435    1549.7682   -22793.203   -604.71989    425.00612    78.596064    15.928372    29.642168 
   63400    240.59769   -259.51621    229018.04   -21098.688    1593.5651   -22692.253    -508.2508    427.14426    78.596682    15.924988    29.632384 
   63600    244.74918    -239.2167    229018.04   -21118.689    1621.0619   -22739.751   -452.58238    429.64783    78.596364     15.92197     29.63631 
   63800    241.25124   -270.16914    229018.04    -21065.12    1597.8938   -22663.014    -541.6803    430.42558    78.596595    15.918546    29.648668 
   64000     233.8316   -353.16754    229018.04   -21138.637    1548.7508   -22687.388   -891.66361    432.74561    78.595763    15.917963    29.638934 
   64200    238.88321    -414.5136    229018.04   -21117.883    1582.2095   -22700.092    -1156.165    432.69229    78.596863    15.917032    29.646251 
   64400    240.50724   -416.11888    229018.04   -21115.247     1592.966   -22708.213   -1123.1342    433.71409    78.597745    15.916421     29.64835 
   64600    241.54945   -144.20615    229018.04   -21181.799     1599.869   -22781.668   -86.438619    435.16349    78.597541    15.917204    29.651017 
   64800    243.51992    -279.2456    229018.04   -21095.824    1612.9201   -22708.745   -557.46204    434.74327    78.599795    15.919027    29.655308 
   65000    239.50403   -216.77258    229018.04   -21114.117    1586.3214   -22700.439   -343.03596    437.96762    78.600003    15.922523    29.663602 
   65200    233.08568   -297.08226    229018.04   -21135.119    1543.8103    -22678.93   -697.09001    438.50658    78.600993    15.923094    29.656643 
   65400    240.62051   -406.57472    229018.04   -21054.441    1593.7162   -22648.158   -1124.2748     440.9401    78.602786    15.925858    29.655182 
   65600    238.83694   -291.99349    229018.04   -21024.168     1581.903   -22606.072   -650.19798    441.75864    78.602878    15.923996    29.641823 
   65800    231.96976   -243.55449    229018.04   -21134.678    1536.4192   -22671.097   -468.27856    443.30068    78.604431    15.925033    29.621406 
   66000    233.71455    -225.3668    229018.04   -21136.956    1547.9756   -22684.931   -396.01288    445.11773    78.602857    15.924251    29.630265 
   66200    232.90842     -283.656    229018.04   -21074.643    1542.6363    -22617.28   -613.28015    444.32342    78.601707     15.92627    29.605618 
   66400     238.7156    -220.0932    229018.04   -21163.848    1581.0993   -22744.948    -403.9891    444.54051    78.603709    15.925551    29.604891 
   66600    239.19638   -423.48147    229018.04    -21074.58    1584.2837   -22658.864   -1176.0273    446.99183    78.605731    15.928166    29.615449 
   66800    232.89446   -215.51758    229018.04   -21151.821    1542.5438   -22694.365   -384.53535     447.3306    78.606048    15.928868    29.602929 
   67000    234.62748   -130.31493    229018.04   -21100.502    1554.0222   -22654.524   -35.102746    448.98797    78.607012    15.929409    29.591563 
   67200    233.60242    -236.2175    229018.04   -21150.342    1547.2329   -22697.575    -477.7958    448.90717    78.607407    15.928859    29.590886 
   67400    242.23263   -323.46563    229018.04    -21117.66    1604.3939   -22722.054   -782.63442    449.91804    78.604491    15.928855    29.591992 
   67600     235.8764   -233.46826    229018.04   -21145.731    1562.2943   -22708.026   -402.19619    448.59914    78.603387    15.928704    29.601395 
   67800    237.84385   -388.13977    229018.04   -21145.472    1575.3254   -22720.797   -1052.0794    449.62731     78.60443    15.929189    29.602349 
   68000    241.72537    -249.0744    229018.04   -21122.241    1601.0341   -22723.276   -503.03563    451.72091    78.604266    15.930796    29.599601 
   68200    240.53753   -191.19606    229018.04   -21143.856    1593.1667   -22737.022   -286.23892    452.69903    78.604388    15.932667    29.595009 
   68400     246.5538   -378.98767    229018.04   -21023.423    1633.0145   -22656.437    -1001.731    455.87829    78.604491    15.931837    29.583795 
   68600    239.75758   -147.84316    229018.04   -21065.351    1588.0007   -22653.351   -93.273093    454.88164     78.60448    15.931425    29.581278 
   68800    245.38244   -243.26284    229018.04   -21034.255    1625.2562   -22659.511   -494.77456    455.86758    78.604064    15.931401      29.5675 
   69000    240.01782   -214.75246    229018.04   -21021.942    1589.7244   -22611.666   -361.20742    455.05299    78.603176    15.930448     29.57601 
   69200    239.99582   -235.06072    229018.04   -21063.312    1589.5787   -22652.891   -444.80833    457.89079    78.604461    15.931804    29.598918 
   69400    237.16255   -34.489852    229018.04   -21084.236    1570.8129   -22655.049    347.23995     458.6651    78.606936    15.934904    29.609737 
   69600    247.06625   -151.42154    229018.04   -21087.367    1636.4087   -22723.775   -72.298943    460.60685    78.606865    15.933367    29.582807 
   69800    244.80554   -215.42689    229018.04   -21100.466    1621.4352   -22721.901   -338.06629    459.13512    78.606244    15.931081    29.580288 
   70000    234.61784   -360.27772    229018.04   -21181.008    1553.9584   -22734.966   -919.97116    462.22283    78.605187    15.930964     29.54621 
   70200    238.83493   -270.25838    229018.04   -21164.076    1581.8897   -22745.966   -556.65148    462.54345    78.605878     15.93079    29.570624 
   70400    245.18972   -400.71404    229018.04   -21181.582    1623.9798   -22805.561    -1115.774    465.84259    78.609695    15.929228    29.586282 
   70600    241.54802   -290.58704    229018.04   -21144.684    1599.8595   -22744.543   -645.32985    467.78823    78.610265     15.92878    29.575438 
   70800      229.623   -161.04154    229018.04   -21177.955    1520.8758   -22698.831   -111.44632     467.0176    78.609486    15.928571    29.573184 
   71000    243.56782   -114.94453    229018.04    -21128.87    1613.2373   -22742.107    35.219162    466.50492     78.61125    15.928069    29.573349 
   71200    248.64893   -272.65993    229018.04   -21023.132    1646.8914   -22670.024   -603.95754    469.36046    78.610398    15.927727    29.566056 
   71400    241.90435    -237.6124    229018.04   -21079.779    1602.2196   -22681.998   -458.96285     469.9839    78.611654    15.926947    29.582259 
   71600    240.44714   -329.03879    229018.04   -21114.807     1592.568   -22707.375   -841.91554    470.39685    78.612409    15.926488    29.573607 
   71800    234.17951   -310.32939    229018.04   -21138.069    1551.0552   -22689.124   -745.53156    471.57904    78.611607    15.926327    29.579918 
   72000    242.56256   -153.76786    229018.04   -21091.498    1606.5791   -22698.077   -97.395001    472.44881    78.609701    15.929241    29.577556 
   72200    241.01743   -295.45583    229018.04   -21114.277    1596.3452   -22710.622   -660.44839    478.73199    78.610231    15.930839    29.588237 
   72400    243.65861   -180.49032    229018.04   -21055.559    1613.8387   -22669.398   -233.67932    480.54774    78.610621    15.930892    29.568087 
   72600    244.15853   -273.79781    229018.04   -21072.136    1617.1498   -22689.286   -601.14445    483.29095    78.609991     15.92935     29.56928 
   72800    238.76606   -236.69367    229018.04   -21107.173    1581.4335   -22688.606     -423.631    485.69965     78.60948    15.929826    29.545578 
   73000    243.03059   -355.81668    229018.04   -21133.497    1609.6791   -22743.176   -874.44481    486.48663    78.608671    15.927842    29.560627 
   73200    244.52955   -107.94595    229018.04   -21009.909    1619.6072   -22629.516    57.706604    485.52405    78.608948    15.925576    29.562427 
   73400    243.34602   -381.15446    229018.04    -21015.38    1611.7683   -22627.149   -995.53517    487.87831    78.609224    15.925523    29.551804 
   73600    241.33905   -51.764851    229018.04   -21076.748    1598.4754   -22675.224    280.02815    489.03333    78.609836     15.92665    29.543036 
   73800    246.96657   -493.85099    229018.04   -21046.032    1635.7485    -22681.78   -1453.5506     491.9027    78.611074     15.92857    29.516779 
   74000    247.07338   -270.70534    229018.04   -21015.768    1636.4559   -22652.223   -567.09535    493.87339    78.610043    15.925553    29.520146 
   74200    236.86236   -364.66593    229018.04   -21075.617    1568.8247   -22644.442   -931.72011     495.9005    78.610317    15.925467    29.506826 
   74400    236.48358    -310.2065    229018.04   -21081.719    1566.3159   -22648.035   -706.24194    496.18083    78.611458    15.925801    29.523991 
   74600    240.03639   -258.62817    229018.04   -21124.152    1589.8474   -22713.999   -546.85715     494.9395    78.611358    15.926475    29.531863 
   74800    239.10086   -321.83136    229018.04   -21050.468    1583.6511   -22634.119   -776.93834    494.95221     78.61085    15.930936    29.527304 
   75000    237.10558   -326.38396    229018.04   -21095.421    1570.4356   -22665.857   -796.67636    495.76282    78.609432    15.929697    29.531913 
   75200    242.68964   -291.30413    229018.04    -21102.47    1607.4208   -22709.891   -657.52415     497.0293    78.610818    15.929975    29.520842 
   75400    240.55206    -388.2292    229018.04   -21056.194    1593.2629   -22649.456   -1031.2293    499.25563    78.611381    15.930523    29.508689 
   75600    245.42933    -327.3576    229018.04   -21075.781    1625.5668   -22701.348   -812.33351    499.98793    78.611847    15.930944    29.515572 
   75800     239.4808    -335.2782    229018.04   -21100.593    1586.1675    -22686.76   -783.86978    498.39708    78.611652    15.932442    29.516937 
   76000    232.36389   -186.20721    229018.04   -21116.609    1539.0297   -22655.638   -227.05801    498.06396     78.61144    15.932388    29.516103 
   76200     237.8183   -401.40472    229018.04   -21176.877    1575.1562   -22752.034   -1052.5919    499.00102    78.612033    15.932589    29.490825 
   76400    229.09036   -452.77604    229018.04   -21204.215    1517.3479   -22721.563    -1278.491    500.34134    78.611903    15.930786     29.48531 
   76600    237.34614   -283.23085    229018.04   -21109.795    1572.0289   -22681.823   -630.11919    500.12065    78.612238    15.931896    29.465451 
   76800    247.11267    -258.8545    229018.04   -21025.408    1636.7162   -22662.125   -517.94937    498.95477     78.61183    15.933343    29.479466 
   77000    241.99049   -234.09814    229018.04   -21134.948    1602.7901   -22737.738   -402.47516    502.14346    78.612936     15.93538    29.494069 
   77200    240.95965   -314.45183    229018.04   -21128.839    1595.9625   -22724.802   -743.03469     503.2887     78.61283    15.936419    29.481783 
   77400     238.1326    -334.7751    229018.04    -21125.45    1577.2379   -22702.688    -831.1262    505.25857    78.612846    15.934835    29.477028 
   77600    234.27487   -287.08124    229018.04   -21116.634    1551.6868    -22668.32   -640.08116    506.48821    78.612489    15.933509    29.476553 
   77800    240.84317   -463.28997    229018.04   -21150.646     1595.191   -22745.837   -1336.0294    509.19604     78.61306    15.932622    29.476966 
   78000    235.46188   -216.94881    229018.04    -21208.08    1559.5487   -22767.629   -340.75801    508.26447    78.614417    15.932702    29.482845 
   78200    239.11496   -266.76185    229018.04   -21118.708    1583.7444   -22702.452    -578.7602    509.87381    78.613564    15.932187    29.472011 
   78400    239.39593   -187.92779    229018.04   -21140.077    1585.6054   -22725.682   -237.15113    509.56667    78.610343    15.930739    29.496059 
   78600    236.61258   -301.92233    229018.04   -21163.537    1567.1703   -22730.707   -684.46732    511.15209    78.609617    15.929299    29.482442 
   78800    237.79771   -352.73467    229018.04   -21169.989    1575.0199   -22745.008   -908.26501     513.6244    78.609767    15.929064    29.473946 
   79000    240.13247   -252.25832    229018.04   -21132.522    1590.4838   -22723.005   -490.80354    515.25684    78.608938    15.929607    29.478555 
   79200    239.17772   -429.79966    229018.04   -21136.689    1584.1601   -22720.849   -1185.5281    515.88835    78.606793    15.931822    29.474216 
   79400     230.6915   -206.24629    229018.04     -21163.4    1527.9529   -22691.353   -302.88251    517.18958    78.604604    15.932784    29.466905 
   79600    244.89381   -150.09788    229018.04   -21142.203    1622.0198   -22764.223   -84.400575    518.75174    78.604226    15.929374    29.471935 
   79800    242.96945   -334.71018    229018.04   -21145.093    1609.2741   -22754.367   -816.09836    521.56127     78.60399    15.931344    29.460854 
   80000    242.11685    -358.2355    229018.04   -21199.496     1603.627   -22803.123   -938.12244    521.86675     78.60491    15.931674    29.497865 
   80200    241.24873   -190.92685    229018.04   -21184.166    1597.8772   -22782.044   -251.06912    522.14284    78.607583     15.93036    29.514276 
   80400    232.52161   -203.08638    229018.04    -21239.84    1540.0743   -22779.914   -273.47519    522.06258    78.609231    15.932822     29.52256 
   80600    247.69755   -249.52181    229018.04   -21056.504      1640.59   -22697.094   -483.91044    524.45001    78.608808    15.933623    29.555339 
   80800     235.3323   -203.55276    229018.04   -21148.822    1558.6905   -22707.512   -339.90441    525.02943    78.610577    15.933671    29.532183 
   81000    236.70902   -300.30358    229018.04    -21107.77     1567.809   -22675.579   -717.74144    525.87858    78.611407    15.932293    29.525251 
   81200    241.99003   -438.07558    229018.04   -21115.231    1602.7871   -22718.018   -1215.4437    528.42172     78.60988    15.930808    29.513105 
   81400    241.36611   -251.32766    229018.04   -21175.367    1598.6546   -22774.022   -499.52282    526.70287    78.610403    15.930305    29.501464 
   81600    244.71195   -342.05294    229018.04   -21053.925    1620.8153   -22674.741   -844.59004    529.14746    78.610639    15.930447    29.493467 
   81800     243.4725   -102.74686    229018.04   -21076.766     1612.606   -22689.372      85.6276     528.5253    78.611364    15.927211       29.487 
   82000    246.76847   -369.49167    229018.04   -21061.122    1634.4364   -22695.559   -987.08332    529.33034    78.613944    15.928334    29.491901 
   82200    240.61908   -163.92465    229018.04   -21169.331    1593.7068   -22763.037   -144.46307    530.68435    78.614083     15.92556    29.473112 
   82400     237.6153   -288.61717    229018.04   -21184.304    1573.8116   -22758.116   -602.54251    532.71701    78.614528    15.927412    29.460633 
   82600    241.18667   -200.07533    229018.04   -21144.023    1597.4662   -22741.489     -302.869    535.40243    78.615021    15.928528    29.451873 
   82800    242.65752   -346.48451    229018.04   -21082.144    1607.2081   -22689.352   -860.97732    541.03655    78.616964     15.92954    29.437091 
   83000    250.13712   -322.22093    229018.04   -21124.618    1656.7482   -22781.366   -800.65894    544.33754    78.616772    15.928553     29.43266 
   83200    233.55255   -457.05543    229018.04   -21169.167    1546.9026   -22716.069   -1264.5628    547.44381    78.617089    15.926963    29.415518 
   83400    237.58675   -312.36491    229018.04   -21175.693    1573.6226   -22749.315   -741.11438    546.33526    78.619219    15.926166    29.396117 
   83600    231.13512   -392.54502    229018.04   -21168.612    1530.8911   -22699.503   -1000.9828    548.75656    78.620067    15.926213    29.387089 
   83800    232.96365   -228.77561    229018.04   -21178.169    1543.0021   -22721.171   -366.19702     549.0463    78.619522    15.924298    29.378475 
   84000    237.43222   -204.37209    229018.04   -21198.549     1572.599   -22771.148   -323.39024    548.07997    78.618602    15.924728    29.380377 
   84200    233.05293   -376.54699    229018.04   -21181.241    1543.5934   -22724.834   -950.45151     547.2458    78.616548    15.923443    29.409411 
   84400    240.89304    -248.1173    229018.04   -21115.606    1595.5213   -22711.127   -487.33819    548.06761    78.615463    15.922824     29.40627 
   84600    240.88992   -338.45838    229018.04   -21115.937    1595.5007   -22711.438   -796.84832    548.65598    78.614344    15.923326    29.431487 
   84800    236.12852   -334.41204    229018.04   -21170.908    1563.9642   -22734.872   -824.22896    547.98154    78.612353    15.925803    29.414675 
   85000    231.12993   -188.60643    229018.04   -21094.295    1530.8567   -22625.152   -245.96336    549.22046     78.61221     15.92826    29.426724 
   85200     249.5968   -357.77472    229018.04   -21041.499    1653.1694   -22694.668    -923.7294    550.07574    78.611478     15.93087    29.432112 
   85400    236.58981   -426.34779    229018.04   -21107.829    1567.0195   -22674.849   -1179.7725    550.63571    78.612149    15.930018    29.408953 
   85600    238.07902   -279.20214    229018.04   -21091.674    1576.8831   -22668.557   -622.21253    551.11434    78.610504    15.931142    29.418613 
   85800    234.13129   -359.77786    229018.04   -21093.322    1550.7358   -22644.058   -954.78536    552.96175    78.609366    15.931825    29.420355 
   86000     246.0064   -232.44882    229018.04   -21056.753     1629.389   -22686.142   -411.87964    554.21421    78.609976    15.929928    29.395891 
   86200    229.33986   -297.20737    229018.04   -21073.136    1519.0005   -22592.136   -691.11741    554.60498    78.610694    15.930686    29.377187 
   86400     239.9894   -328.67987    229018.04   -21096.656    1589.5361   -22686.192   -766.01336    556.09377      78.6117    15.931272     29.38574 
   86600    241.55898   -210.83673    229018.04   -21081.626    1599.9321   -22681.558   -317.94752    555.93153    78.610579    15.930988    29.378671 
   86800    242.61727   -184.68968    229018.04   -21143.159    1606.9415   -22750.101   -219.49637    557.88546    78.609856    15.930728    29.371134 
   87000    241.14772   -160.23681    229018.04   -21128.948    1597.2082   -22726.157   -139.38802     560.3712    78.611642    15.929141    29.389132 
   87200    234.19489   -481.21799    229018.04   -21085.299    1551.1571   -22636.456   -1348.3452    563.74488    78.611363    15.927636    29.388923 
   87400    240.88565   -276.74828    229018.04     -21122.1    1595.4724   -22717.572   -604.96182    562.01913    78.611869    15.927001    29.395356 
   87600    240.16492   -259.51397    229018.04   -21129.181    1590.6987    -22719.88   -493.20975    564.85026    78.610249    15.925182    29.405284 
   87800    232.37745   -384.92039    229018.04   -21263.199    1539.1195   -22802.319   -1023.1247    566.13392    78.609927    15.923086    29.427446 
   88000    240.96823   -275.45068    229018.04   -21095.078    1596.0193   -22691.097   -542.63907    564.92246    78.608682    15.921848    29.433568 
   88200    242.21619   -342.31606    229018.04   -21076.987     1604.285   -22681.272   -852.96732    565.45061     78.60874    15.921036     29.43158 
   88400    237.05306   -333.52036    229018.04   -21109.732    1570.0877    -22679.82   -789.76553    566.87758    78.608296     15.91919    29.438238 
   88600    242.32515   -144.21181    229018.04   -21219.919    1605.0067   -22824.926   -62.208276    568.27131     78.60672    15.914768    29.413749 
   88800    237.15788    -428.9377    229018.04   -21223.323     1570.782   -22794.105   -1186.6996    569.97319    78.607384    15.913835    29.401826 
   89000    233.60212   -271.35547    229018.04   -21232.728    1547.2309   -22779.959   -582.06133    570.64274    78.608463    15.913405    29.409741 
   89200    239.06728   -439.07512    229018.04    -21156.44    1583.4286   -22739.868   -1200.8992    574.00326    78.610168    15.913862     29.41974 
   89400    243.25591   -241.19608    229018.04   -21085.087    1611.1715   -22696.259   -415.42123    573.36771    78.611607    15.912865     29.40394 
   89600    242.53844    -334.6281    229018.04   -21201.519    1606.4194   -22807.939   -811.03376    570.58209    78.611504    15.911427    29.411048 
   89800     233.4632   -268.16651    229018.04    -21149.76    1546.3108   -22696.071   -570.95953    573.50335    78.609853    15.912005    29.407524 
   90000    246.71315   -152.47405    229018.04   -21116.094      1634.07   -22750.164   -115.85864    572.66886    78.610162    15.910458    29.422434 
   90200    240.33509   -335.37614    229018.04   -21119.085    1591.8258   -22710.911   -842.71666    574.73494    78.610773    15.909684    29.451468 
   90400    234.38296   -229.85114    229018.04   -21194.981    1552.4027   -22747.384   -383.81734    577.37181    78.610265    15.912261    29.443556 
   90600    231.45023   -191.62355    229018.04    -21202.13    1532.9782   -22735.108   -250.39579    578.13739    78.611163     15.91334    29.455266 
   90800      241.975    -319.7443    229018.04   -21047.072    1602.6875    -22649.76   -786.19537    578.98386    78.609818    15.916343    29.462316 
   91000    240.16342   -198.42289    229018.04   -21109.314    1590.6888   -22700.003   -298.99977    576.71746     78.60991    15.916159     29.46965 
   91200    240.76628    -386.0792    229018.04   -21141.167    1594.6817   -22735.849    -1009.744    580.70284    78.608098    15.914047    29.496038 
   91400    241.78713   -130.08178    229018.04   -21097.138    1601.4432   -22698.582   -40.441408    579.95487    78.610086     15.91383    29.468972 
   91600    243.65228   -274.75514    229018.04   -21067.154    1613.7968   -22680.951   -590.63278    583.48744    78.610638    15.916019    29.440257 
   91800    243.63324    -330.0774    229018.04   -21037.469    1613.6706   -22651.139   -793.06551    583.62074    78.611355    15.916489    29.430321 
   92000    242.65783   -154.96292    229018.04   -21100.842    1607.2102   -22708.052   -109.00923    586.19865    78.609283     15.91633    29.440621 
   92200    235.23332   -331.62361    229018.04   -21079.337    1558.0349   -22637.372   -819.97888    587.64246    78.608979    15.915578    29.448291 
   92400    244.55639   -300.07127    229018.04    -21030.49     1619.785   -22650.275   -719.11049    585.81833    78.610902    15.913426    29.472032 
   92600    243.92251   -245.58802    229018.04    -21048.39    1615.5866   -22663.977   -519.55644    587.95837    78.613155    15.913824    29.475024 
   92800    236.86143   -454.64505    229018.04   -21114.821    1568.8185    -22683.64   -1292.2261    588.90643    78.613871    15.911676    29.500161 
   93000    232.98291   -215.92373    229018.04   -21120.249    1543.1297   -22663.379   -379.72765    587.75107    78.615169    15.913376    29.511957 
   93200     241.3087    -368.2585    229018.04   -21047.376    1598.2743    -22645.65   -974.77855    587.56596    78.616362    15.914798    29.510954 
   93400     228.5073   -315.14924    229018.04   -21135.246    1513.4861   -22648.732    -732.7319    589.68072    78.617853    15.913918    29.538259 
   93600    233.59852   -107.95897    229018.04   -21130.936    1547.2071   -22678.143    27.640822    589.90845    78.617353     15.91112    29.542743 
   93800    239.14923   -169.26637    229018.04   -21065.603    1583.9714   -22649.575   -187.11824    589.98199    78.616936    15.913543    29.527417 
   94000    242.42969   -234.53367    229018.04    -21089.14    1605.6991   -22694.839   -422.19443    591.31731    78.617511    15.912754    29.505396 
   94200    239.31267   -269.61539    229018.04   -21113.375    1585.0539   -22698.429   -540.15531    594.21031    78.617058    15.911611    29.528071 
   94400    242.97909    -316.4518    229018.04   -21020.726     1609.338   -22630.064   -715.34843    595.63718    78.617797    15.908802    29.525163 
   94600    230.60329   -219.97858    229018.04   -21051.375    1527.3686   -22578.744   -378.04098    596.01259    78.619305    15.907093    29.522135 
   94800      245.496   -189.16727    229018.04   -20993.436    1626.0084   -22619.445   -268.95369    594.45189    78.619531    15.909566     29.53953 
   95000    240.77577   -144.72239    229018.04   -21032.326    1594.7446    -22627.07   -141.95098    593.72343    78.620619    15.908628    29.541198 
   95200    236.97911   -192.69863    229018.04   -21151.357     1569.598   -22720.955   -250.92453    594.45795    78.620548    15.908099     29.54514 
   95400    241.00348   -276.80823    229018.04    -21163.59    1596.2528   -22759.843     -614.841    596.20487     78.61921     15.91088    29.554566 
   95600    234.63034   -241.29127    229018.04   -21148.927    1554.0412   -22702.968   -472.08315    595.95086    78.619142    15.912347    29.572652 
   95800    239.78298   -193.19335    229018.04   -21103.619     1588.169   -22691.788   -242.37537    596.03924    78.618932    15.916671    29.571015 
   96000    236.73651   -265.50124    229018.04   -21165.236    1567.9911   -22733.228   -536.06363    597.53179     78.61831    15.918169    29.573468 
   96200    236.00566   -256.36286    229018.04   -21200.897    1563.1504   -22764.048   -489.36807    597.26497    78.617154    15.916822     29.56125 
   96400    238.48353   -160.51747    229018.04   -21131.995    1579.5622   -22711.557    -117.6268    600.46899    78.616557    15.916617    29.554293 
   96600    234.76472    -150.5489    229018.04   -21208.578    1554.9312   -22763.509   -90.640078    603.01725    78.617504    15.915179    29.548249 
   96800    241.43385   -270.37642    229018.04   -21181.684    1599.1033   -22780.787   -517.65878    605.15828    78.618895    15.915107    29.569648 
   97000    234.34718   -223.66435    229018.04   -21120.078    1552.1657   -22672.244    -378.5307    608.05043    78.619576    15.913716    29.568546 
   97200    240.76207    -400.0695    229018.04   -21051.758    1594.6538   -22646.411   -1053.9801    608.71156    78.619904    15.911341    29.572022 
   97400     247.9535   -326.49739    229018.04    -21024.84    1642.2853   -22667.126    -818.0046    608.95803    78.618979    15.909942     29.57378 
   97600    241.20145   -295.67916    229018.04   -21052.922     1597.564   -22650.486    -642.4914    609.58874    78.619183    15.906582    29.578047 
   97800    238.26305  -0.32088787    229018.04   -21136.568     1578.102    -22714.67    498.67962    607.48513    78.619639    15.905597    29.570545 
   98000    227.85852   -331.98991    229018.04   -21228.566     1509.189   -22737.755   -807.61265    609.64044    78.619062    15.904077    29.568331 
   98200     226.5814   -329.74953    229018.04   -21164.579    1500.7302   -22665.309   -769.53743    610.29012     78.61821    15.903722    29.585927 
   98400    235.87062   -347.98097    229018.04   -21093.736     1562.256   -22655.992   -884.86497    612.78306    78.618859     15.90152    29.589821 
   98600    235.16884   -489.04214    229018.04   -21099.057    1557.6079   -22656.665    -1416.935    614.32394    78.619239    15.899189    29.591788 
   98800     242.4376   -289.74055    229018.04   -21011.614    1605.7515   -22617.366   -621.80624    615.78018    78.619004    15.898185    29.598925 
   99000    244.81105   -294.37093    229018.04   -20987.324    1621.4717   -22608.795    -648.1686     617.3165    78.617772    15.897119     29.60649 
   99200      240.877   -209.99602    229018.04   -21013.115    1595.4151    -22608.53   -308.02583    617.05205    78.618783    15.895497    29.593014 
   99400    234.61266   -254.62488    229018.04   -21073.873    1553.9241   -22627.797   -539.01639    617.33653    78.617512    15.895748    29.607866 
   99600    238.45314   -202.70408    229018.04   -21000.302     1579.361   -22579.663   -304.37581    619.01881    78.618749    15.895667    29.606065 
   99800    246.53085   -214.73236    229018.04    -21004.53    1632.8626   -22637.392   -377.23454    619.62129    78.619541    15.893688    29.584786 
  100000    240.63282   -327.85697    229018.04   -21076.801    1593.7978   -22670.599   -796.72014    620.48338    78.621188    15.893774    29.573099 
  100200    242.36359   -211.63974    229018.04   -21008.686    1605.2613   -22613.947   -341.20877    618.55753    78.620574      15.8909    29.580146 
  100400    239.49953   -277.20846    229018.04   -21049.594    1586.2916   -22635.885   -604.58692     621.0458    78.618984    15.890825    29.566559 
  100600    238.65235   -170.17037    229018.04   -21108.624    1580.6804   -22689.304   -162.69164    619.38271    78.615074    15.891189    29.557728 
  100800     241.0882   -334.66892    229018.04   -21066.153    1596.8139   -22662.967   -817.06531    621.98782    78.614515    15.889465    29.564522 
[...]
 5175800    226.61827    -17.87154    229018.04   -23366.749    1500.9744   -24867.724    405.20366    9694.6391    78.702509    16.192853    28.911752 
 5176000    216.96126   -42.184375    229018.04   -23485.672    1437.0125   -24922.685    322.29151       9693.6    78.701778    16.191978    28.917319 
 5176200    222.97066    -101.6076    229018.04   -23475.391     1476.815   -24952.206    99.329275    9699.9331    78.701433    16.192753    28.912652 
 5176400    222.71256    40.098487    229018.04   -23435.001    1475.1055   -24910.106    611.75138    9693.9273    78.702554    16.192817    28.932853 
 5176600    229.18638    81.937766    229018.04    -23395.59    1517.9839   -24913.574    847.35759     9691.447    78.703751    16.193526     28.92614 
 5176800      220.381   -149.17097    229018.04   -23449.873    1459.6627   -24909.535    -120.1024    9701.0254    78.704465    16.192856    28.920892 
 5177000    230.45967    49.754122    229018.04   -23356.373    1526.4173    -24882.79    677.06772    9695.5964    78.705461    16.192712    28.921943 
 5177200    236.05718   -7.9120746    229018.04   -23354.575    1563.4917   -24918.067    455.91814    9696.4274    78.706232    16.191758    28.922798 
 5177400    227.91255    34.039032    229018.04    -23399.86    1509.5469   -24909.407    637.25485    9695.3134    78.705886    16.191037    28.941324 
 5177600    227.82532   -17.321096    229018.04   -23398.041    1508.9691    -24907.01    402.39135    9697.4188    78.706906    16.191128    28.930567 
 5177800    229.96506   -45.212067    229018.04   -23354.513    1523.1414   -24877.654    342.83238    9697.3624    78.706885      16.1899    28.934293 
 5178000    228.50906    -23.35599    229018.04   -23444.064    1513.4977   -24957.561    395.87919    9695.1204    78.708381    16.187848    28.917166 
 5178200    224.27963    5.8675797    229018.04   -23449.493    1485.4847   -24934.978    537.83322    9695.7429    78.707865    16.186628    28.925011 
 5178400    224.34308   -33.411878    229018.04   -23340.588     1485.905   -24826.492    375.53496    9699.6481    78.708116    16.187856    28.930051 
 5178600    228.80999    10.730137    229018.04   -23403.277    1515.4909   -24918.768    558.40849    9693.3587    78.708129    16.186516    28.926914 
 5178800    224.42838   -34.770733    229018.04   -23367.107    1486.4699   -24853.577     345.2025    9699.0791    78.709082    16.185765    28.927438 
 5179000    236.64618    98.157427    229018.04   -23324.518    1567.3928   -24891.911    893.24708    9697.7104    78.709355    16.185585    28.938883 
 5179200    231.23089   -148.05085    229018.04   -23395.693    1531.5254   -24927.219   -101.20616    9696.8537    78.709031    16.184868       28.935 
 5179400    223.71626    26.076886    229018.04   -23421.416    1481.7533    -24903.17    602.32179    9694.7605    78.709545    16.182652    28.930239 
 5179600    226.88768    121.63679    229018.04   -23380.489    1502.7588   -24883.248    1003.0818    9696.9441    78.710226    16.183021    28.928877 
 5179800    227.70205  -0.98535195    229018.04   -23367.758    1508.1527   -24875.911    485.88721    9695.6358    78.710361    16.182697    28.935858 
 5180000    220.22295   -76.261565    229018.04   -23414.364    1458.6159    -24872.98    169.11487    9695.6723    78.711726    16.182593    28.938613 
 5180200    220.93608     196.2146    229018.04   -23429.197    1463.3392   -24892.537    1230.8617    9692.5374    78.713479    16.182584     28.92914 
 5180400     225.2472   -56.723538    229018.04   -23415.113    1491.8932   -24907.006    276.44313     9696.008    78.714463    16.182043    28.944576 
 5180600     225.0416   -20.952065    229018.04   -23439.909    1490.5315    -24930.44    423.99267     9690.472    78.715297    16.182273    28.949168 
 5180800    222.55624    73.810023    229018.04   -23448.264    1474.0701   -24922.334    812.90882    9695.7292    78.716918    16.182935    28.944292 
 5181000    227.17458   -26.247395    229018.04    -23403.15     1504.659   -24907.809    422.15413    9695.9066    78.716929    16.184281    28.943608 
 5181200    227.58357    24.238631    229018.04   -23370.168    1507.3679   -24877.536    544.18432    9691.5906    78.716429    16.184601    28.949446 
 5181400    226.19924   -64.679067    229018.04   -23371.683     1498.199   -24869.882    275.52983    9695.3203    78.718118    16.185144    28.945339 
 5181600    226.03437    10.189496    229018.04   -23361.882     1497.107   -24858.989    535.92818    9694.9564      78.7178    16.185064    28.947771 
 5181800    223.52524    79.465325    229018.04   -23456.685    1480.4881   -24937.173    801.59742    9693.4501    78.717931    16.184683    28.954678 
 5182000    222.85676   -64.591852    229018.04   -23461.384    1476.0605   -24937.445    276.82851    9693.3051    78.717666    16.185397    28.943505 
 5182200    226.30467    42.626961    229018.04   -23393.518    1498.8973   -24892.416     645.3997    9691.9648    78.716657    16.186826    28.944996 
 5182400    224.77773    13.898815    229018.04    -23387.86    1488.7838   -24876.644    537.33045    9691.4442    78.717339    16.188867    28.947688 
 5182600    231.37115   -24.469768    229018.04   -23360.622    1532.4544   -24893.077    415.94453    9693.0512     78.71865    16.189503    28.961143 
 5182800    231.85096    71.127822    229018.04   -23364.218    1535.6323    -24899.85     757.3883    9692.3385    78.719352    16.190803    28.955055 
 5183000     225.9015   -35.925772    229018.04   -23362.912    1496.2269   -24859.139    347.42741    9692.8325    78.719361    16.191842    28.938801 
 5183200    233.07274   -21.414516    229018.04   -23369.919    1543.7247   -24913.644    415.38692    9693.9241    78.720067    16.193012    28.942355 
 5183400    226.35075     67.24474    229018.04   -23402.511    1499.2025   -24901.713    747.20111    9692.9944    78.719983    16.194396    28.941785 
 5183600    229.46027   -28.844327    229018.04   -23393.568    1519.7979   -24913.366    372.39376     9696.737     78.72091    16.195174    28.943436 
 5183800    223.65469    114.50116    229018.04   -23449.879    1481.3455   -24931.224    918.35128    9691.2868    78.720803    16.197448    28.928601 
 5184000    225.82781   -6.9870473    229018.04   -23410.094    1495.7388   -24905.833    486.13871    9695.8024    78.721263     16.19917    28.936946 
 5184200    221.69374   -34.795069    229018.04   -23415.876    1468.3574   -24884.234    364.82382    9696.9874    78.721672    16.201237    28.936507 
 5184400    225.16909     103.3409    229018.04   -23390.876    1491.3759   -24882.252    890.42891     9689.991    78.722723    16.202567    28.935491 
 5184600    224.82086   -30.752971    229018.04   -23376.916    1489.0695   -24865.985    344.94764    9692.1697    78.723138    16.202606    28.918971 
 5184800    228.18433   -102.70843    229018.04   -23366.957    1511.3469   -24878.304    101.32982     9698.701    78.724455    16.204874    28.919396 
 5185000     233.1517    114.22692    229018.04   -23368.145    1544.2476   -24912.393    935.89316    9692.5418    78.724833     16.20799    28.928377 
 5185200    227.25798  -0.22837719    229018.04   -23393.657    1505.2114   -24898.869    529.22033    9693.6643    78.725845    16.209036    28.924413 
 5185400    223.71508    4.0726828    229018.04    -23419.05    1481.7455   -24900.796    521.27258    9695.1511    78.726188    16.210287    28.915971 
 5185600     228.7028    50.257316    229018.04    -23383.49     1514.781   -24898.271    700.87349    9694.8307    78.726439    16.212144    28.930716 
 5185800     232.8371   -58.543008    229018.04   -23293.914    1542.1639   -24836.078    235.30092    9695.6521    78.726609    16.213002    28.926411 
 5186000    228.31749   -50.435487    229018.04   -23340.234    1512.2289   -24852.463    305.95903    9693.2939    78.726867    16.213314    28.927616 
 5186200    227.73389   -15.267979    229018.04   -23408.961    1508.3635   -24917.324    458.19999    9696.1447    78.726778    16.213499    28.920938 
 5186400    228.00224    12.281105    229018.04   -23439.944    1510.1409   -24950.084    528.25823    9696.2473    78.726304     16.21303    28.918903 
 5186600    229.13359    22.108284    229018.04   -23366.538    1517.6342   -24884.172    612.39264    9692.1507    78.725696    16.212131    28.930694 
 5186800     219.4591    42.685247    229018.04   -23376.208    1453.5566   -24829.765    704.46634    9697.2846    78.725523    16.211147    28.918373 
 5187000    226.97353   -15.046352    229018.04   -23377.633    1503.3274   -24880.961    448.61726    9693.9339    78.725314     16.21114    28.912232 
 5187200    225.83776    7.1956865    229018.04   -23395.329    1495.8048   -24891.134    490.53682     9693.218    78.726689    16.209453    28.904906 
 5187400     227.9857    6.9065698    229018.04   -23370.156    1510.0314   -24880.187    535.75412    9696.7701    78.726753    16.209008    28.915621 
 5187600    228.27247   -15.959109    229018.04   -23397.504    1511.9307   -24909.435    427.49995    9692.8003    78.725775    16.209471    28.934733 
 5187800    223.97314    18.457893    229018.04   -23396.697    1483.4547   -24880.152    538.33041    9694.3295    78.725105    16.208172    28.937465 
 5188000      224.365     56.09777    229018.04   -23395.875    1486.0502   -24881.925    691.54196    9693.7839    78.725028    16.207699    28.946287 
 5188200    227.61693   -30.407958    229018.04   -23373.065    1507.5889   -24880.653    389.88906    9696.8876      78.7244    16.209426    28.932396 
 5188400    226.60876   -102.48993    229018.04   -23423.904    1500.9114   -24924.816    118.50905    9695.0729    78.724588    16.209512    28.940888 
 5188600    231.85685    2.7688506    229018.04   -23347.942    1535.6714   -24883.613    522.33612    9693.4422    78.725343    16.208292    28.936794 
 5188800    230.98009   -45.440282    229018.04   -23384.844    1529.8643   -24914.708     318.8856    9694.6828    78.726146    16.208193     28.93524 
 5189000    228.78755   -72.697309    229018.04   -23377.177    1515.3423   -24892.519    179.61504    9696.1376    78.725952    16.207934    28.929149 
 5189200    231.16278    65.655467    229018.04    -23388.22    1531.0743   -24919.294    707.55698    9693.3349    78.726037    16.206796    28.934629 
 5189400    226.72711    46.137877    229018.04   -23369.748    1501.6952   -24871.443    686.03379     9696.738    78.726467    16.205884    28.924095 
 5189600    223.26797   -21.195002    229018.04   -23360.918    1478.7841   -24839.702     368.0965    9694.0711    78.726499    16.205048    28.935433 
 5189800    227.86107    -59.96629    229018.04   -23408.732    1509.2059   -24917.938    247.38728    9692.8996    78.725895     16.20353    28.937342 
 5190000    228.74472    -24.85252    229018.04   -23379.337    1515.0586   -24894.396    438.11499      9698.26    78.726188    16.203171    28.923338 
 5190200    226.50465    41.144634    229018.04   -23365.089    1500.2218   -24865.311    605.50855    9693.6784    78.725915    16.204083    28.905796 
 5190400      226.198   -16.538853    229018.04   -23389.362    1498.1907   -24887.552    436.32461    9693.7065    78.727204    16.202791    28.927989 
 5190600    227.75983   -144.66123    229018.04     -23365.2    1508.5354   -24873.735   -82.578116    9697.9265    78.728057    16.202519     28.94008 
 5190800    226.85847   -45.984642    229018.04   -23384.968    1502.5653   -24887.533    298.29853    9695.2437    78.728302    16.203246    28.935642 
 5191000    221.60793    85.576351    229018.04   -23495.314    1467.7891   -24963.103    816.32631    9690.8216    78.728428    16.202454    28.938818 
 5191200    227.10866   -7.6020142    229018.04   -23416.041    1504.2224   -24920.263    505.70904    9694.2311    78.728455    16.203685    28.948912 
 5191400    225.04937   -12.642815    229018.04   -23392.865     1490.583   -24883.448    464.25736    9695.8051    78.728659    16.204187    28.959628 
 5191600    224.36297   -68.579634    229018.04   -23409.833    1486.0367    -24895.87    207.24388    9695.9433    78.728561    16.204524    28.935465 
 5191800    231.67762    69.842431    229018.04   -23370.608    1534.4843   -24905.092    813.17878    9693.0943    78.728241    16.203454    28.945155 
 5192000    232.54106    1.3316815    229018.04   -23364.088    1540.2032   -24904.291    506.61599    9696.0925    78.728268    16.204391    28.941442 
 5192200    222.39475     59.18574    229018.04   -23398.028    1473.0005   -24871.029    729.75885    9692.6789    78.726481    16.204924    28.939762 
 5192400    224.73159    18.158254    229018.04   -23447.294    1488.4782   -24935.772    531.22453    9693.7871    78.726913    16.204713    28.939229 
 5192600    222.71018   -57.198057    229018.04   -23434.592    1475.0897   -24909.682     287.7249    9696.8093    78.727055     16.20575    28.926395 
 5192800    229.64893    18.181622    229018.04   -23359.421    1521.0475   -24880.468     601.6208    9695.9175      78.7293    16.206481    28.920475 
 5193000     225.7451   -29.604109    229018.04    -23398.07     1495.191   -24893.261    370.82555    9694.7457    78.729944    16.205269    28.918369 
 5193200    222.82446    74.223041    229018.04   -23390.457    1475.8466   -24866.304    767.88831    9696.2806    78.731323    16.206276    28.928537 
 5193400    230.17929     81.72187    229018.04   -23348.947    1524.5603   -24873.508     863.6919    9695.2035    78.732391    16.207243    28.924539 
 5193600    223.71564   -49.232314    229018.04   -23397.774    1481.7492   -24879.523    287.06965    9696.4583    78.731838    16.207238    28.915453 
 5193800    224.29584     32.72089    229018.04    -23412.63    1485.5921   -24898.222     650.1747    9697.8864    78.732178    16.206108    28.918037 
 5194000     223.8438    54.104829    229018.04    -23409.24    1482.5981   -24891.838    674.88146    9693.1475    78.731847     16.20545    28.908978 
 5194200    232.20771    13.861997    229018.04   -23394.839    1537.9953   -24932.834    559.80716    9692.9721    78.731215    16.205068    28.927154 
 5194400    225.29599   -82.143265    229018.04   -23399.663    1492.2164   -24891.879    173.44997    9698.9001    78.731071    16.203207    28.925462 
 5194600    223.49756    25.532106    229018.04    -23428.54    1480.3048   -24908.845    590.89145    9694.3903    78.731041    16.204071    28.946225 
 5194800    224.96353    81.194611    229018.04   -23452.416    1490.0144    -24942.43    808.36959    9691.3018    78.731263    16.203418    28.946168 
 5195000    230.18538    -81.43994    229018.04   -23360.336    1524.6006   -24884.937     205.9917    9698.1498    78.732129     16.20333    28.948687 
 5195200    226.51968    64.191827    229018.04   -23424.033    1500.3214   -24924.355    746.36769    9692.4953    78.732228    16.203299    28.931747 
 5195400    230.81573    34.112771    229018.04   -23345.065    1528.7756   -24873.841    632.25989    9694.4926    78.731638    16.204605    28.950769 
 5195600    225.99257   -85.646054    229018.04   -23394.461    1496.8301   -24891.291    170.44314    9695.2048    78.732448    16.204917    28.969497 
 5195800    231.53664   -7.1056133    229018.04   -23354.975    1533.5505   -24888.525     493.9316    9694.6154    78.732083    16.204691    28.950965 
 5196000    228.13337   -2.6839553    229018.04   -23358.994    1511.0094   -24870.003    469.54048    9694.2549    78.732487    16.204438    28.955682 
 5196200     226.1358   -39.134175    229018.04   -23322.159    1497.7788   -24819.938      327.897    9694.0339    78.732693    16.202809    28.958588 
 5196400     227.7183   -40.888347    229018.04    -23371.11    1508.2603    -24879.37    345.81542    9697.5562    78.733398    16.202696    28.958733 
 5196600    220.93691   -22.054029    229018.04   -23489.669    1463.3447   -24953.013    388.02725    9692.8608    78.734641    16.201921    28.949326 
 5196800    229.47154    66.894478    229018.04   -23386.032    1519.8726   -24905.905    771.79311    9694.5521    78.733341    16.200156    28.951968 
 5197000    223.71236   -1.5889398    229018.04   -23426.428    1481.7275   -24908.155    450.06367    9695.8225    78.733772    16.200386    28.939106 
 5197200    233.72158   -37.683462    229018.04   -23325.786    1548.0222   -24873.808    376.48534    9696.7919    78.734299    16.200199      28.9248 
 5197400    227.63282    3.8073481    229018.04   -23419.918    1507.6941   -24927.612    515.28708    9695.5646    78.734439    16.199487     28.92837 
 5197600    224.36092   -68.269485    229018.04    -23401.57    1486.0231   -24887.593    240.47197    9694.0952    78.734706     16.19939    28.937118 
 5197800    230.40955   -24.237788    229018.04   -23297.524    1526.0854    -24823.61    366.22187    9696.4972    78.734039    16.198235    28.930728 
 5198000    228.19924    81.764823    229018.04    -23298.08    1511.4457   -24809.525    850.50731    9693.6262    78.733953    16.197477    28.952136 
 5198200    229.32094   -48.894271    229018.04   -23352.801    1518.8751   -24871.676    296.84944    9696.7519    78.734078    16.197849    28.945591 
 5198400     233.0322    14.955834    229018.04   -23383.963    1543.4561   -24927.419    559.36395    9692.7646    78.734229    16.197157    28.950602 
 5198600    219.71327    -68.54074    229018.04   -23433.608    1455.2401   -24888.848    215.12194    9696.3472    78.734704    16.196958    28.934272 
 5198800    228.11986    96.327531    229018.04    -23436.65      1510.92    -24947.57    881.94073    9695.2002    78.734679    16.196545    28.941435 
 5199000    229.68703    119.30395    229018.04    -23356.32    1521.2999    -24877.62    927.18543    9694.6321    78.735331    16.197941    28.947366 
 5199200    224.50075   -33.189433    229018.04     -23390.1    1486.9493   -24877.049    356.48056    9695.2582    78.735728    16.198025    28.945769 
 5199400    224.93999   -119.35372    229018.04   -23414.683    1489.8585   -24904.542    23.250016    9698.6503    78.736576    16.200706     28.93743 
 5199600    230.64196    117.33957    229018.04   -23383.215    1527.6247    -24910.84    1003.1854    9691.0045    78.736987    16.202419    28.934207 
 5199800    224.10071   -64.177915    229018.04   -23428.589    1484.2997   -24912.889    254.13703    9697.3194    78.737074    16.202574    28.936611 
 5200000    228.11334    69.892965    229018.04   -23359.892    1510.8768   -24870.768    765.03231    9695.8675    78.737942     16.20394    28.954149 
Loop time of 7396.33 on 160 procs for 5200000 steps with 8943 atoms

Performance: 607.436 ns/day, 0.040 hours/ns, 703.051 timesteps/s
97.8% CPU use with 160 MPI tasks x no OpenMP threads

MPI task timing breakdown:
Section |  min time  |  avg time  |  max time  |%varavg| %total
---------------------------------------------------------------
Pair    | 0.24208    | 1552.8     | 5773.4     |5109.3 | 20.99
Neigh   | 0.35268    | 97.774     | 374.21     |1229.1 |  1.32
Comm    | 11.778     | 2062.3     | 6019.8     |4514.8 | 27.88
Output  | 89.522     | 89.605     | 91.472     |   1.6 |  1.21
Modify  | 207.43     | 3498.2     | 7204.9     |4955.1 | 47.30
Other   |            | 95.59      |            |       |  1.29

Nlocal:    55.8937 ave 177 max 0 min
Histogram: 68 8 44 0 0 0 0 0 4 36
Nghost:    531.731 ave 915 max 0 min
Histogram: 21 3 1 7 8 38 25 19 20 18
Neighs:    0 ave 0 max 0 min
Histogram: 160 0 0 0 0 0 0 0 0 0
FullNghs:  5645.61 ave 22244 max 0 min
Histogram: 95 25 0 0 0 0 0 2 18 20

Total # of neighbors = 903298
Ave neighs/atom = 101.006
Neighbor list builds = 557984
Dangerous builds = 0
write_data 		${DIR}/data.${NAME}_run
write_data 		run_14/data.${NAME}_run
write_data 		run_14/data.ibeam_cooling_14_run
Total wall time: 2:03:31
