
### Dimensions ###


### IMPORT ATOMS ###
read_data ../Box_Setup/data.Ibeam_240K
  orthogonal box = (0 0 0) to (68.908 85.8483 27.9754)
  4 by 8 by 2 MPI processor grid
  reading atoms ...
  8493 atoms
  reading velocities ...
  8493 velocities
group water type 2
1689 atoms in group water
group graphite type 1
6804 atoms in group graphite


# Define potential
#
pair_style          sw
pair_coeff * * MLC_e.sw C mW

# Add velocity/set timestep
#

fix		1 graphite setforce 0.0 0.0 0.0
velocity 	graphite set 0.0 0.0 0.0
velocity            water create ${START_TEMP} ${SEED} rot yes dist gaussian
velocity            water create 240 ${SEED} rot yes dist gaussian
velocity            water create 240 24578 rot yes dist gaussian
timestep            5.0

# Define output
#
compute 1 water msd
compute 2 water temp


thermo	            100
thermo_style custom step c_2 press vol etotal ke pe c_1[4] density

# Neighbor lists
#
neigh_modify        delay 0 every 1 check yes


# Set fixes
#
fix                 2 water momentum 10 linear 1 1 1 rescale
fix                 3 all nve
fix                 4 water temp/csvr ${START_TEMP} ${START_TEMP} 500.0 928347
fix                 4 water temp/csvr 240 ${START_TEMP} 500.0 928347
fix                 4 water temp/csvr 240 240 500.0 928347

# Run 0.05 ns equilibration
#
dump                1 all custom 100 ${DIR}/eq.${NAME}.dump id type x y z vx vy vz
dump                1 all custom 100 run_13/eq.${NAME}.dump id type x y z vx vy vz
dump                1 all custom 100 run_13/eq.ibeam_cooling_13.dump id type x y z vx vy vz
run                 10000
Neighbor list info ...
  update every 1 steps, delay 0 steps, check yes
  max neighbors/atom: 2000, page size: 100000
  master list distance cutoff = 6.67472
  ghost atom cutoff = 6.67472
  binsize = 3.33736, bins = 21 26 9
  1 neighbor lists, perpetual/occasional/extra = 1 0 0
  (1) pair sw, perpetual
      attributes: full, newton on
      pair build: full/bin/atomonly
      stencil: full/bin/3d
      bin: standard
Per MPI rank memory allocation (min/avg/max) = 3.384 | 4.425 | 4.753 Mbytes
Step c_2 Press Volume TotEng KinEng PotEng c_1[4] Density 
       0          240   -298.97748    165492.15   -16025.669    1207.5858   -17233.255            0    1.1252403 
     100    244.65508   -338.03734    165492.15   -16007.396    1231.0083   -17238.404   0.97807774    1.1252403 
     200    236.34007    -521.9459    165492.15   -16043.433    1189.1704   -17232.604    1.4797416    1.1252403 
     300    242.60817   -509.23714    165492.15   -16031.852    1220.7091   -17252.561    1.9594943    1.1252403 
     400    235.20647   -720.56132    165492.15   -16055.887    1183.4666   -17239.353    2.4645395    1.1252403 
     500    235.85933   -331.76391    165492.15   -16063.904    1186.7516   -17250.656    2.8057318    1.1252403 
     600     238.5769    -383.1318    165492.15   -16155.982    1200.4253   -17356.407    3.2023151    1.1252403 
     700    239.03571   -366.53481    165492.15   -16145.084    1202.7338   -17347.818     3.569758    1.1252403 
     800    231.38613   -448.33565    165492.15   -16189.484    1164.2442   -17353.728    3.9717458    1.1252403 
     900    234.12384   -418.59123    165492.15   -16137.321    1178.0192   -17315.341    4.1091393    1.1252403 
    1000    240.21964   -561.27812    165492.15   -16080.386    1208.6909   -17289.077    4.2318249    1.1252403 
    1100    236.33401   -201.60141    165492.15    -16096.07      1189.14    -17285.21    4.6216871    1.1252403 
    1200     235.7629   -372.79633    165492.15   -16146.988    1186.2663   -17333.254    5.0694929    1.1252403 
    1300    234.70879   -434.38965    165492.15   -16114.509    1180.9625   -17295.471    5.3671329    1.1252403 
    1400    246.85233   -503.91872    165492.15   -16057.596     1242.064    -17299.66    5.7034008    1.1252403 
    1500    243.94691   -405.74831    165492.15   -16061.543    1227.4451   -17288.988    6.1060512    1.1252403 
    1600    247.77644   -393.16541    165492.15   -16057.664    1246.7137   -17304.378    6.2849899    1.1252403 
    1700    241.02463   -376.97331    165492.15   -16070.347    1212.7413   -17283.089    6.6761547    1.1252403 
    1800    240.47075    -493.4286    165492.15   -16068.698    1209.9544   -17278.653    6.8968573    1.1252403 
    1900    241.99233   -501.87156    165492.15   -15988.385    1217.6104   -17205.996    7.2017799    1.1252403 
    2000    247.23064   -489.44148    165492.15   -15966.365    1243.9675   -17210.333     7.427873    1.1252403 
    2100     247.5181   -497.37566    165492.15    -15966.69    1245.4139   -17212.104    7.8608848    1.1252403 
    2200    253.40691   -581.49589    165492.15   -15966.351    1275.0441   -17241.395    8.3041561    1.1252403 
    2300    239.54783   -401.58783    165492.15   -16009.513    1205.3106   -17214.824    8.5834104    1.1252403 
    2400    245.21579   -215.64287    165492.15    -15999.72    1233.8296    -17233.55    8.8335368    1.1252403 
    2500     241.5773   -579.92099    165492.15   -16005.916    1215.5221   -17221.438    9.2764148    1.1252403 
    2600    233.61926   -654.82506    165492.15   -16039.214    1175.4804   -17214.695     9.428196    1.1252403 
    2700    247.68628   -312.59613    165492.15    -16017.48    1246.2601    -17263.74    9.6652033    1.1252403 
    2800      242.404   -395.56591    165492.15    -16035.11    1219.6817   -17254.792    10.011379    1.1252403 
    2900     238.2269   -424.99988    165492.15   -16086.949    1198.6642   -17285.613    10.347769    1.1252403 
    3000    232.70927   -576.11619    165492.15   -16104.905    1170.9017   -17275.807    10.575277    1.1252403 
    3100    230.57977   -426.85571    165492.15   -16093.278    1160.1869   -17253.465     10.91561    1.1252403 
    3200    237.57255   -697.13275    165492.15   -16104.066    1195.3718   -17299.438    11.408108    1.1252403 
    3300    230.89686   -416.54257    165492.15   -16061.186    1161.7823   -17222.968    11.382187    1.1252403 
    3400     236.2796   -527.24448    165492.15   -16052.827    1188.8662   -17241.694    11.673053    1.1252403 
    3500    239.57307   -575.33959    165492.15   -16042.532    1205.4376   -17247.969    11.993921    1.1252403 
    3600    235.35735   -397.21183    165492.15   -16039.369    1184.2258   -17223.595    12.474196    1.1252403 
    3700    236.02805   -435.03375    165492.15   -16059.761    1187.6005   -17247.361    13.114908    1.1252403 
    3800    238.65398   -462.65531    165492.15   -16049.993    1200.8131   -17250.806    13.338944    1.1252403 
    3900    244.59555    -497.1274    165492.15   -16068.889    1230.7088   -17299.598    13.472701    1.1252403 
    4000    240.35582   -506.65723    165492.15   -16091.851    1209.3761   -17301.227    14.021255    1.1252403 
    4100    234.83472   -383.23818    165492.15   -16065.675    1181.5961   -17247.271    14.573296    1.1252403 
    4200    238.89779   -601.04484    165492.15   -16030.236    1202.0399   -17232.276    14.728738    1.1252403 
    4300    245.61406   -528.99026    165492.15   -15952.089    1235.8335   -17187.923    14.764073    1.1252403 
    4400    246.69011   -456.38097    165492.15   -15962.419    1241.2478   -17203.667    14.999741    1.1252403 
    4500    244.59907   -445.15585    165492.15   -16009.805    1230.7265   -17240.532    15.380268    1.1252403 
    4600    242.89848   -604.14591    165492.15   -16040.503    1222.1698   -17262.673    15.610521    1.1252403 
    4700    238.04982   -535.01325    165492.15   -16059.341    1197.7732   -17257.115    16.097634    1.1252403 
    4800    236.15891   -428.95603    165492.15   -16025.653    1188.2589   -17213.912    16.356453    1.1252403 
    4900    242.01082   -413.23384    165492.15   -16045.085    1217.7034   -17262.789    16.406983    1.1252403 
    5000    237.10771   -427.65856    165492.15   -16074.956    1193.0329   -17267.989    16.588696    1.1252403 
    5100    236.49782    -219.3127    165492.15   -16097.595    1189.9642   -17287.559    17.188777    1.1252403 
    5200    242.36384   -458.26245    165492.15   -16069.975    1219.4797   -17289.455    17.568258    1.1252403 
    5300    231.31331     -597.418    165492.15   -16133.566    1163.8777   -17297.444    18.006024    1.1252403 
    5400     232.4655   -672.48038    165492.15   -16089.555    1169.6751    -17259.23    18.512738    1.1252403 
    5500     245.2004   -598.67344    165492.15   -16117.443    1233.7522   -17351.195    18.553145    1.1252403 
    5600    238.48452   -571.28689    165492.15   -16135.237    1199.9605   -17335.197    18.707529    1.1252403 
    5700    238.81826   -340.86545    165492.15   -16108.014    1201.6397   -17309.654     19.23658    1.1252403 
    5800    239.77741   -377.79768    165492.15   -16019.875    1206.4658    -17226.34    19.679316    1.1252403 
    5900    245.02657   -551.91779    165492.15   -16053.488    1232.8775   -17286.366    20.043432    1.1252403 
    6000    239.72343   -407.86808    165492.15   -16135.185    1206.1942    -17341.38    20.367103    1.1252403 
    6100     232.4559    -557.2816    165492.15   -16124.724    1169.6268   -17294.351    20.548311    1.1252403 
    6200     235.1764   -598.86262    165492.15   -16091.619    1183.3153   -17274.934    21.025356    1.1252403 
    6300    245.82952   -484.44501    165492.15   -16052.353    1236.9176   -17289.271    21.371486    1.1252403 
    6400    243.90986   -361.73977    165492.15   -16039.069    1227.2587   -17266.328    21.586249    1.1252403 
    6500    235.37378    -644.8799    165492.15     -16061.3    1184.3084   -17245.608    22.206237    1.1252403 
    6600    233.09076   -431.85151    165492.15   -16088.228    1172.8212    -17261.05    22.536401    1.1252403 
    6700    234.16156   -347.75236    165492.15   -16123.794     1178.209   -17302.003    22.661275    1.1252403 
    6800    229.47462   -473.68145    165492.15   -16097.449    1154.6262   -17252.075    22.900812    1.1252403 
    6900     235.3997   -489.69786    165492.15   -16127.456    1184.4389   -17311.895    23.426069    1.1252403 
    7000    234.89753    -460.0081    165492.15   -16136.562    1181.9121   -17318.474    23.583565    1.1252403 
    7100    242.30039   -438.63518    165492.15   -16065.886    1219.1604   -17285.047    24.088863    1.1252403 
    7200    233.66105   -539.17751    165492.15     -16071.1    1175.6907   -17246.791    24.179618    1.1252403 
    7300    235.23479   -430.67267    165492.15   -16126.137    1183.6091   -17309.746    24.510403    1.1252403 
    7400    241.55429   -375.45566    165492.15   -16138.695    1215.4064   -17354.101    24.851233    1.1252403 
    7500    228.70416   -456.57917    165492.15   -16154.476    1150.7495   -17305.225    25.101805    1.1252403 
    7600    235.24053   -651.67784    165492.15   -16161.882     1183.638    -17345.52    25.615189    1.1252403 
    7700    227.92519   -320.90766    165492.15    -16136.51    1146.8301    -17283.34    25.984955    1.1252403 
    7800    235.89452   -392.06241    165492.15   -16080.931    1186.9286    -17267.86    26.121468    1.1252403 
    7900    241.35357   -321.08081    165492.15   -16078.201    1214.3964   -17292.597     26.66409    1.1252403 
    8000    240.65095   -504.95073    165492.15   -16073.425    1210.8611   -17284.286    27.095258    1.1252403 
    8100    244.13592   -661.31529    165492.15   -16101.998    1228.3961   -17330.394    27.022118    1.1252403 
    8200    238.56614   -508.70547    165492.15   -16138.891    1200.3711   -17339.262    26.780764    1.1252403 
    8300    235.96356   -445.26519    165492.15   -16157.465     1187.276   -17344.741    26.844815    1.1252403 
    8400    237.66696   -641.51265    165492.15   -16140.803    1195.8468    -17336.65    26.619549    1.1252403 
    8500    245.14157   -431.29593    165492.15   -16161.307    1233.4561   -17394.763    26.600797    1.1252403 
    8600    232.40327   -516.55188    165492.15   -16095.527     1169.362   -17264.889    27.066777    1.1252403 
    8700    240.07284   -611.41566    165492.15   -16145.543    1207.9523   -17353.495    27.203264    1.1252403 
    8800    241.82493   -306.92104    165492.15   -16092.007    1216.7681   -17308.775     27.59369    1.1252403 
    8900    228.46368    -399.7831    165492.15   -16100.271    1149.5395    -17249.81    27.695574    1.1252403 
    9000    246.64085    -424.7112    165492.15   -16060.964    1240.9999   -17301.964    28.171767    1.1252403 
    9100    240.65839   -453.00085    165492.15   -16052.721    1210.8985   -17263.619    28.448623    1.1252403 
    9200    241.14014   -603.97806    165492.15   -16094.821    1213.3225   -17308.143    28.712356    1.1252403 
    9300    236.11026   -315.74306    165492.15   -16132.203    1188.0141   -17320.217    28.800222    1.1252403 
    9400    230.29598   -205.15878    165492.15   -16160.356     1158.759   -17319.115    28.810753    1.1252403 
    9500    241.02741   -298.97146    165492.15   -16114.023    1212.7553   -17326.778     29.38801    1.1252403 
    9600    232.13338   -353.41456    165492.15   -16168.661     1168.004   -17336.665    29.756592    1.1252403 
    9700    234.21416    -393.9652    165492.15    -16142.54    1178.4737   -17321.014    30.412267    1.1252403 
    9800    234.60671   -287.07277    165492.15   -16146.995    1180.4488   -17327.443    30.637486    1.1252403 
    9900    239.65404   -465.78543    165492.15   -16109.135     1205.845    -17314.98    30.888518    1.1252403 
   10000    248.94065   -337.93408    165492.15   -16040.592    1252.5716   -17293.164    31.306216    1.1252403 
Loop time of 10.2093 on 64 procs for 10000 steps with 8493 atoms

Performance: 423.144 ns/day, 0.057 hours/ns, 979.500 timesteps/s
100.0% CPU use with 64 MPI tasks x no OpenMP threads

MPI task timing breakdown:
Section |  min time  |  avg time  |  max time  |%varavg| %total
---------------------------------------------------------------
Pair    | 0.0016853  | 3.5962     | 7.9401     | 154.2 | 35.22
Neigh   | 0.0081044  | 0.23904    | 0.49839    |  36.9 |  2.34
Comm    | 1.0832     | 4.2707     | 7.8966     | 108.1 | 41.83
Output  | 0.15471    | 0.15478    | 0.15551    |   0.0 |  1.52
Modify  | 0.33735    | 1.8406     | 7.6043     | 158.3 | 18.03
Other   |            | 0.108      |            |       |  1.06

Nlocal:    132.703 ave 257 max 0 min
Histogram: 16 0 7 9 0 0 0 1 20 11
Nghost:    925 ave 1147 max 648 min
Histogram: 4 11 1 0 3 18 11 0 3 13
Neighs:    0 ave 0 max 0 min
Histogram: 64 0 0 0 0 0 0 0 0 0
FullNghs:  13928.8 ave 30256 max 0 min
Histogram: 16 16 0 0 0 0 0 10 11 11

Total # of neighbors = 891442
Ave neighs/atom = 104.962
Neighbor list builds = 565
Dangerous builds = 0
write_data 	    ${DIR}/data.${NAME}_eq
write_data 	    run_13/data.${NAME}_eq
write_data 	    run_13/data.ibeam_cooling_13_eq

undump              1
unfix               4



################################################
#######         Run Simulation         #########
################################################

reset_timestep      0
timestep	    10.0
log                 ${DIR}/log.run_${NAME}
log                 run_13/log.run_${NAME}
log                 run_13/log.run_ibeam_cooling_13
