LAMMPS data file via write_data, version 7 Aug 2019, timestep = 200000

4090 atoms
1 atom types

2.2779976311754524e-01 5.1192200236882016e+01 xlo xhi
2.2779976311754524e-01 5.1192200236882016e+01 ylo yhi
2.2779976311754524e-01 5.1192200236882016e+01 zlo zhi

Masses

1 18.15

Atoms # atomic

990 1 8.8429665740368648e+00 2.2988618988045985e+01 6.9321455177863511e-01 0 0 1
1866 1 3.6353502467544785e+00 1.7014946096703103e+00 1.9203333420698756e+00 0 1 1
1815 1 6.2728893669570498e+00 3.1763567876093295e+00 2.3219082975353653e+00 0 1 1
982 1 7.3638415927971659e+00 1.4210810828473353e+01 2.9127525408238969e-01 0 0 1
3150 1 1.3009316514510887e+01 1.8196386299162672e+00 2.9063971248763756e+00 0 1 0
4023 1 1.4319914785914118e+01 2.4454846552668923e+00 5.6281030733044748e+00 1 1 1
1275 1 2.5603449141317235e+01 1.2770405454681809e+01 5.4685255707242701e+00 0 1 0
717 1 8.9132122876571784e-01 1.4958670969897225e+01 2.0622810343924147e+00 0 0 1
1902 1 1.6204254916673737e+01 1.1069012705750277e+01 4.5259584819762333e-01 0 1 1
1525 1 2.4023751352728986e+01 3.5534381138691100e+00 3.2227681943710760e+00 0 0 0
1485 1 1.7240383009405065e+01 2.7407231767631037e+00 1.1463943750806709e+00 0 1 1
272 1 8.6154553085353025e-01 1.3779881052418352e+01 1.0131835801610682e+01 0 0 0
1037 1 1.1189129053721388e+01 2.4236415261288023e+01 5.2737534273874251e+00 0 0 0
3254 1 5.2251377884318666e+00 6.7459408298204648e-01 1.5358445395159285e+01 1 1 0
1049 1 8.3021693158938845e+00 7.4807706932748932e+00 2.8563893104445808e+00 0 1 0
115 1 1.1881148524124246e+01 3.7053880224831839e+00 1.2310741008835520e+00 0 0 0
1147 1 1.4222253746807731e+01 4.8503868199045437e+00 4.8317036047857460e+00 0 1 0
844 1 1.5251908584807357e+01 5.8503329219209119e+00 2.1749362786930262e+00 0 0 1
113 1 1.9040745918135300e+01 4.8215255350979476e+00 1.5053866552867061e+00 0 0 0
13 1 1.7351675051649636e+01 6.6449529668723422e+00 1.6544591475495675e+01 0 0 0
2058 1 1.7675210749732788e+00 8.3676276832136249e+00 1.6092736479860337e+00 1 0 0
1280 1 2.9303465687033134e+00 5.8718211505998346e+00 2.4271901322872647e+00 0 1 0
1792 1 5.9926733116510666e+00 5.9569020077661117e+00 2.4126545502673422e+00 1 1 1
1933 1 7.0589603117320951e+00 1.0035742409939187e+01 2.3028767472605276e+00 0 1 1
3775 1 1.1061099485853413e+01 2.4547604454001050e+01 5.8710810659961077e-01 1 0 0
1846 1 1.0790878069772999e+01 9.5476140731482211e+00 1.8877124769393165e+00 0 1 1
795 1 1.4117152853643967e+01 9.7641666329453045e+00 3.1581526867274774e+00 0 0 1
922 1 1.7551633130162326e+01 7.3655099987788333e+00 2.5926052974131255e+00 0 0 1
2893 1 2.2371925782841934e+01 6.4064802027320589e+00 2.4391864570978701e+00 0 0 1
19 1 1.4558454995201331e+00 1.2668787453958227e+01 6.2379980415759573e-01 0 0 0
2561 1 8.8185432502912136e+00 1.2264093766159604e+01 1.4033577095601153e+00 0 0 1
2933 1 1.8058239717250679e+01 2.5641885101436635e+01 1.2957956194483030e+01 0 0 1
2942 1 1.1078616655503339e+01 1.3598313996266318e+01 2.1813192254924325e+00 1 0 1
3597 1 1.7663620148913097e+01 1.2338852399277384e+01 3.6802370937289868e+00 0 1 1
3491 1 1.6625703942761326e+01 9.9948866152815423e+00 2.7191990298487760e+00 1 1 0
3096 1 2.0204943755727992e+01 8.1238348802474718e+00 1.9705653246791448e+00 0 1 0
3322 1 2.0358981050536755e+01 1.2644154136387222e+01 3.6939929789506203e+00 1 1 0
1427 1 1.5539016960176312e+01 1.3637208451612075e+01 1.7486042052044852e+00 0 1 0
2007 1 4.6727228098493869e+00 1.2696159503790771e+01 2.6934704392678546e+00 0 0 1
1807 1 1.8649002117106253e+01 1.9096652033225663e+01 1.7653124389170847e+00 0 0 1
3666 1 2.3634707798413203e+01 4.9907908980959620e-01 1.3736075059241895e+01 0 1 0
2704 1 1.1304862137825664e+01 1.5816750650477847e+01 6.7435242546821628e-01 1 0 1
1104 1 1.7765527641623645e+01 1.5350095040848734e+01 1.6798533416010148e+00 0 1 0
585 1 2.0693822605253306e+01 1.4578180250188998e+01 1.8316367417755719e+00 0 0 1
819 1 1.9275453786579774e+01 2.1359892752540958e+01 1.4141602456230219e+01 0 0 1
779 1 2.3181676378541631e+01 1.3622895886511143e+01 1.0650526170493499e+00 0 0 1
876 1 2.4854994189508581e+01 1.4050134617890329e+01 3.1371419542136088e+00 0 0 1
1644 1 2.1319209692862824e+00 1.7430355358408576e+01 1.4098201044073522e+00 0 1 0
2224 1 2.2842867382900288e+01 1.1354212104693873e+00 2.5498637601978769e+00 0 0 0
729 1 7.0248535862643289e+00 1.6909430140405515e+01 1.5676418104423078e+00 0 0 1
1009 1 1.2036120642665857e+01 1.7707294123226269e+01 2.2955249662783479e+00 1 0 1
796 1 1.4831714359478825e+01 1.8811922060855768e+01 1.7530027755823305e+00 0 0 1
2939 1 5.2600426637613760e+00 2.5531197073563952e+01 6.2716745550512449e+00 0 0 1
148 1 2.3194726641529009e+01 1.7186446088959276e+01 1.9010626953595411e+00 0 0 0
2083 1 1.9331908517556626e+00 1.9354251118794252e+01 3.3761718336111906e+00 0 0 0
882 1 1.7752987972833798e+00 2.1655885244495927e+01 1.6456763948320245e+00 1 0 1
188 1 6.7338280472214240e+00 2.0519183448393150e+01 4.0038836226532730e+00 0 0 0
847 1 8.2512988812035104e+00 1.9137859082134902e+01 2.4535220751918780e+00 0 0 1
3616 1 1.0280890001921501e+01 1.9196889108577661e+01 4.0731786123046376e+00 1 0 0
927 1 2.4972852112762641e+01 1.6724362885664394e+01 3.9053182260318935e+00 0 0 1
170 1 2.1694489025080379e+01 2.4992382756638793e+01 1.4865919823669203e+00 0 0 0
2115 1 1.7111878162373966e+01 2.1411473478119245e+01 2.2186370605423802e+00 0 0 0
2085 1 1.0684634246518643e+00 1.5765548812823466e+01 1.4138165152095459e+01 1 0 0
407 1 2.0627318528583832e+01 2.0068899984272011e+01 4.6882272911733320e+00 0 0 0
2201 1 6.2213002201294687e+00 9.5675651638803816e-01 6.5860090679469350e+00 0 0 0
116 1 5.8139441868750747e+00 2.1833745360465926e+01 1.4389944747983675e+01 0 -1 0
1154 1 6.4744567868669103e+00 2.2753274267622881e+01 2.3986633177143308e+00 0 1 0
825 1 8.2138078155003136e+00 2.3958922026113385e+01 4.2983219103747299e+00 1 0 1
3298 1 2.3120538647856954e+01 1.0866657560237305e+01 1.6076393777312130e+00 0 1 0
1180 1 1.3897498096521124e+01 2.1345204286477536e+01 2.4096364270921060e+00 0 1 0
1473 1 1.4716950580701658e+01 2.4415690782737308e+01 2.8102970826742362e+00 0 0 1
1829 1 1.8256041056988725e+01 2.5377285262690275e+01 2.8714586251767491e+00 -1 0 1
887 1 2.2556163782871305e+01 2.0807935553069449e+01 2.4165150237474724e+00 0 0 1
3571 1 2.5199390273374508e+01 1.8853415349936881e+01 5.8295521176319163e+00 0 1 0
262 1 2.4872385100065188e+01 1.9490414380697519e+01 5.3418356278828394e-01 0 0 0
109 1 1.5470710722271242e+01 2.5269738119295049e+01 1.5625975127059753e+01 0 0 0
2749 1 2.7514720515658886e+00 1.8382965086239991e+00 6.3158529103040308e+00 1 0 1
722 1 1.9874935130164033e+01 2.5316957088531240e+01 7.2950409974843975e+00 0 0 1
3088 1 8.3080863063558361e+00 2.8299478028580864e+00 4.0603060742951564e+00 1 1 0
3955 1 1.2279420491385276e+01 9.1889155900078046e-01 6.5515117267613547e+00 1 1 1
1860 1 8.9851140951102977e+00 6.2969446551080432e+00 1.6626179907813803e+01 1 1 1
1239 1 1.8613716861018776e+01 1.8906528993126290e+00 5.9915806397462061e+00 0 1 0
1705 1 2.5320295431791820e+01 2.3278336013841807e+00 5.4095818952465864e+00 0 1 1
1362 1 2.0166314577490017e+01 1.1372731192590806e+00 2.4053692223034120e+00 0 1 0
2675 1 1.5954356750001599e+01 1.9350502225748905e+01 1.6533208283263740e+01 0 0 0
837 1 1.9052279596344253e+00 4.3676709276202415e+00 5.9648780541909936e+00 0 0 1
1540 1 6.7764565818029396e+00 5.4096798176719334e+00 5.5935275774220754e+00 0 0 0
2336 1 1.0065851846822451e+01 4.8420696449654468e+00 3.2703847033490416e+00 1 0 0
678 1 1.1763248972040966e+01 6.0214203477249963e+00 5.0360237816069553e+00 0 0 1
1520 1 1.6065619007235121e+01 5.6715160943852574e+00 6.3846816531257664e+00 0 1 1
1521 1 1.9598490759849394e+01 4.0420572276969295e+00 4.3409565725517432e+00 0 1 1
380 1 2.1927297232602886e+01 4.7559406845549574e+00 4.8699376113492869e+00 0 0 0
325 1 4.0364058324724148e+00 6.4514050833364509e+00 5.2409240349023936e+00 0 0 0
3526 1 6.8529042478380422e+00 9.9594003583352766e+00 6.9413971736986237e+00 1 0 0
2883 1 8.3349310568339536e+00 7.8780043406770650e+00 5.5158233780619534e+00 0 0 1
908 1 1.1928817510586388e+01 8.9566855594940051e+00 4.7768213393377241e+00 0 0 1
2087 1 1.8252340525596008e+01 6.2761136175953274e+00 4.8942296348190402e+00 1 0 0
944 1 2.1816796364317771e+01 6.8839745426958272e+00 6.8037439099417014e+00 0 1 1
3842 1 2.4904726814974552e+01 7.2544486650871782e+00 2.9768037296630552e+00 0 1 1
2374 1 2.5142699547159843e+01 8.3437338766567919e+00 5.6160733052482730e+00 0 0 0
4011 1 4.2183461040867432e+00 9.1637156180833141e+00 5.2996358629951548e+00 1 1 1
2341 1 1.2954282626609106e+00 1.0947238464107322e+01 2.8692242834386605e+00 1 0 0
2954 1 4.1190726588931454e+00 9.9607107256605794e+00 2.9699383899497018e+00 1 0 1
181 1 1.3939428272119132e+01 1.2036403398049465e+01 4.8161686747557324e+00 0 0 0
1171 1 1.9236014435938429e+01 9.8196145031250150e+00 6.3429914809873367e+00 0 1 0
2794 1 2.1224688213734275e+01 1.0145871314289165e+01 3.6451273002806603e+00 0 0 1
2059 1 1.9625779433016222e+00 1.2421879343845912e+01 5.9665068314001521e+00 1 0 0
1604 1 3.0143395872756957e+00 1.4234521819103323e+01 3.8256906288884576e+00 0 0 1
2976 1 7.3002991008722988e+00 1.2786033721798800e+01 3.8721374389083016e+00 1 0 1
1222 1 7.4344314900400619e+00 1.5483043764335156e+01 4.0848738501496822e+00 0 0 0
777 1 9.4246061472560445e+00 1.5370525573220831e+01 5.8422307652336016e+00 0 0 1
3168 1 1.5155526047734115e+01 1.4611022518913215e+01 4.3149097423374885e+00 0 1 0
767 1 1.1175986254043080e+01 1.4051035639903253e+01 4.7066060825868918e+00 0 0 1
2813 1 1.7576404818368992e+01 1.3891755718236835e+01 5.9117555409418099e+00 0 0 1
1208 1 2.5376929314272036e+01 9.5041417140092594e+00 1.2422869951313309e+00 0 0 0
2169 1 2.1245225573072165e+01 1.3698496176648742e+01 5.8572159614879808e+00 0 0 0
885 1 2.4816683322375393e+01 1.8047080242514369e+01 1.4009448268390948e+01 1 0 0
3565 1 3.5149701607954359e-01 6.5908004428779883e+00 9.9013915671197115e+00 1 0 0
720 1 4.4921117688896022e+00 1.6534071857128083e+01 4.7316994823581142e+00 0 0 0
1636 1 6.2229458062023699e+00 1.6721693847433389e+01 7.0136557168403533e+00 0 1 1
2965 1 1.2991506643050606e+01 1.6340396063806143e+01 4.5489883163436042e+00 1 0 1
832 1 1.1022873136360252e+01 1.7578809591040716e+01 6.2241686253362278e+00 0 0 1
239 1 1.6851429092676547e+01 1.7386148552205956e+01 3.5450826281097658e+00 0 0 0
2290 1 1.8903837188229772e+01 1.6170281857043282e+01 5.2976833391175004e+00 0 0 0
894 1 2.0797312142292427e+01 1.7228227344394252e+01 3.0643404051507455e+00 0 0 1
1423 1 1.0717910629748721e+01 2.3111221425433467e+01 1.4971705035409487e+01 0 0 0
162 1 2.2012771869705929e+01 1.6260118303531438e+01 5.6535029757749493e+00 0 0 0
563 1 2.2730910249067438e+01 1.7466118657434496e+01 8.4643560721868756e+00 0 0 0
3209 1 2.8712336689675144e+00 2.0900407398335066e+01 6.4494922312784704e+00 0 0 0
3335 1 4.3313596091052551e+00 1.9367604908198953e+01 4.9674889626250165e+00 1 0 0
309 1 8.4713880868856890e+00 2.0380103785125755e+01 6.2481753078851474e+00 0 0 0
508 1 1.1954250298103748e+01 2.1717128534099739e+01 4.5090819216559419e+00 0 0 0
52 1 1.4728892442862648e+01 1.8080670985680690e+01 5.5739570656354349e+00 0 0 0
3068 1 1.5264849708067926e+01 1.7914089167400508e+01 8.4344152678948792e+00 0 0 0
258 1 1.9523632010240217e+01 2.2435701926212811e+01 5.9871707970398598e+00 0 0 0
497 1 2.2724965391007316e+01 1.9799670589658444e+01 6.8640579761855030e+00 0 0 0
41 1 2.7243521047801242e+00 1.3502382112423280e+01 1.6630999841461506e+01 0 0 0
1159 1 2.5171729346094569e+00 2.3447686444664626e+01 5.1671386550043419e+00 0 0 0
3310 1 2.1535222260815615e+01 2.4844596894586882e+01 9.5417782447809216e+00 0 0 0
3308 1 4.5246529935176154e+00 2.4339500376716568e+01 3.8715444061711017e+00 1 0 0
1690 1 1.4700571781360614e+01 2.0798859276236630e+01 5.6274066688382440e+00 0 1 1
2979 1 7.5942382034528655e-01 1.0572555386325858e+01 1.4073118746606822e+01 1 0 1
1149 1 1.5443707672625163e+01 2.3655279049339399e+01 5.6141768111717925e+00 0 0 0
282 1 1.7618144342038509e+01 2.3128040002971055e+01 3.9814333706321445e+00 0 0 0
2468 1 2.2537241869258857e+01 2.3730752732015322e+01 5.9660178400645902e+00 0 0 0
1095 1 1.2972341270350240e+01 1.9017134454264355e+01 1.5520977337789862e+01 0 1 0
1500 1 2.3873889106946919e+01 1.0751591079041233e+01 1.6228718900424671e+01 0 1 0
2164 1 5.7977713749253068e+00 3.5778775416857989e+00 9.6599900107186549e+00 1 0 0
1357 1 6.2099823781368180e-01 2.3540875003487916e+01 3.1650499637073644e+00 0 0 0
998 1 9.2995285958676490e+00 1.8596224628919036e+00 9.9098959392017196e+00 0 0 1
1356 1 1.1737122415548308e+01 2.2212279624458890e+00 8.9577844677434193e+00 0 1 0
2570 1 5.5244463437378419e+00 1.3503241901302061e+01 1.6818712312122120e+01 1 0 0
2327 1 7.2946829602378189e+00 2.3743771111226067e+01 1.5852249440164822e+01 1 0 0
462 1 2.3266062378524303e+01 2.9526532740237981e+00 7.3527110570970393e+00 0 0 0
335 1 1.9830554473246103e+00 4.7901413334137475e+00 8.5335286139678139e+00 0 1 0
1305 1 7.6693656305674978e+00 3.2586025740180937e+00 7.5236306699756952e+00 1 1 0
1407 1 4.7179408981875861e+00 5.8363334845158628e+00 8.2250786977461683e+00 0 1 0
2997 1 9.6305664357112253e+00 5.3345876700371262e+00 9.2228525760297941e+00 1 0 1
516 1 1.2516841350854937e+01 4.6935977605789381e+00 7.8509708024873124e+00 0 0 0
2950 1 1.4086709803290567e+01 6.3512370835772201e+00 9.2333846691913664e+00 1 0 1
1153 1 1.6367179343335817e+01 2.9037836530198202e+00 7.3650178182144819e+00 0 1 0
85 1 1.7129260933741154e+01 3.8561514132354926e+00 9.9153227780935893e+00 0 0 0
83 1 2.0314106568609684e+01 1.8369447256850369e+00 8.3462972278857013e+00 0 0 0
962 1 2.0996317841460478e+01 4.2670883697283495e+00 1.0057024039752635e+01 0 0 1
1108 1 2.6367379791424366e+00 1.2288169979604913e+01 1.4224356760207042e+01 0 0 0
436 1 4.7094442145848410e+00 7.6597586803030691e+00 1.0152904230334157e+01 0 0 0
3727 1 1.0417210529867978e+01 7.4433904116322047e+00 7.3922177236721689e+00 0 1 1
219 1 1.1410924629214048e+01 9.6244186515701955e+00 9.0723008776901661e+00 0 0 0
1791 1 1.5880646679544542e+01 8.3304098066063421e+00 8.0813119691781203e+00 0 1 1
2261 1 1.9084345145859714e+01 7.3855719450451369e+00 7.3284050916184666e+00 0 0 0
110 1 2.4171257923123040e+01 7.8743930175768257e+00 9.6057378869920456e+00 0 0 0
3415 1 1.9705356759863422e+00 9.9964008924973609e+00 7.2110968529843387e+00 1 1 0
231 1 2.5723441878920097e+00 1.0783561684475320e+01 9.7986113322440005e+00 0 0 0
2183 1 6.5124312770520936e+00 9.7195031773311094e+00 9.6277766095782198e+00 1 0 0
1247 1 8.4073823704766770e+00 1.1699199865675384e+01 6.1169319370697437e+00 0 0 0
451 1 1.1301484375731414e+01 1.1321584464666142e+01 6.1656083617611621e+00 0 0 0
2280 1 1.2765109289956847e+01 1.1852195336671507e+01 8.5450997308716108e+00 1 0 0
420 1 1.6183847813804817e+01 1.0698627732849193e+01 6.5277876970294164e+00 0 0 0
117 1 1.5605827062546414e+01 1.2343121532552468e+01 8.5903913851542661e+00 0 0 0
330 1 1.9630793453746687e+01 1.0855209321713868e+01 8.8956101935621827e+00 0 0 0
855 1 2.2759718369739758e+01 9.4106755566148301e+00 6.1391171922734067e+00 0 0 1
1453 1 2.2776765230773609e+01 1.0085696570567329e+01 9.5359313734615885e+00 0 1 0
2338 1 2.3236194077460318e+01 1.2200733853648442e+01 6.9568575508491071e+00 0 0 0
149 1 4.1589387148860535e-01 1.5653630225670470e+00 1.6274236530224250e+01 0 0 0
1576 1 2.5629226768733524e+00 1.3882491951819755e+01 8.0236677999110011e+00 0 1 0
2052 1 4.9112732410954099e+00 1.1898158810246931e+01 1.0515032467136264e+01 1 0 0
997 1 5.2941860578544357e+00 1.3558811216655432e+01 8.6078477070655772e+00 0 0 1
3938 1 7.9938333063991820e+00 1.3989841582947436e+01 7.9224592955804418e+00 1 1 0
530 1 1.6015192707550767e+01 1.4997478319294654e+01 8.3564932351155612e+00 0 0 1
2553 1 1.9528617226265819e+01 1.3269386487420483e+01 7.7719777869314415e+00 1 0 0
2894 1 1.9257676427713744e+01 1.5169302017220787e+01 9.6394866962657151e+00 0 0 1
1212 1 2.4342557963182596e+00 1.6529257319386016e+01 6.6112606147169419e+00 0 0 0
24 1 3.4471273138729908e+00 1.8261431300136408e+01 8.6611348250940416e+00 0 0 0
3030 1 4.9243461769929500e+00 1.5979639810851962e+01 9.6702472601862492e+00 0 0 1
2811 1 7.5758344106861921e+00 1.8813967765296884e+01 8.0756888545730838e+00 1 0 1
3022 1 1.0577998600048909e+01 1.8330176164570997e+01 8.6061966193031552e+00 0 0 1
1433 1 1.3872899403840503e+01 1.6922300213720618e+01 1.1651507618833634e+01 0 0 0
1039 1 1.3079895406760796e+01 1.6408772822439776e+01 9.1717157643624905e+00 0 0 0
611 1 1.6886952352610351e+01 1.4371644897391826e+01 1.0860751370474947e+01 1 0 0
3127 1 1.7829415730522030e+01 1.8917635238146019e+01 9.1556652125383842e+00 0 0 1
2428 1 1.9620567391819403e+01 1.7192484928620594e+01 7.8587144502747375e+00 0 0 0
209 1 2.4651168893006449e+01 1.5350955986590709e+01 8.3518729502195512e+00 0 -1 0
936 1 9.2227022894207522e+00 2.0487629479245836e+01 5.0594452310114302e-01 0 0 1
3733 1 1.8593077232598569e+00 1.8346565087764514e+01 1.0637304452504331e+01 1 0 0
1958 1 2.1049592824564492e+01 1.6124644151119391e+01 1.6268440877848398e+01 0 0 1
1007 1 5.2639585822785140e+00 2.0224822166565307e+01 8.4782675945491501e+00 0 0 1
177 1 4.9228361755237424e+00 2.3064926084604178e+01 7.8131414232773997e+00 0 0 0
2127 1 1.0971866943901928e+01 2.1317596288807632e+01 7.4229518660832969e+00 0 0 0
248 1 1.3472114463941885e+01 2.0350596436080899e+01 8.3780015480633132e+00 0 0 0
723 1 1.9362267552540569e+01 2.1087771280139734e+01 8.1174282181412885e+00 0 0 1
1408 1 1.7291568717515606e+01 2.2419460235118894e+01 1.0199651369496671e+01 0 0 0
1008 1 2.3669033578341399e+01 2.2312216858646060e+01 7.7946345513482918e+00 0 0 1
3713 1 2.3170991487409452e+01 1.9275323047865726e+01 1.0618972708730579e+01 0 1 0
970 1 1.0968412045236795e+01 6.8918458186418787e+00 7.6708201255600361e-01 0 0 1
664 1 3.6362931962117222e+00 2.3954697853040781e+01 1.0217461182012896e+01 0 0 0
1532 1 7.4676626572243761e+00 2.2805318650981668e+01 6.8292138803460887e+00 0 0 0
224 1 9.4144084529296865e+00 2.3789846769329465e+01 8.6925153854050485e+00 0 0 0
2321 1 1.3500499881630555e+01 2.4739275406909538e+01 9.3275994765422521e+00 1 0 0
1737 1 1.5028654029908763e+01 2.2496962218393953e+01 8.5265757658036208e+00 0 0 1
741 1 1.3183780974383726e+01 1.1677187218875604e+01 1.0357724332261846e+00 0 0 1
2036 1 2.1505183434619845e+01 2.1772660640116936e+01 9.6761930436865669e+00 0 0 0
2739 1 1.9291025904918164e+00 2.4364773264906008e+00 9.9398379374333850e+00 1 0 1
1022 1 1.2193447465197382e+01 2.5546032577309209e+01 3.2024259765106033e+00 0 0 0
1412 1 3.8750532896541459e+00 3.0978287796722506e+00 1.1852366171178099e+01 0 1 0
105 1 9.6478975954560493e+00 2.9941417143452069e+00 1.2480169122098069e+01 0 0 0
4007 1 1.2111193275045661e+01 3.9947466433449699e+00 1.3374568502110769e+01 0 1 1
326 1 1.3588272562234543e+01 1.9224641540359475e+00 1.1034315895031801e+01 0 0 0
1176 1 1.8975394425587961e+01 1.3460290896393952e+00 1.3162685356540885e+01 0 1 0
2330 1 1.8501473265683064e+01 1.4336696325911766e+00 1.0370994127867689e+01 0 1 1
358 1 1.5247652664517364e+01 7.1941217298701743e-01 9.1973593349041654e+00 0 0 0
12 1 7.0778590430280257e+00 4.2090757473019877e+00 1.1977015797882341e+01 0 0 0
2199 1 1.4744296221086884e+01 4.4832726001476519e+00 1.0878242850766750e+01 1 0 0
2805 1 1.9686008063209595e+01 3.7570938427840512e+00 1.4309904988424893e+01 0 0 0
3270 1 2.1608149518088787e+01 4.5979858806879763e+00 1.2812222271415816e+01 1 1 0
7 1 2.3070774921927089e+01 5.4215862086913926e+00 9.0821475257307647e+00 0 0 0
263 1 2.3937229647536817e+00 8.3392380849299812e+00 1.0951811892524479e+01 0 0 0
2222 1 5.4382430868851994e+00 6.7357357825465023e+00 1.2687098782600032e+01 1 0 0
954 1 9.4925525960455843e+00 8.9119815307949839e+00 1.2987877516539470e+01 0 0 0
3147 1 1.2310427625768277e+01 7.7654539678595107e+00 1.0855240900430243e+01 1 0 0
2103 1 1.6119827458492367e+01 8.6360575241067412e+00 1.1792648645160067e+01 1 0 0
473 1 1.8888250908073569e+01 5.9658553189286954e+00 9.5818552283244678e+00 0 0 0
3265 1 2.0789249455242526e+01 9.6162794126968887e+00 1.1608718498821387e+01 0 1 0
3027 1 2.4740649985546636e+01 8.4096225716579394e+00 1.2132118562357242e+01 0 0 1
2944 1 2.5597483436927778e+01 4.2231139525038763e+00 9.6016953477877163e+00 0 0 1
1854 1 9.0415888631018966e+00 1.0426451312760884e+01 1.0584638918953758e+01 0 1 1
439 1 1.3737105976928586e+01 9.0459431165784778e+00 1.3002819336451115e+01 0 0 0
485 1 1.7267163129964384e+01 1.0586641368149129e+01 1.0142287220060167e+01 0 0 0
601 1 1.9775821780513770e+01 1.0556865627579141e+01 1.4333112355335833e+01 0 0 0
3202 1 2.4110832919061661e+01 1.2837865008778030e+01 9.6999112640875431e+00 0 1 0
1461 1 2.5496661061098678e+01 1.4809281505659786e+00 9.8069828838514308e+00 0 0 0
1510 1 1.6688062531527248e+01 2.5165670704267654e+01 1.0648652340493232e+01 0 0 1
3203 1 3.1848563119577826e+00 1.4119236088882252e+01 1.2139738816324549e+01 1 1 0
3699 1 6.7288815290109643e+00 1.3167031664787814e+01 1.2511683851233101e+01 1 0 0
952 1 9.5236238429863604e+00 1.2456162836687080e+01 1.1916386805922444e+01 0 0 1
1410 1 9.3391529087697478e+00 1.4572560556819990e+01 1.0134790794081388e+01 0 0 0
4006 1 1.2109452075707061e+01 1.4014190231304259e+01 1.0012148362809935e+01 0 0 0
800 1 1.7386134217137048e+01 1.2153855240636817e+01 1.2651391459083737e+01 0 0 1
492 1 1.9279029165429836e+01 1.4624171328478273e+01 1.3723100194098771e+01 0 0 0
1300 1 2.0948958567172731e+01 1.5841004546132039e+01 1.1826216434980470e+01 0 1 0
306 1 2.3034826392958426e+01 1.4026585189426896e+01 1.2034555881693933e+01 0 0 0
386 1 6.1880532374579147e+00 1.7867289358132322e+01 1.1598001250203211e+01 0 0 0
1250 1 9.0177428549899066e+00 1.7431677662739105e+01 1.0888827541488416e+01 0 0 0
884 1 1.6340259568118192e+01 1.6444959874846351e+01 1.2582473989618915e+01 0 0 1
171 1 1.7944936959837811e+01 1.8396331431433133e+01 1.2135236503004812e+01 0 0 0
4 1 2.0299161504189208e+01 1.7857994243763564e+01 1.4013681068738919e+01 0 1 0
2214 1 2.5353764358595114e+01 1.5828096531703963e+01 1.2133121654452509e+01 0 0 0
1228 1 2.7962242853535160e+00 2.2003453339164849e+01 1.3442390481544953e+01 0 0 0
3608 1 2.2750645597784507e+00 2.1416216817220441e+01 1.0966014405110640e+01 1 0 0
3323 1 5.1464247601731206e+00 2.0392319102323913e+01 1.1055617679964213e+01 1 0 0
1080 1 1.0500763183547042e+01 1.8523620280902183e+01 1.3030426757289078e+01 0 0 0
2773 1 1.2935347410742535e+01 1.9585210321132266e+01 1.1329477155939440e+01 1 0 0
2178 1 1.4263952843372351e+01 2.0631932986159683e+01 1.3603723029030460e+01 1 0 0
3496 1 1.6945479186341355e+01 2.0942640223453559e+01 1.2448813089703064e+01 0 1 0
225 1 2.2480267942232672e+01 1.9045041479630751e+01 1.3057376168343160e+01 0 0 0
255 1 2.1477408449314630e+01 2.2139992220647887e+01 1.2424732333057431e+01 0 0 0
2004 1 1.9689194721998189e+00 2.5050778394659705e+01 1.2886689935645750e+01 0 0 0
1746 1 1.0423262643394855e+01 1.3524882090099235e+01 1.6740514523682567e+01 0 0 1
672 1 6.3292508534787375e+00 2.4408047213547800e+01 1.1655313372471200e+01 0 0 0
1210 1 7.5805290343329315e+00 2.1852045354484332e+01 1.1675878156456653e+01 0 0 0
136 1 1.0551698153990889e+01 2.1369564821973636e+01 1.0673173147703842e+01 0 0 0
1200 1 1.2062909163454430e+01 2.3927186865862161e+01 1.1204350165737328e+01 0 0 0
1647 1 1.3446011432780375e+01 2.3416621595990811e+01 1.3651979664047994e+01 0 0 0
1251 1 1.7162164754985685e+01 2.3520311995503221e+01 1.4309260307485632e+01 0 0 0
334 1 1.4523021855685723e+01 1.6593038785679898e+01 1.5693327335003730e+01 0 0 0
1198 1 2.0737540662639933e+01 2.5205672940474333e+01 1.1997983975229609e+01 0 0 0
642 1 3.0248239837735844e+00 2.3441103436748407e+00 1.5977598608753002e+01 0 0 0
2415 1 2.4611925639648259e+01 4.7197710137831956e+00 1.6734473897017892e+01 0 0 0
114 1 9.1648579417694300e+00 1.0237202877904013e+00 1.3936998688460219e+01 0 0 0
3700 1 7.8184607989544794e+00 1.9428246070626018e+00 1.5835242763329306e+01 1 1 0
760 1 1.2231552593885255e+01 1.1479324616830384e+00 1.4534787206704657e+01 0 0 1
2170 1 1.5713406496938919e+01 3.1532092172628987e+00 1.5511459679474148e+01 0 0 0
1365 1 1.6843755267643797e+01 1.0555190188186478e+00 1.4350217496799557e+01 0 1 0
331 1 2.1520142787747588e+01 2.1325461033835049e+00 1.6016185711492284e+01 0 1 0
337 1 1.8749207911641466e+01 1.9184386645535412e+01 1.5958325866117987e+01 0 0 0
2702 1 1.1100337280692720e+00 5.8169613079003097e+00 1.4496738953547977e+01 1 0 1
3566 1 3.2403742433659968e+00 4.2087096506324606e+00 1.4349360943074803e+01 1 1 0
1717 1 5.0695180699489732e+00 5.6695506112165370e+00 1.5843009000715250e+01 0 1 0
3340 1 7.3355674661994490e+00 4.7829396521000982e+00 1.5209569432002734e+01 1 0 0
3893 1 1.1663396025379893e+01 5.5265907936172161e+00 1.5666641071844102e+01 0 0 1
3025 1 1.0224757143637673e+01 6.2154474122348153e+00 1.1735035437613501e+01 0 0 0
1202 1 1.5185531975038579e+01 5.3865326927594595e+00 1.3790370361778503e+01 0 1 0
1329 1 1.8172190614357767e+01 6.1935669256589447e+00 1.3776661118587173e+01 0 1 0
719 1 2.3567142062602471e+01 3.3498469556707957e+00 1.4453354441597982e+01 0 0 1
3191 1 4.2176168228272406e+00 1.9210810804159344e+01 1.6270775117487315e+01 1 1 0
145 1 2.2484186184502843e+00 8.3744598450106071e+00 1.3656598220697861e+01 0 0 0
1215 1 9.3175962929280658e+00 2.1045427951980614e+01 1.3810869663824382e+01 0 0 0
3613 1 4.3226465482132248e+00 8.5510136295532266e+00 1.5301373117581379e+01 1 0 0
477 1 7.3906438350841412e+00 8.2267016829922959e+00 1.4618825265283208e+01 0 0 0
245 1 1.3776076478612904e+01 7.0653543491801152e+00 1.5343272583729405e+01 0 0 0
900 1 1.8759240119678228e+01 7.8497541104654465e+00 1.1575437415252557e+01 0 0 1
274 1 1.6947494937724429e+01 9.3848586107006309e+00 1.4885061592166922e+01 0 0 0
654 1 2.2028338385844535e+01 9.2439021397621612e+00 1.5284588815667504e+01 0 0 0
307 1 2.2387451852274683e+01 7.6423891543660787e+00 1.3066406085593041e+01 0 0 0
2046 1 4.3703189614072464e+00 2.1603778940156442e+01 6.9574120581196452e-01 0 0 0
3290 1 1.2252449975019226e+00 2.3516116715092220e+01 1.5369421464071859e+01 1 0 0
3662 1 5.3375489010480841e+00 1.1488415089695193e+01 1.4497528031498348e+01 1 1 0
1915 1 8.2558348219215141e+00 1.1265520359177229e+01 1.5534892362052227e+01 0 0 0
1218 1 1.1585915947717433e+01 9.6180359847044716e+00 1.4852905151767807e+01 0 1 0
35 1 1.4878140580654392e+01 8.9252016160423597e+00 1.7135777232402301e+01 0 0 -1
363 1 1.6697601895544778e+01 1.1929091547384321e+01 1.6008589179584853e+01 0 0 0
810 1 1.3572525096993912e+01 1.5486346389270034e+00 1.6793814957950474e+01 0 0 0
490 1 2.0881759306059536e+01 1.2791045923316645e+01 1.4712395344260674e+01 0 0 0
2207 1 1.3887047968885994e+01 8.0342933381196620e+00 6.1397724394989117e-01 0 0 0
493 1 5.9759694523509532e+00 1.5035022807184458e+01 1.4145487126240228e+01 0 0 0
3284 1 1.2630724413621842e+01 1.3869929913343251e+01 1.2791402732868088e+01 1 0 0
233 1 1.0947637727476605e+01 1.2520361553287287e+01 1.4289093619558399e+01 0 0 0
3083 1 5.6501659616389577e-01 2.0513665384891041e+01 7.9227992238229579e+00 1 0 0
1554 1 1.4605381171484428e+01 1.1985468229981988e+01 1.3078790458384788e+01 0 1 0
509 1 1.3712361654542931e+01 1.1243802110738949e+01 1.6111630414443177e+01 0 0 0
180 1 1.6954896740167349e+01 1.4854729925466428e+01 1.5240785519785867e+01 0 0 0
174 1 1.1545541470482023e+01 2.5547556754919224e+01 7.6241564019324350e+00 0 0 0
2056 1 2.3934369509409546e+01 1.3262722161848650e+01 1.4545347222858334e+01 0 0 1
408 1 2.3728107146124966e+01 1.5806792510325499e+01 1.5575894349049971e+01 0 0 0
3954 1 2.8380429640743232e+00 1.9315206563903711e+01 1.3976220259244750e+01 1 1 1
1123 1 3.9924561542843171e+00 1.6902191485112816e+01 1.2959116036416194e+01 0 0 0
937 1 2.3107574737885866e+01 2.3211581874832007e+01 3.3592596437503817e+00 0 0 1
740 1 6.8764956478531376e+00 1.9498141174666102e+01 1.5370614557216584e+01 0 0 0
3285 1 7.6916596368924548e+00 1.7251458802977382e+01 1.4257091031564631e+01 0 0 0
167 1 9.8444239607681947e+00 1.5899880412715286e+01 1.5682389481598698e+01 0 0 0
1370 1 1.1883397721165363e+01 1.6144630410620902e+01 1.3987366916419347e+01 0 1 0
644 1 1.8135414693678634e+01 1.6391314590111978e+01 1.7022310443957291e+01 0 0 0
1422 1 4.0919540134892838e+00 1.3974631612653874e+00 8.7824193063050018e+00 0 1 1
438 1 8.2497117277367380e+00 2.5430292676966758e+01 1.0264046390756302e+01 0 -1 0
297 1 2.4912920303598023e+00 1.6364366988890158e+01 1.6356007655978708e+01 0 0 0
3216 1 4.9042724591615245e+00 6.8363101455640896e-01 1.2638698932407754e+01 1 0 0
1173 1 1.5587006880214082e+01 6.1222511639929222e-01 2.0643223271185613e+00 0 1 0
1249 1 1.4355458810259292e+00 3.3813442708784351e+00 3.0006664861844250e+00 0 0 0
3964 1 2.0289135439005360e+01 2.1116136489034272e+01 3.9896403439935135e-01 0 0 1
2644 1 9.2549053735967703e+00 2.5544022975665118e+01 1.5069781978745430e+01 1 0 0
869 1 1.9064623166303928e+01 2.4568524776676281e+01 2.7009190445764375e-01 0 0 1
3283 1 4.4810034204501950e+00 1.7003112181586136e+01 3.2481299003012509e-01 1 0 0
3044 1 5.5079604349865741e-01 1.9396509227683341e+00 4.6224148558282963e-01 1 0 1
1062 1 6.7423362891910497e+00 2.2681803712284800e+01 3.1667757028361951e+01 0 0 -1
1595 1 1.3316353015758240e+01 2.1067192679217843e+01 3.1636082078107041e+01 0 0 0
369 1 2.0307972927663563e+01 1.3356513707837774e+01 1.7250303821742186e+01 0 0 0
2635 1 9.7008910378402380e+00 3.6140592560116418e+00 1.9044320740196746e+01 1 0 0
478 1 8.0553005166721707e+00 1.2730250715616938e+00 1.8327206724244949e+01 0 0 0
1960 1 9.1605950389829272e-01 1.4502012330882991e+01 2.0917533970377079e+01 0 0 0
3396 1 1.6938222318756779e+01 1.4108257725144715e+00 2.5294106384348432e+01 0 1 0
3450 1 1.8127273700085187e+01 7.6542805564405947e-01 1.9452870489287182e+01 0 1 0
3113 1 8.8900302752831237e+00 2.5171612402835173e+01 2.3887806727171967e+01 1 0 0
3958 1 9.4084926883129272e-01 4.8031485474289957e+00 1.8873376323697450e+01 1 0 1
3215 1 3.5550220917999709e+00 3.5811579152924198e+00 1.8223397784053489e+01 1 1 0
40 1 2.5020451299546284e+01 1.3774719103553595e+01 1.7648868897622201e+01 0 0 0