LAMMPS data file via write_data, version 7 Aug 2019, timestep = 5000000

4090 atoms
1 atom types

9.8051246678863890e-02 5.1321948753317962e+01 xlo xhi
9.8051246678863890e-02 5.1321948753317962e+01 ylo yhi
9.8051246678863890e-02 5.1321948753317962e+01 zlo zhi

Masses

1 18.15

Atoms # atomic

3149 1 2.0887567310667814e+00 1.5379180782503425e+00 2.4140145634981947e+00 1 -1 1
2617 1 1.0530391881291936e+00 1.0284289358189994e+01 1.6767894053771222e+01 -1 -1 0
310 1 9.6037222674074734e+00 3.4697970437147734e+00 1.9476877479432433e+00 0 2 2
2729 1 1.0075722162531026e+01 1.1782494877797243e+00 3.3113168780277404e+00 0 2 1
3803 1 1.3770662287218967e+01 2.9877676391570920e+00 2.6161977329572212e+00 2 0 3
3782 1 1.6729922945533296e+01 2.9567091677856885e+00 3.1861181405381829e+00 0 0 0
2413 1 1.7482945518986998e+01 6.0683705751348582e-01 1.8031789839736199e+00 0 1 1
1465 1 2.0390579539650247e+01 7.7685066997861552e-01 1.7920023325954093e+00 1 1 1
160 1 2.1687044004609966e+01 2.7434847398829105e+00 6.0882208882551814e-01 0 -1 1
1305 1 2.4300122801381757e+01 2.8110969456915762e+00 7.1430210775451208e-01 1 0 0
1804 1 2.4788254606228826e+01 2.9505600830604997e+00 3.5126703208712375e+00 0 3 3
3840 1 2.2498521086121670e+00 5.7679331265020473e+00 2.1973288408318878e+00 0 3 0
488 1 2.8316329305342305e+00 3.9122153661931658e+00 3.6322828519885082e+00 1 0 0
2825 1 7.0685634149005558e+00 3.3812526820963624e+00 1.4938446879322560e+00 1 0 -1
3848 1 1.0576320410813388e+01 5.5215406974046513e+00 3.2403226227849311e+00 0 2 0
3627 1 1.3233644457753677e+01 5.5810869775089307e+00 3.3625547375031997e+00 2 -1 -1
463 1 1.7491506426549144e+01 5.2239180055321999e+00 1.6831168283878422e+00 1 0 0
1416 1 2.0162665455811091e+01 5.0622655238502379e+00 1.7433630058113481e+00 -1 -1 2
1707 1 3.1869521263340039e+00 8.1396565004294228e+00 3.0433404282838232e+00 1 0 2
573 1 5.7961236238752569e+00 8.0188256262623483e+00 3.8132476702718230e+00 0 0 -1
959 1 7.2080854042646543e+00 7.8708010332522544e+00 1.4771723137246124e+00 -1 1 0
4067 1 1.0003073577576362e+01 7.6878646108928974e+00 1.7722115554025493e+00 2 1 3
2317 1 1.4149928848199737e+01 7.4610903656920344e+00 1.8852149524055797e+00 1 1 0
1909 1 1.6616044265883520e+01 7.5502025877053924e+00 2.6377630790467168e+00 0 2 -2
181 1 1.7937124178358413e+01 9.3468672380901872e+00 1.2870944411245233e+00 -1 1 -1
513 1 2.0692705027985880e+01 9.3116227146542911e+00 1.3878126542470326e+00 -1 1 0
1874 1 2.4301264792915983e+01 7.0659778852046990e+00 4.3868046049160725e-01 0 1 2
3157 1 2.4911383900340272e+01 7.0578733432724503e+00 2.8642439254304066e+00 -2 -1 -2
204 1 2.5722860451630530e-01 3.6884436688735694e-01 1.4678917548339527e+01 2 -2 0
3239 1 2.5330826936299538e+00 1.0287658765644478e+01 1.6504130376780111e+00 2 0 0
788 1 3.5294493158821116e+00 1.2487707469790497e+01 2.8902645251461023e+00 0 -1 1
1192 1 6.2406504377637582e+00 1.2368368949285351e+01 3.2247258067917222e+00 -2 2 -1
2915 1 1.1755174485101088e+01 2.5524879519038549e+01 1.6379610593492533e+01 0 1 -1
963 1 1.0742055064448156e+01 1.0003623103928410e+01 2.4118699627159437e+00 2 -2 0
2819 1 1.0119792274200025e+01 1.2391376388658225e+01 9.1865930462095369e-01 2 0 2
938 1 1.3283103604083513e+01 9.8743734285121985e+00 2.7116669033246636e+00 1 -1 3
3373 1 1.4625498982990273e+01 1.2092168882940236e+01 1.6743353913543313e+00 -1 1 1
3683 1 1.7095082936480040e+01 1.1811108840251547e+01 2.0572589548648015e+00 0 2 0
3355 1 4.0214995821179089e+00 2.5115434381147701e+01 1.6761710574895510e+01 0 -2 1
1599 1 2.3572738993603668e+01 1.2964763913600949e+01 1.4146494731278176e+00 0 1 0
476 1 1.6278233701041753e+01 1.0241504965513430e+01 1.6798034080198498e+01 1 1 -1
1140 1 2.9968484138894937e+00 1.4104596759140506e+01 1.0388733737098550e+00 1 1 0
2999 1 1.1127387451372710e+01 1.4801176441037278e+01 2.1080143101753372e+00 2 0 -1
1290 1 1.3857998237915643e+01 1.4543620711352306e+01 2.5849798521502905e+00 0 -1 0
2828 1 1.8482663237993282e+01 1.3842272266001165e+01 8.2063102569220514e-01 0 -1 -1
1109 1 2.0229875639290615e+01 1.5375200861550287e+01 2.1190274974932581e+00 -1 2 -2
2779 1 2.2004672395585132e+01 1.3790876537244575e+01 3.3553267801228697e+00 2 2 0
417 1 2.3672870315516485e+00 1.9151804818703333e+01 1.7080130026226190e+01 1 -1 2
1145 1 8.2749851945592106e+00 2.1820904974294464e+01 7.6114843953392886e-01 0 1 0
1284 1 3.5140674489974963e+00 1.6492457389641245e+01 2.2053855237587610e+00 0 -1 2
868 1 6.2247885761968522e+00 1.6789584434245143e+01 2.5880062082795701e+00 -1 1 2
2003 1 1.0874262051475453e+01 1.7472796313810029e+01 1.2923972063776115e+00 2 -2 -1
3454 1 1.5137669857736043e+01 1.6435411273341632e+01 1.3289135092974820e+00 -1 -1 1
3934 1 1.6902015642766536e+01 1.7726779284621944e+01 2.9351672532050976e+00 1 0 4
3365 1 2.1463357013638923e+01 1.7420482620673557e+01 8.1817732992027015e-01 0 2 0
2707 1 2.3931621804684074e+01 1.7326684975915647e+01 1.1409773755778365e+00 0 0 1
3362 1 7.9820966947959180e+00 2.5471760115697649e+01 2.3780895602539220e+00 2 1 1
2662 1 6.8823107475810041e-01 2.0114135499845823e+01 2.0716409141449832e+00 -1 1 0
793 1 5.9144006076802720e+00 2.0446779743015366e+01 1.5983217391438129e+00 1 1 0
1457 1 5.4497087882159674e+00 7.9776608978926067e-01 1.6159060822156064e+01 -1 -1 2
1658 1 1.0338138690686257e+01 2.2081858644151851e+01 2.2504530318226741e+00 -1 -1 0
859 1 1.0542838895436143e+01 1.9606772386993818e+01 3.5485054811677883e+00 0 -1 2
1756 1 2.5563415989113423e+01 1.1405764492719181e+00 1.4208671423632335e+01 -2 1 1
3052 1 1.4038909270619856e+01 2.2395478317527981e+01 3.2255646005520653e+00 0 -2 0
2520 1 1.7854069407299349e+01 2.0007372223886470e+01 1.9956571879953804e+00 -2 -1 1
2606 1 1.6841454533357712e+01 2.2123423111870526e+01 3.3363697354080122e+00 3 0 2
2014 1 2.0745224121883162e+01 1.9718818436778346e+01 2.4791279519414555e+00 1 4 1
2122 1 2.1670864252821421e+01 2.1699466068574022e+01 9.9062106242438530e-01 -1 0 1
4028 1 1.7240552841823330e+01 2.2945415232421006e+01 1.4690719155031047e+01 -2 4 -2
3205 1 4.7007705151107695e+00 2.2685898902171733e+01 2.4948367370062932e+00 -1 1 1
1025 1 2.1578663963035737e+01 7.0621233615306300e+00 3.1987965720759226e-01 0 -1 1
1834 1 1.2654408899285551e+01 2.2224060481598890e+01 9.5405891740466409e-01 0 2 0
1113 1 1.0293219526856733e+01 2.4403339979507798e+01 3.3868610174520470e+00 -2 2 0
636 1 1.4519129423717178e+01 2.5264699525113347e+01 3.4157099885943034e+00 1 1 3
1164 1 1.8303500457944182e+01 2.4142798153556353e+01 2.4025279502383547e+00 -2 -2 0
3262 1 2.3174483012184570e+01 2.3332419348889822e+01 2.4537153458107190e+00 1 0 0
2768 1 2.4545427683428429e+01 2.5368537998850563e+01 1.4687575958899710e+00 -1 -1 1
3311 1 6.1188382704829474e+00 1.4024112219181288e+00 5.6577195920509675e+00 1 3 1
2851 1 8.8969190405965506e+00 1.2710291152165107e+00 5.9008796634716756e+00 3 -1 -1
1008 1 1.2605624278435828e+01 8.5986376556007293e-01 3.7668358923533378e+00 2 -1 1
2577 1 1.3562565100898572e+01 1.1751185537582378e+00 6.2527692238963084e+00 0 0 0
2596 1 1.6285321436644928e+01 1.1022608502346014e+00 6.7995264397370017e+00 1 0 0
1891 1 1.7595974567928099e+01 3.3541911766982606e+00 5.4978560473923608e+00 -2 1 1
1524 1 2.0757978545256723e+01 7.7380293845645376e-01 4.4100626376159244e+00 -1 0 2
2187 1 2.0168376957604490e+01 3.1831515325917739e+00 5.5050681638361407e+00 1 3 0
1479 1 2.3778207308607055e+01 6.7266580170917267e-01 4.9133890521685526e+00 0 4 0
345 1 1.5468551149205663e+00 3.9505069226866945e+00 6.0046963608747363e+00 1 1 -1
1183 1 5.6321398327349117e+00 3.6832345729894520e+00 3.6910109586522628e+00 0 2 -2
2718 1 6.3558163413944495e+00 6.0185831454623600e+00 5.3617656299242435e+00 1 -1 -1
2318 1 9.1797877700173327e+00 5.9317830557260418e+00 5.4423390104525575e+00 1 2 -1
3668 1 9.7787020396504190e+00 3.6077379017125977e+00 6.9867887354471616e+00 0 1 1
3186 1 1.3656645865309034e+01 5.4835357709217840e+00 5.8773415462492915e+00 0 1 0
100 1 1.6486435587743056e+01 5.5949016921000982e+00 6.3782850837659861e+00 0 -3 -2
3899 1 2.1116485091319259e+01 5.3493120523884752e+00 4.1252639722386766e+00 0 1 1
315 1 2.3831816747857324e+01 5.2451622560370526e+00 4.4530375178687605e+00 0 -1 -1
1069 1 2.1770713158716988e+00 8.3882704215760207e+00 5.6608422362728552e+00 2 1 0
3687 1 1.0141678003676287e+01 7.9679366412222352e+00 6.5397341048831361e+00 0 0 -1
2532 1 1.2754592515576064e+01 7.7818384785398376e+00 6.6761501706251041e+00 2 0 1
3504 1 1.7549926029799959e+01 7.5898443133990732e+00 5.0806557530149083e+00 1 0 0
707 1 2.0242298811212990e+01 7.6321815578138681e+00 5.2080609788347276e+00 -1 0 -1
2555 1 2.1516308138052011e+01 9.4915892590700892e+00 3.8372896167936346e+00 -1 0 1
2359 1 2.4263997481867555e+01 9.6577900287629088e+00 4.0873545730153573e+00 0 0 2
2955 1 3.2079848256546888e+00 1.0641499973023510e+01 6.8912964830245729e+00 -1 -2 1
413 1 2.4134793468891136e+00 1.2845541745138112e+01 5.2710423458935471e+00 0 2 1
2913 1 5.9540227474600664e+00 1.1015103842106130e+01 7.2557878897333854e+00 1 0 0
1410 1 6.8114881601810557e+00 1.0255165443737628e+01 4.7992806992727957e+00 2 1 -2
1714 1 9.5644141852128577e+00 1.0134526168909410e+01 4.8429103258984139e+00 3 1 1
3426 1 1.0605686979877369e+01 1.2392391251340522e+01 5.9906226988899238e+00 1 1 0
2566 1 1.3365857718476082e+01 1.2452828533594744e+01 6.0736769943625655e+00 1 -1 0
2452 1 1.4059077734229870e+01 1.0146204072585467e+01 5.2083698271590206e+00 1 0 2
1428 1 1.6811180765743792e+01 9.9508168917564177e+00 5.8896729910636934e+00 -2 0 0
325 1 1.7962021246629483e+01 1.2099354387320250e+01 4.6270390445565965e+00 0 1 0
3547 1 2.0521361203863911e+01 1.1782665729269610e+01 4.8576587940135925e+00 0 -1 1
1167 1 1.5291957585326134e+01 2.4747196330202868e+01 1.3858667144546054e+01 0 2 -1
3650 1 3.5887377207136506e+00 1.5287294780733776e+01 6.2761000666431555e+00 2 1 0
3877 1 6.3083826179504179e+00 1.5639356431877461e+01 6.8766643546329025e+00 1 0 0
393 1 7.0383932735533126e+00 1.4776064844552264e+01 4.3354763916445513e+00 0 1 -1
1426 1 9.7422933392355180e+00 1.4634145759664305e+01 4.4203420817747308e+00 2 0 1
3212 1 1.4685686349049442e+01 1.4796805280453418e+01 4.8883091349665326e+00 1 1 1
424 1 1.7280390958816248e+01 1.4457293206952919e+01 5.6996730316007937e+00 2 0 0
436 1 2.3809285785963418e+01 1.5313125532253160e+01 5.1026743031813933e+00 0 0 -1
1411 1 2.5468786580047283e+01 1.3538343008022352e+01 6.0792255008554159e+00 0 0 -1
3630 1 2.4791129128726661e+00 1.6833483867313134e+01 4.6064942505675051e+00 1 0 1
2800 1 2.5610660202503365e+01 5.0819768520298956e+00 1.1126359954139385e+01 1 -2 -1
928 1 6.1228904393728865e+00 1.9124553128362628e+01 3.7331897607335698e+00 0 -1 1
3542 1 1.0802133694338220e+01 1.6542518560746810e+01 6.2129632422537480e+00 1 2 1
3332 1 1.3366952729922584e+01 1.7337812465743127e+01 6.0727273031553519e+00 -1 0 -1
112 1 1.5785711321984481e+01 1.8944867338246713e+01 5.2346655724076836e+00 0 1 -1
3480 1 1.8956479232258836e+01 1.6363352610225959e+01 4.1872598199411231e+00 0 0 0
2068 1 2.0444868760768770e+01 1.7553993460124648e+01 5.8643356612969386e+00 1 0 0
3983 1 2.4684792586577917e+01 1.7582644669811458e+01 3.6737286807755463e+00 2 1 3
1438 1 2.4779177318432484e+00 2.1711418827185920e+01 3.6305708249409165e+00 2 2 -1
2021 1 3.8008116829488761e+00 1.9702674983192452e+01 5.0061065637076911e+00 1 -1 1
3778 1 8.3868633992835768e+00 2.0071358852314422e+01 5.0839461320452006e+00 1 -2 1
2844 1 7.2321894059287599e+00 2.2506201054352985e+01 6.1834981401273685e+00 1 -1 3
3310 1 1.3169361205023664e+01 2.0354339245736007e+01 4.7250904178795983e+00 1 0 0
897 1 1.7033102611648239e+01 2.0303240128037466e+01 6.8955761301861660e+00 1 -2 1
2355 1 2.1475437607365354e+01 1.9920187912389970e+01 4.9286894303361786e+00 1 -1 2
1582 1 2.5156998543426873e+01 2.1842300822007040e+01 3.4317364564445594e+00 2 0 -1
2637 1 2.4118888793172371e+01 1.9803219177562255e+01 4.9735477300536219e+00 -2 0 0
1525 1 2.7804066264562892e+00 2.5016383396134696e+01 6.8545057323147693e+00 1 -1 0
300 1 1.1740036719998201e+00 2.3493988634386572e+01 5.2594996276404817e+00 2 0 2
1017 1 6.2521602422684444e+00 2.4263608749552418e+01 4.0108858235957170e+00 -1 1 2
3833 1 1.0580469140649132e+01 2.4948237602827337e+01 6.1404486373423186e+00 0 -1 0
1470 1 2.5602610716493331e+01 9.6779871341854662e+00 1.1103991447337100e+01 -1 2 1
461 1 1.8145524280681379e+01 2.2666446367452711e+01 5.7945734860705747e+00 -2 3 0
1268 1 2.0629920691037732e+01 2.2156675372875771e+01 5.8289798776196964e+00 -1 -1 1
2988 1 2.2151603184216977e+01 2.4274123282498749e+01 4.7723546286278697e+00 2 2 1
2235 1 2.3224722018787842e+00 1.9359171443660206e+00 7.5923238242050131e+00 3 0 0
2540 1 1.2649400534022079e+00 2.2502340911909537e+00 9.8470825592396825e+00 1 0 1
114 1 4.7957744869426655e+00 1.7847379716023137e+00 8.0110960866702641e+00 1 0 0
3943 1 1.6440797163876603e+01 1.1866942662973081e+00 9.4394219326449740e+00 0 0 1
2344 1 1.9214207032048463e+01 1.4245503481372468e+00 9.7037273332599376e+00 -2 -2 0
3025 1 2.0584008740593223e+01 3.2905952813615160e+00 8.4084967326742959e+00 -1 0 1
3160 1 2.4308068047784264e+01 1.0697343735826008e+00 7.6045802751308083e+00 -1 1 -1
759 1 2.3358768000641088e+01 3.4038255523360066e+00 8.3619118469528253e+00 2 1 1
1070 1 2.4750481714336834e+00 6.2248205022403384e+00 7.1069022358171070e+00 2 1 -2
1842 1 6.0018670774713945e+00 4.0632217331586293e+00 9.0899522024678969e+00 1 2 0
2643 1 5.3654068148720206e+00 6.4672266885316061e+00 7.6415279073261049e+00 2 0 3
3790 1 8.7254245207945402e+00 4.0227343515299694e+00 9.5723636013325972e+00 0 -3 2
397 1 9.8060764800352480e+00 6.3576069885407485e+00 1.0715917396934310e+01 0 -2 -1
83 1 1.2602572253450512e+01 3.4248665677498975e+00 7.2653323884333023e+00 -2 0 -1
1023 1 1.3035242251305714e+01 3.3466827647160438e+00 9.8382657023009727e+00 2 2 0
882 1 1.5692458590911180e+01 3.5515927655717174e+00 1.0238439594293343e+01 1 1 -1
1984 1 1.6826941201935995e+01 5.7507389202318731e+00 8.9598864297644170e+00 0 0 3
2343 1 1.9526876331561361e+01 5.8033691800836555e+00 8.9162559868114162e+00 -2 3 2
856 1 2.4530288021444530e+01 5.4269038078128879e+00 6.8609817123044596e+00 0 0 0
129 1 1.5785091392523849e+00 6.5160873631728276e+00 9.6830313325192883e+00 0 -1 -1
2367 1 6.4483385349830309e+00 8.7503663914013128e+00 8.5572366341284649e+00 2 0 -1
313 1 9.1235664053417587e+00 8.2613820898977561e+00 8.9239194390796861e+00 1 -1 1
930 1 1.3645135731245320e+01 7.8250190353523186e+00 9.4361564500465125e+00 0 2 0
1886 1 1.6357804202252513e+01 8.0713906981330705e+00 9.8624091760172359e+00 -1 0 1
2287 1 2.0919874778467985e+01 7.7385099894824805e+00 7.7069471512601018e+00 3 1 -1
2882 1 2.4865430047000416e+01 9.6597918029926539e+00 6.8645718541586955e+00 1 0 -2
3111 1 2.3515831206886695e+01 7.5950095683879715e+00 8.1618444004465136e+00 0 2 1
2544 1 2.0218410649147245e+00 1.0805169485539148e+01 9.1725755101022592e+00 1 -1 0
1174 1 9.4023408921970404e+00 1.2822163701595128e+01 8.4371450951067057e+00 -1 -1 0
30 1 9.6702576577595245e+00 1.0657766454648499e+01 1.0154723046581616e+01 -1 1 -1
2926 1 1.4064244772418922e+01 1.2583978428430864e+01 8.7688570344596641e+00 -1 1 -1
3621 1 1.6880024691466424e+01 1.2268753955280969e+01 9.2283161455883995e+00 2 -1 3
1366 1 1.7445802452443687e+01 9.7894033020521984e+00 8.2436643117176800e+00 2 -1 1
1310 1 2.0171040502612346e+01 1.0114865097806835e+01 8.9488526908188817e+00 -1 1 0
1988 1 2.1456690421017633e+01 1.2062948522747016e+01 7.5635256824450137e+00 -2 -2 0
1252 1 2.4002443249085111e+01 1.1824238472138466e+01 7.8327568030970456e+00 0 0 2
939 1 7.8812270787723993e-01 1.3213628876867396e+01 9.4138771489920963e+00 2 2 0
16 1 2.6774021374616996e+00 1.4894974866874005e+01 8.7071567694918173e+00 -1 -1 -2
1079 1 4.8294432882555682e+00 1.3629443813086045e+01 1.0257487170993917e+01 1 0 0
2623 1 6.8651137018035788e+00 1.3204210835417772e+01 8.2162884561613527e+00 0 0 1
2542 1 8.7103968925538879e+00 1.6011583394378967e+01 1.0171819425293759e+01 -1 0 0
3389 1 1.0508845248028798e+01 1.5117884130639258e+01 8.5630141878162807e+00 1 1 0
1386 1 1.3178416985849633e+01 1.5056766141931647e+01 9.5905257805729036e+00 -1 1 -1
876 1 1.7983844321142637e+01 1.4528438252723369e+01 8.3393439517711503e+00 -1 -2 0
2724 1 2.0509828410370428e+01 1.4277599990389724e+01 8.7737597682773139e+00 0 2 2
3130 1 2.3111128564811727e+00 1.8349452639554965e+01 7.3081114715821072e-01 2 -2 1
3655 1 2.0478197195968413e+00 1.7335271031222511e+01 9.1808877027098053e+00 1 1 1
331 1 9.2001649007641451e+00 1.8711484164535964e+01 7.1023303853271669e+00 -1 -1 -1
879 1 7.2127147928088826e+00 1.7488969099627976e+01 8.4173945150391720e+00 0 4 0
2824 1 1.4104997049393404e+01 1.7346203213423188e+01 8.6196560317576729e+00 -1 0 -1
2233 1 1.6793206585902261e+01 1.6939297626100295e+01 8.9903164617117355e+00 -1 0 0
2192 1 1.9097103883625888e+01 1.8406028556208259e+01 7.8126782613127901e+00 1 -1 0
836 1 2.2040190701403414e+01 1.5966277708371230e+01 7.1664752777434364e+00 -1 1 1
1656 1 2.3725956174014925e+01 1.7373121340625037e+01 8.3027464356646661e+00 1 -1 0
2278 1 1.4238422396683115e+00 2.2153138326492524e+01 1.0281067862973433e+01 -1 0 0
2852 1 5.8739554135022516e+00 1.9720385259757222e+01 9.2125980378463801e+00 1 0 1
3269 1 4.9002092331390656e+00 2.1296339088507754e+01 7.2046884179815533e+00 1 1 2
1644 1 9.5550562912285990e+00 2.2137377906765145e+01 9.9596081176429578e+00 -3 1 0
2772 1 1.2746387387778871e+01 2.1233843121855283e+01 7.1606797844554970e+00 0 0 0
1399 1 1.0832003529324430e+01 2.0075733383467611e+01 8.6773105130339712e+00 -3 0 0
1188 1 1.4886635466404371e+01 2.0168023048409637e+01 8.5960144155660601e+00 0 1 0
873 1 2.0410242956119703e+01 2.0133362817482489e+01 9.4872970858515444e+00 1 -1 0
4050 1 2.1300123187162853e+01 2.2274816330543509e+01 8.5243756294230977e+00 1 -2 1
3667 1 2.4626530708069456e+01 1.9964004165398435e+01 7.6750270717672961e+00 0 4 0
1308 1 2.4209195435658017e+01 2.2285976251357379e+01 8.8496106410330970e+00 0 3 0
901 1 3.5601778468028380e+00 2.3215668964494284e+01 8.6515875275337741e+00 1 1 0
3061 1 4.8782922780310729e+00 2.4551664340831049e+01 1.0278174276847816e+01 1 -1 0
4045 1 2.5223381996643504e+01 1.4146815705205588e+01 1.1456775609434947e+01 1 0 2
750 1 8.6921811581546411e+00 2.3985576138636638e+01 8.0228799215579780e+00 1 -1 0
3594 1 1.2845350638616367e+01 2.4687544630986554e+01 1.0145556910393028e+01 -1 0 1
2307 1 1.2735729549370093e+01 2.3937727728727459e+01 7.2479199309578846e+00 2 0 -3
3942 1 1.7160794818399960e+01 2.4717873249867640e+01 6.9173953447942615e+00 1 -2 0
1204 1 1.7921580653216207e+01 2.5043521200867360e+01 9.3620749409610884e+00 2 -2 2
3812 1 2.0743297030051597e+01 2.5002447767270940e+01 9.4640407834059026e+00 1 -1 0
1417 1 2.5547316917190244e+01 2.4360182405282657e+01 7.5272773640195503e+00 1 -1 1
2674 1 2.8168496158279135e+00 2.4094642674369733e+00 1.2153208071250285e+01 1 2 3
73 1 3.0986955490671164e-01 1.9238415160963882e+01 1.3433176776090706e+01 2 0 -1
188 1 9.0049948719545228e+00 1.7193513885683300e+00 1.0642071672143677e+01 0 -1 -1
1867 1 8.0230640125569366e+00 2.1267450774672838e+00 1.3021838771303337e+01 0 2 1
2525 1 1.1525058359102180e+01 1.6793697296419148e+00 1.0996211796977308e+01 1 1 -1
1596 1 1.2226266719225713e+01 1.6528917758814206e+00 1.3699411308584379e+01 1 1 1
2326 1 1.7586681398808484e+01 1.0640359035582674e+00 1.3319957064640441e+01 3 2 -1
264 1 1.9987673949467375e+01 1.1513165706148381e+00 1.2017829904177820e+01 1 1 0
983 1 2.4972380413222993e+01 9.3902793784657901e-01 1.1726565302286977e+01 -2 -1 -1
2330 1 4.7984445692623838e+00 4.2281655390671702e+00 1.1262908040142605e+01 1 1 0
4023 1 7.0886677513371357e+00 4.5451252801010833e+00 1.2835391122197670e+01 2 2 0
686 1 8.7713171763678410e+00 6.6160633965845790e+00 1.3049733865348667e+01 0 0 3
2189 1 1.2413444045806436e+01 5.9671293852556939e+00 1.0732412348020645e+01 -2 1 -4
2767 1 1.3155162134779058e+01 6.0839217309582692e+00 1.3373500763042060e+01 0 1 2
1915 1 1.6303425495178210e+01 3.3446806221952889e+00 1.2649610518118198e+01 0 2 1
420 1 1.7893349500426300e+01 5.4147322520647512e+00 1.3218656627242217e+01 -1 0 -1
135 1 2.1264117477105032e+01 3.5159703369028059e+00 1.2466685349833709e+01 -1 0 1
3108 1 2.0115026413003434e+01 6.0126624470810039e+00 1.1503571882116542e+01 0 2 -2
1243 1 5.2320696724435356e+00 1.1266027075845201e+01 1.6652535204602689e+01 0 1 -2
3526 1 2.3867990158778358e+01 3.1783069606960188e+00 1.0884857966635092e+01 2 0 -1
2763 1 3.5640632735647100e+00 6.7227004710966618e+00 1.1400717017518623e+01 2 0 -2
3836 1 5.3403034567974021e+00 8.5570971746963309e+00 1.1072637779773860e+01 2 -2 2
2553 1 7.0804838065718503e+00 8.6041520139847574e+00 1.3052648960688074e+01 0 3 1
32 1 1.6908186428852897e+01 7.9717249217438546e+00 1.2472090374883340e+01 -1 -1 -1
2950 1 2.1966621335292857e+01 7.6263275098436347e+00 1.2171146426639105e+01 1 1 2
2766 1 2.4194698300350154e+01 7.5504635072455679e+00 1.0645249830545458e+01 -1 0 -1
2123 1 2.2446198953182264e+00 1.1694589122899428e+01 1.2805901615898064e+01 3 0 -1
399 1 3.9586140867778630e+00 1.1044474410942405e+01 1.1080387291057733e+01 1 2 -1
125 1 8.6600350510037316e+00 1.0953371606470157e+01 1.2756339282906508e+01 1 2 -2
4001 1 7.0834636091386258e+00 1.2860837979261740e+01 1.3757877771599349e+01 1 0 0
1413 1 1.2599016017600411e+01 1.0621434451617448e+01 9.8515168488907872e+00 0 0 2
3401 1 1.3487605340857286e+01 1.0471030337589823e+01 1.2401080112313894e+01 1 1 2
280 1 1.8266396744583346e+01 1.0159495380408147e+01 1.3053078336811744e+01 1 1 -2
1635 1 1.7058443634372654e+01 1.2426432965739497e+01 1.2087239095968508e+01 0 0 -1
1286 1 2.0907300044049094e+01 9.8368716422101432e+00 1.1845386065386954e+01 -2 2 0
2521 1 2.2187521437898102e+01 1.2121616658985456e+01 1.2440624971028635e+01 -3 1 2
79 1 2.4256171921881151e+01 1.1867536457058643e+01 1.0669455242937348e+01 3 -2 0
1696 1 7.5250111389402230e-01 1.4253459124816100e+01 1.2579069130944587e+01 1 1 0
3402 1 6.6158575955369017e+00 1.5015980007481522e+01 1.1856747222790251e+01 1 4 0
2394 1 1.3497562285021264e+01 1.5018404136642184e+01 1.2402003896452742e+01 1 0 1
2229 1 1.8509571821701627e+01 1.4635130765941122e+01 1.2561838886564002e+01 2 1 2
4058 1 2.0918994499109377e+01 1.4274167087246632e+01 1.1495820873803048e+01 -1 1 0
3748 1 2.5526245272709673e+01 1.1188870721618244e+01 2.3903599166022818e+00 1 2 1
127 1 2.4295987251564199e+01 1.5657427411776533e+01 1.3393783040512814e+01 -2 1 -1
1530 1 3.6156804196404195e+00 1.8632098217194081e+01 1.0891945726979252e+01 3 1 0
658 1 4.5202888350407617e+00 1.6705499202853744e+01 1.2748719323398646e+01 1 0 -1
1885 1 9.9170063970406250e+00 1.7110539009333738e+01 1.2244968107004320e+01 -2 0 1
1926 1 1.2401760401446204e+01 1.8222838211977074e+01 1.0942460316512040e+01 0 1 1
3341 1 1.4945203558223822e+01 1.7161849467531386e+01 1.3112508324711342e+01 -1 -1 0
3520 1 1.7066563534258137e+01 1.6835981239287413e+01 1.1515752395230701e+01 1 -1 0
2854 1 1.7999832568969929e+01 1.8918196479896892e+01 1.2987232052923599e+01 0 -2 1
2668 1 2.1966210441016852e+01 1.6630778023725856e+01 1.2397782359876475e+01 1 2 0
740 1 2.2378655447513587e+01 1.8329380603281532e+01 1.0420331994786464e+01 -2 -1 0
250 1 2.1670221933505425e+00 2.0556680133681134e+01 1.2207835641221491e+01 1 -1 -1
3680 1 3.7983708363876101e+00 2.1707799182030609e+01 1.3930178392184526e+01 -1 1 0
706 1 8.0640005359873115e+00 1.9271919267210869e+01 1.2845269849805112e+01 2 -1 3
1542 1 7.4206543831298131e+00 2.1259219989743684e+01 1.1143318006627725e+01 -1 2 0
2346 1 1.3788648566090119e+01 2.0108142554125966e+01 1.2535504865410658e+01 2 0 0
730 1 1.5845310650879446e+01 2.1312308459041727e+01 1.0717683469427289e+01 0 1 -1
729 1 1.8540467015560665e+01 2.0826475129165647e+01 1.1137960328327782e+01 0 1 0
2497 1 2.1112628985159581e+01 2.0539442656578295e+01 1.4012662826979906e+01 0 0 -3
3507 1 2.3363789906820827e+01 2.0059183368523744e+01 1.2269127628601694e+01 0 -1 0
568 1 2.4803899216060405e+01 2.2205994676468567e+01 1.1278019996211187e+01 -1 -1 2
3558 1 1.3329019423335481e+01 2.3674343544471391e+01 1.5335271886586389e+01 2 2 4
664 1 5.8669556372219267e+00 2.3031674585604719e+01 1.2324035085249006e+01 -1 0 -2
1098 1 1.3323546200214221e+01 1.7955815024483226e+01 3.0236415219181650e-01 3 -1 2
614 1 7.2463118854668416e+00 2.4370316295352907e+01 1.4244660752998634e+01 0 -1 -1
2364 1 1.1160444461921397e+01 2.3584840353149236e+01 1.1828039340009854e+01 3 3 -1
2587 1 1.5351128725937050e+01 2.4263424803354066e+01 1.1096587558564837e+01 1 -1 -1
1731 1 1.9473901113105939e+01 2.2501127899593129e+01 1.3053997675593372e+01 1 0 2
942 1 2.0731141524981894e+01 2.5045215533809191e+01 1.2245225510909012e+01 -2 2 2
932 1 2.3744234512629813e+01 2.4573885301086793e+01 1.2299619805414947e+01 0 1 -1
3246 1 8.3405520979563281e+00 2.2553757143174650e+01 1.6029076421656022e+01 1 1 -2
24 1 2.0110370283568351e+00 2.7672353170027573e+00 1.4672614472336919e+01 1 -1 -1
343 1 9.0797398638606719e+00 2.5182094985611371e+01 1.2714942741421279e+01 1 -1 -1
2527 1 3.9920150420215226e+00 2.9835946504290853e+00 1.6202570050990303e+01 1 0 -1
3033 1 1.0069891370647184e+01 1.9004047970938396e+00 1.4884518016769075e+01 -1 2 2
3070 1 1.8197341109279041e+01 1.1061929676226314e+00 1.5851841698967620e+01 0 2 1
3536 1 2.3251328668212096e+01 1.3031400441214778e+00 1.5767290184596240e+01 1 -1 3
3957 1 7.9476251298805822e-01 5.1486472630320073e+00 1.4491598439687516e+01 1 1 2
2744 1 5.9086864147167848e+00 4.6025356577525258e+00 1.5456490226467126e+01 -2 1 2
3605 1 1.0260955653369939e+01 4.3166013061978088e+00 1.6522157349875716e+01 0 1 0
2177 1 1.0870373475853738e+01 6.3718111529243124e+00 1.4595988357355276e+01 3 1 -3
2283 1 1.4093334933948711e+01 3.6989863092129087e+00 1.4005217432458183e+01 0 0 -1
3842 1 1.4833882282209009e+01 3.3506429049096749e+00 1.6540945191404287e+01 2 3 1
1849 1 1.8547532857545068e+01 5.9420136290292316e+00 1.5941082929422752e+01 1 3 1
1004 1 2.5468326773554402e+01 1.8113730298945082e+01 1.3420939032929079e+01 0 2 1
1971 1 2.1905385861146900e+01 3.4477008202238841e+00 1.5139589467012616e+01 1 -1 2
1711 1 2.3620962061151864e+01 5.6723109660137876e+00 1.5346453909488734e+01 -2 1 0
784 1 2.5933643819625520e+00 7.4157215132842067e+00 1.3851303269786323e+01 0 -1 0
3088 1 1.0387938621582531e+00 9.4634009322394448e+00 1.4223885657832946e+01 0 1 -1
986 1 4.4658745452558160e+00 7.0448519386610622e+00 1.5762317319587074e+01 1 0 -1
1150 1 6.1997034373537989e+00 8.8396220468606899e+00 1.5840788888716842e+01 1 1 0
265 1 1.0896350004685644e+01 8.7984208206222121e+00 1.5936915466192280e+01 1 -1 -1
943 1 1.4524771420112110e+01 8.4600748255072098e+00 1.3713963740829037e+01 0 0 0
3847 1 1.5078521678894560e+01 7.9171687128640018e+00 1.6488864519660549e+01 1 1 1
3422 1 2.0356144734336219e+01 8.1196771535679915e+00 1.6282505278322098e+01 0 1 1
197 1 2.2513819191348706e+01 7.9508399762966677e+00 1.4654872600770194e+01 -1 1 0
604 1 3.6723670893120453e-01 1.4625288155053919e+01 9.2571957529996096e-01 2 1 1
1930 1 4.3991168218216057e+00 1.2665162811579737e+01 1.4507071018361696e+01 -1 -1 -1
2589 1 1.0614250287083941e+01 1.3074666235448621e+01 1.5333781297290326e+01 -1 0 -1
62 1 1.1054711094809226e+01 1.0635953353351786e+01 1.4189814752366074e+01 1 -1 -1
4020 1 1.4782771713105323e+01 1.2607439756397573e+01 1.5851658774088715e+01 1 0 1
523 1 1.8701493125415919e+01 1.0132359766367076e+01 1.5650780889072948e+01 0 -2 3
475 1 7.4323708768217180e+00 1.2318242669927450e+01 7.1241541813665832e-01 1 0 0
3447 1 1.9887793886815814e+01 1.2468876864324315e+01 1.6277318723581519e+01 1 1 1
276 1 2.2403647903542701e+01 1.2328749373549089e+01 1.5043624972634076e+01 1 2 1
2787 1 2.4012633574807889e+01 1.0124103388928871e+01 1.5603704363909262e+01 -1 -2 -1
217 1 2.2019411025155713e+00 1.5893115579379703e+01 1.3880833481438223e+01 -1 0 1
1685 1 1.4529322175858516e+01 2.5440728755343475e+01 6.0256735302120905e+00 3 -2 -2
2155 1 2.9958014122120598e+00 1.4423734309496707e+01 1.6105470353158339e+01 3 1 0
3891 1 7.9877524581763781e+00 1.4087801117041083e+01 1.5843177120179035e+01 2 1 1
1575 1 1.1494474357654495e+01 1.5480357260899707e+01 1.4027377397889836e+01 -2 2 1
327 1 1.6229517641832423e+01 1.4892885091727546e+01 1.6676180810015843e+01 -1 0 0
1177 1 1.4616048439051756e+01 1.2653180062051922e+01 1.3212075004219892e+01 0 1 -1
3209 1 1.8435649875592198e+01 1.4754033929925363e+01 1.5333179289603260e+01 -1 1 0
336 1 2.3815241231710107e+01 1.4714492295598619e+01 1.6004097031192551e+01 -2 2 1
454 1 1.0054138082786945e+00 1.7479012511130826e+01 1.5530310511299687e+01 -2 0 2
1843 1 1.9689040577569926e+01 3.4983595803281444e+00 1.6562614149863645e+01 -2 -1 2
445 1 6.0479784614775349e+00 1.8165035827392966e+01 1.4586193350792914e+01 -1 -2 1
4039 1 6.8628971721205954e+00 1.6606670867351593e+01 1.6519817409903009e+01 2 0 0
236 1 1.2429447649534540e+01 1.6756967211046565e+01 1.6339273168995994e+01 0 2 0
1916 1 1.5177498813274918e+01 1.7500467239282138e+01 1.5821404344024772e+01 1 0 1
2446 1 2.0352853469675598e+01 1.8021109189548795e+01 1.4235374091748364e+01 1 0 3
1665 1 1.9635675517946542e+01 1.6777766981440667e+01 1.6416079106316079e+01 1 1 0
3502 1 4.4694722004823060e+00 2.0090132137865460e+01 1.5972198583009465e+01 -1 1 1
4012 1 5.8496252409766463e+00 8.6637845251415646e-01 2.2023420276524594e-01 3 1 2
1444 1 1.2232797193205153e+01 2.1627018153545105e+01 1.3972195594411561e+01 -1 1 1
1666 1 9.9453035408380810e+00 2.0767973799411585e+01 1.4771951629550383e+01 2 -1 2
2414 1 2.3902847792813326e+00 2.3745603725293073e+01 1.4913886233579829e+01 0 -1 0
33 1 1.6044959579302358e+01 2.0286901065953259e+01 1.4099380580559799e+01 2 1 1
3501 1 1.6551613149619200e+01 2.0907252522175778e+01 1.6960608946266031e+01 1 2 1
3981 1 1.6140306279268906e+00 1.8984833275104993e+01 7.0001867141773824e+00 2 0 2
3698 1 2.5657083064569910e+01 1.5876636157618265e+01 9.5804144624713228e+00 -1 0 1
3537 1 2.0059401503754348e+01 2.5633430538691677e+01 3.7835543829095135e+00 2 2 1
1839 1 1.0692566066066112e+01 1.9206383327585932e+01 1.6778312887842969e+01 1 2 1
2620 1 2.2871155658689446e-01 8.8026589456960345e+00 9.9388878007042205e+00 -1 -2 -2