
# Create simulation box and atoms
lattice		    sc 1
Lattice spacing in x,y,z = 1 1 1
region 		    all block 0 51.42 0 51.42 0 51.42 units box
create_box 	    1 all
Created orthogonal box = (0 0 0) to (51.42 51.42 51.42)
  2 by 2 by 3 MPI processor grid

create_atoms	1 random 4457 ${SEED} all
create_atoms	1 random 4457 11210 all
Created 4457 atoms
  create_atoms CPU = 0.000432968 secs

mass		    1 18.15

# Define potential

pair_style 	    sw
pair_coeff	    * * mW_real.sw mW
Reading potential file mW_real.sw with DATE: 2019-02-27

# Run minimization

minimize 	    1.0e-8 1.0e-8 10000 1000
WARNING: Using 'neigh_modify every 1 delay 0 check yes' setting during minimization (../min.cpp:168)
Neighbor list info ...
  update every 1 steps, delay 0 steps, check yes
  max neighbors/atom: 2000, page size: 100000
  master list distance cutoff = 6.3065
  ghost atom cutoff = 6.3065
  binsize = 3.15325, bins = 17 17 17
  1 neighbor lists, perpetual/occasional/extra = 1 0 0
  (1) pair sw, perpetual
      attributes: full, newton on
      pair build: full/bin/atomonly
      stencil: full/bin/3d
      bin: standard
Per MPI rank memory allocation (min/avg/max) = 4.226 | 4.227 | 4.229 Mbytes
Step Temp E_pair E_mol TotEng Press 
       0            0     15766663            0     15766663     10754402 
     741            0   -50293.287            0   -50293.287   -1275.1722 
Loop time of 2.04925 on 12 procs for 741 steps with 4457 atoms

99.7% CPU use with 12 MPI tasks x no OpenMP threads

Minimization stats:
  Stopping criterion = max force evaluations
  Energy initial, next-to-last, final = 
         15766662.5254     -50292.9314542      -50293.286949
  Force two-norm initial, final = 6.24532e+08 4.13307
  Force max component initial, final = 3.90865e+08 0.985116
  Final line search alpha, max atom move = 0.0520898 0.0513145
  Iterations, force evaluations = 741 1000

MPI task timing breakdown:
Section |  min time  |  avg time  |  max time  |%varavg| %total
---------------------------------------------------------------
Pair    | 1.3783     | 1.6295     | 1.9663     |  13.1 | 79.52
Neigh   | 0.026429   | 0.028245   | 0.030502   |   0.7 |  1.38
Comm    | 0.02721    | 0.36565    | 0.61805    |  27.8 | 17.84
Output  | 0          | 0          | 0          |   0.0 |  0.00
Modify  | 0          | 0          | 0          |   0.0 |  0.00
Other   |            | 0.02583    |            |       |  1.26

Nlocal:    371.417 ave 398 max 352 min
Histogram: 1 2 1 2 2 2 0 1 0 1
Nghost:    1055.83 ave 1076 max 1039 min
Histogram: 2 3 0 0 1 2 0 2 0 2
Neighs:    0 ave 0 max 0 min
Histogram: 12 0 0 0 0 0 0 0 0 0
FullNghs:  12007.2 ave 13380 max 10950 min
Histogram: 1 2 1 1 3 2 0 1 0 1

Total # of neighbors = 144086
Ave neighs/atom = 32.328
Neighbor list builds = 42
Dangerous builds = 0

# Create Cavity with Hard sphere "indent" potential

region		    cavity sphere 25.71 25.71 25.71 13.8 side in
delete_atoms	    region cavity
Deleted 367 atoms, new total = 4090
fix 		    5 all indent 10.0 sphere 25.71 25.71 25.71 13.8

# Equilibration of molecular water

# Add velocity/set timestep

velocity	    all create ${TEMP} ${SEED} rot yes dist gaussian
velocity	    all create 215 ${SEED} rot yes dist gaussian
velocity	    all create 215 11210 rot yes dist gaussian
timestep	    5.0

# Define output

compute			1 all msd
thermo	    	50
thermo_style	custom step temp press vol etotal ke pe c_1[4]

# Neighbor lists

neigh_modify    delay 0 every 1 check yes

# Set fixes

fix             1 all momentum 10 linear 1 1 1 rescale
fix             2 all nve
fix             3 all temp/csvr ${TEMP} ${TEMP} 500.0 ${SEED}
fix             3 all temp/csvr 215 ${TEMP} 500.0 ${SEED}
fix             3 all temp/csvr 215 215 500.0 ${SEED}
fix             3 all temp/csvr 215 215 500.0 11210
fix             4 all press/berendsen iso ${PRES} ${PRES} 1000.0 modulus 20000
fix             4 all press/berendsen iso 1.0 ${PRES} 1000.0 modulus 20000
fix             4 all press/berendsen iso 1.0 1.0 1000.0 modulus 20000

# Run 1 ns equilibration

dump		    1 all atom 2000 ${DIR}/eq.${NAME}-${TEMP}.dump
dump		    1 all atom 2000 run_2/eq.${NAME}-${TEMP}.dump
dump		    1 all atom 2000 run_2/eq.hardcavity_freeze_2-${TEMP}.dump
dump		    1 all atom 2000 run_2/eq.hardcavity_freeze_2-215.dump

reset_timestep  0

run	            200000
Per MPI rank memory allocation (min/avg/max) = 4.49 | 4.492 | 4.493 Mbytes
Step Temp Press Volume TotEng KinEng PotEng c_1[4] 
       0          215   -480.30561    135955.32   -42971.404    2620.5344   -45591.938            0 
      50    134.95226   -231.83972    135708.17   -42404.863      1644.87   -44049.733   0.21763569 
     100    151.34729    105.40098    135524.83   -41985.781    1844.7014   -43830.483   0.35761668 
     150    162.13581    31.291921    135513.19   -41682.549    1976.1976   -43658.747   0.50488429 
     200    172.81879   -221.91655    135205.66   -41460.129    2106.4075   -43566.536   0.65286306 
     250    184.34231    -65.31919    135060.66   -41218.642    2246.8622   -43465.504   0.80092282 
     300    188.91041   -161.02939    134740.42   -41087.815    2302.5407   -43390.356   0.96481246 
     350    195.86783    -150.1212    134612.03   -40910.917    2387.3413   -43298.259    1.1205522 
     400    200.56473    135.70272    134577.16   -40770.234    2444.5897   -43214.824    1.2992027 
     450    201.76062   -83.218344    134582.76   -40704.593    2459.1658   -43163.759    1.5050325 
     500    204.82643   -66.514119     134426.8   -40654.366    2496.5336     -43150.9    1.6809736 
     550    209.75574   -127.54744    134289.47   -40564.797    2556.6146   -43121.411    1.8581493 
     600     212.5455    39.713656     134057.9   -40514.754    2590.6176   -43105.372    2.0991178 
     650    211.02425   -105.16638    133994.55   -40523.093    2572.0758   -43095.169    2.3657401 
     700    212.50165    36.585787    133721.82   -40533.906    2590.0833    -43123.99    2.6084006 
     750    214.41925   -10.444128    133663.05   -40522.636     2613.456   -43136.092    2.7744184 
     800     213.9871   -67.039839    133514.73   -40495.145    2608.1887   -43103.333    2.9120918 
     850    211.75569    -235.2321     133325.7   -40497.646     2580.991   -43078.637    3.1233941 
     900    215.40948    -150.9889    133020.27   -40454.972    2625.5254   -43080.497    3.2613031 
     950    218.30007    51.183898    132912.36   -40446.215    2660.7575   -43106.973    3.3827183 
    1000     215.7285    168.74941    132994.34   -40415.926    2629.4138    -43045.34    3.5563844 
    1050    212.10606      -176.69    132974.78   -40435.377    2585.2615   -43020.638    3.7571991 
    1100     217.9994     5.361256    132749.03   -40437.084    2657.0927   -43094.177    3.8978398 
    1150    213.29787   -47.739975    132727.56   -40466.834    2599.7879   -43066.622     4.060329 
    1200    215.43648     77.88531    132691.85   -40468.616    2625.8545    -43094.47    4.2711739 
    1250    212.84832    -219.5308    132523.75    -40451.79    2594.3087   -43046.099    4.5235397 
    1300     218.6349   -148.84067    132386.42   -40386.139    2664.8385   -43050.977     4.751232 
    1350    212.51585    -72.96302     132215.3   -40389.607    2590.2563   -42979.863    4.9967227 
    1400    219.11377    90.512396    132194.91   -40345.601    2670.6753   -43016.276    5.2006019 
    1450    220.18611    140.50191    132368.37   -40318.352    2683.7455   -43002.097    5.3607549 
    1500    214.72275   -145.86136    132474.92   -40357.138    2617.1552   -42974.293    5.5866013 
    1550     216.3465   -150.82516    132275.75   -40399.968    2636.9464   -43036.915    5.8478453 
    1600    214.82673    138.14186    132275.61   -40405.596    2618.4225   -43024.019    6.0502138 
    1650    217.38873   -134.07432    132291.92   -40387.124    2649.6496   -43036.773    6.2310983 
    1700    215.34055    87.770683    132311.02   -40450.672    2624.6852   -43075.358    6.3505605 
    1750    220.50334   -156.45027    132161.12   -40437.385     2687.612   -43124.997    6.4537571 
    1800    218.41142    3.0648119    132131.64   -40428.149    2662.1146   -43090.263    6.5790293 
    1850    217.28584   -98.070084    132110.62   -40460.976    2648.3955   -43109.372    6.7380321 
    1900    215.89907    -190.5293    131939.12   -40500.609    2631.4928   -43132.101    6.8891828 
    1950    211.49087    62.196644    131887.33   -40523.512    2577.7632   -43101.275    7.1676086 
    2000    217.10462    81.109866     131844.8   -40511.622    2646.1867   -43157.808    7.4189191 
    2050     215.4359    45.428149     131865.1   -40543.534    2625.8475   -43169.382    7.6013807 
    2100    213.75264    4.6373083    132080.58   -40537.568     2605.331   -43142.899    7.7893312 
    2150    217.08871   -96.489336    131997.43    -40523.33    2645.9927   -43169.323     7.908203 
    2200    212.62839    121.38311    131888.78   -40537.541     2591.628   -43129.169    8.1761201 
    2250    213.51758   -50.931682    131808.88   -40501.079    2602.4659   -43103.545    8.4278438 
    2300    218.39757    48.280245    131775.19   -40479.224    2661.9458    -43141.17     8.582213 
    2350    213.91486   -61.559171    131758.87   -40497.356    2607.3081   -43104.664      8.82639 
    2400    219.92772    55.051915    131739.82    -40465.47    2680.5961   -43146.066    8.9625307 
    2450    216.95602   -116.87963     131838.1   -40496.068    2644.3755   -43140.443    9.0193264 
    2500    214.20943    23.913684    131862.05   -40525.781    2610.8985    -43136.68    9.1671008 
    2550    215.96707   -4.3567234    131881.06   -40553.117    2632.3216   -43185.439    9.2834754 
    2600    210.40971   -83.733816    131813.76   -40585.392    2564.5856   -43149.978    9.3727444 
    2650    211.80409     -29.3151    131814.45     -40634.2     2581.581   -43215.781      9.59842 
    2700    212.00562     80.09406    131830.51   -40652.917    2584.0374   -43236.954    9.7534807 
    2750    216.43222    30.439565    131965.91   -40599.896    2637.9911   -43237.887    9.8783605 
    2800    215.50538    3.6161261    131983.29   -40609.332    2626.6942   -43236.027    10.022472 
    2850    210.69347   -190.85275    131970.21   -40619.729    2568.0441   -43187.773    10.159647 
    2900    217.17932    144.67682    131963.39   -40570.291    2647.0971   -43217.388     10.32159 
    2950    215.71712   -94.254454    131845.23   -40528.551    2629.2751   -43157.826    10.534168 
    3000    213.72216   -5.7256755    131851.18   -40524.733    2604.9594   -43129.693    10.704636 
    3050    217.47525   -11.469145    131839.55   -40502.948    2650.7041   -43153.652    10.937161 
    3100    219.00246    224.70488    131977.89   -40473.623    2669.3186   -43142.941    11.224764 
    3150    217.33286    58.137364    131949.66   -40476.799    2648.9685   -43125.768    11.412659 
    3200    216.02507    94.356783     131942.7   -40461.803    2633.0286   -43094.832    11.552857 
    3250    222.85152    96.815249    131933.12   -40442.029     2716.233   -43158.262    11.662126 
    3300     219.0627   -178.06513     132045.8   -40485.751    2670.0528   -43155.804    11.865102 
    3350    217.93723    98.849769    132007.69   -40456.978     2656.335   -43113.313    11.993054 
    3400    215.59561   -14.706146    132055.44   -40531.331     2627.794   -43159.125    12.192054 
    3450    220.22819   -22.278449    132096.84   -40510.944    2684.2584   -43195.203    12.265221 
    3500    216.54586    29.280101    132202.41   -40537.033    2639.3763   -43176.409    12.321863 
    3550    215.13268   -32.080774    132058.37   -40494.205    2622.1516   -43116.356    12.541173 
    3600     216.0369   -54.064773    131934.46   -40525.566    2633.1727   -43158.739     12.73075 
    3650    213.88679   -87.924504    131757.06   -40524.739    2606.9661   -43131.705    12.813537 
    3700    215.96917   -135.38049    131659.05   -40464.356    2632.3472   -43096.703    13.018792 
    3750    218.44556    98.997832    131710.84   -40475.656    2662.5308   -43138.187    13.152524 
    3800    219.92155    119.65609    131924.12   -40490.703    2680.5209   -43171.224    13.347051 
    3850    219.37966    8.0514136    131991.58   -40447.808    2673.9161   -43121.724    13.552047 
    3900    216.89648    91.920767    131964.25    -40474.86    2643.6498    -43118.51    13.776669 
    3950    218.37829  -0.99149348    131988.57   -40490.612    2661.7108   -43152.322    13.817066 
    4000    217.46621    181.29598    132017.32     -40523.3     2650.594   -43173.894    13.979957 
    4050    215.61713  -0.70876124    132028.11   -40544.493    2628.0564    -43172.55     14.20605 
    4100    219.90888   -112.82927    132106.55   -40538.142    2680.3665   -43218.509    14.432697 
    4150    215.38656     -132.441    132231.13   -40547.748     2625.246   -43172.994     14.65986 
    4200    219.05881    68.364998    132178.36   -40542.209    2670.0054   -43212.215    14.787054 
    4250    217.10497    24.010312    132243.11   -40586.411    2646.1909   -43232.602    14.965069 
    4300    215.77686   -127.83922    131944.79   -40639.489    2630.0032   -43269.492    15.166835 
    4350     214.3937   -34.542765    131912.75   -40657.483    2613.1445   -43270.627    15.296244 
    4400     213.0127    218.81402    132073.33   -40619.872    2596.3121   -43216.184     15.45236 
    4450    213.52166    90.553732    132157.71   -40610.767    2602.5157   -43213.282    15.621874 
    4500    213.53604   -19.296825    132273.91   -40620.874    2602.6909   -43223.565    15.764111 
    4550    215.96594   -146.57859    132165.89   -40643.929    2632.3078   -43276.236    15.916204 
    4600    215.82143   -185.65026    132026.61   -40664.016    2630.5465   -43294.562    16.035004 
    4650    216.46862     133.6752    132062.35   -40670.731    2638.4347   -43309.165    16.185147 
    4700    217.26206   -108.23483    132057.86   -40709.878    2648.1056   -43357.983     16.37561 
    4750    213.15112   -37.098786    132116.05   -40716.112    2597.9993   -43314.111     16.46315 
    4800    213.58997    25.823938    132204.99   -40760.553    2603.3482   -43363.901    16.575558 
    4850    213.22476   -101.41988     132197.1   -40737.777    2598.8969   -43336.674    16.684428 
    4900    214.83012   -45.716725    132090.12   -40703.855    2618.4639   -43322.319    16.791594 
    4950    211.27842   -49.734852    132020.92   -40705.789    2575.1739   -43280.963    16.896462 
    5000    221.84998    144.17795    132045.11   -40683.866    2704.0256   -43387.892    16.978084 
    5050    212.70795   -44.836839    132117.35   -40677.741    2592.5978   -43270.339    17.128404 
    5100    217.47291     174.7244    132162.06   -40598.939    2650.6756   -43249.615    17.292343 
    5150    212.72151    25.347136    132194.42   -40640.928     2592.763   -43233.691    17.445003 
    5200    219.98511   -122.44432     132206.6   -40624.693    2681.2956   -43305.988    17.502176 
    5250    215.42073   -68.860454    132157.24    -40646.11    2625.6625   -43271.772    17.717593 
    5300    218.66525   -13.940178    132056.67   -40629.306    2665.2084   -43294.514    17.850613 
    5350    217.36349   -49.994055    131989.75   -40612.127    2649.3419   -43261.469    17.985626 
    5400    213.64183   -65.506411    131890.22   -40641.474    2603.9804   -43245.454    18.154417 
    5450    217.78644    -7.155428    131787.56   -40642.437    2654.4971   -43296.934    18.298293 
    5500    210.96017    15.447789    131876.45   -40619.935    2571.2948   -43191.229    18.577292 
    5550    217.18191    -50.11454    131818.94   -40625.017    2647.1287   -43272.145    18.694095 
    5600    213.55066    6.8150755    131845.65   -40652.055    2602.8691   -43254.924    18.723032 
    5650    219.01503    44.836072     131879.4   -40580.797    2669.4718   -43250.268    18.718491 
    5700    214.29083    92.192645    131981.74   -40581.506    2611.8907   -43193.397    18.815084 
    5750    213.36349    141.66019       132164   -40617.711    2600.5878   -43218.299    18.968738 
    5800    211.77864    48.939769    132259.05    -40602.04    2581.2708   -43183.311    19.069688 
    5850    218.07306   -164.64662    132256.15   -40560.284    2657.9905   -43218.274    19.239827 
    5900    213.09241    55.080274    132136.22   -40580.261    2597.2838   -43177.544    19.544991 
    5950    214.18415    96.572233    132140.84   -40568.054    2610.5904   -43178.644    19.664953 
    6000    215.58737   -93.949398    132134.25   -40559.328    2627.6937   -43187.021    19.708635 
    6050    215.14666    32.472139    132212.92   -40574.052     2622.322   -43196.374    19.926466 
    6100    213.94392    42.162189    132116.61   -40534.036    2607.6624   -43141.699    20.131312 
    6150    215.68417   0.12872006    132063.59   -40531.461    2628.8735   -43160.335    20.307991 
    6200    221.38268   -106.45922    131969.36   -40528.116      2698.33   -43226.446    20.434344 
    6250    218.98735   -121.65513       131949   -40549.287    2669.1344   -43218.422    20.531054 
    6300     214.5458    81.964881    131914.63   -40498.824    2614.9984   -43113.823    20.711189 
    6350    216.81843   -230.05608    131775.14   -40523.113    2642.6985   -43165.811    20.812549 
    6400    214.59724   -88.343657    131603.18   -40572.233    2615.6254   -43187.858    20.998658 
    6450    220.81578   -176.98295    131667.05   -40585.249    2691.4203   -43276.669    21.146748 
    6500    216.43004    109.52446       131765    -40584.83    2637.9645   -43222.795    21.382332 
    6550    213.63728   -32.286361    131741.43   -40572.861    2603.9249   -43176.786    21.514572 
    6600    217.28048   -80.331232    131629.77   -40572.168    2648.3302   -43220.498     21.70919 
    6650    218.12933    39.435984    131573.37   -40552.212    2658.6764   -43210.888    21.907538 
    6700    216.72573   -188.14344    131568.32   -40607.979    2641.5686   -43249.548    22.035969 
    6750    214.96289  -0.80989893    131512.91   -40614.724    2620.0821   -43234.806    22.060412 
    6800    216.67545   -139.15266    131662.69   -40623.587    2640.9557   -43264.543    22.130414 
    6850    215.09346     20.13491     131756.4   -40581.031    2621.6736   -43202.704    22.400825 
    6900    220.10588   -2.2746171    131739.36   -40574.003    2682.7676   -43256.771     22.56342 
    6950    218.77134   -78.872117    131729.51   -40608.763    2666.5016   -43275.264    22.819168 
    7000    213.74771      34.5228    131677.99   -40615.695    2605.2709   -43220.966    23.071859 
    7050    214.62274   -78.648882    131714.96   -40631.901    2615.9362   -43247.837    23.293577 
    7100    217.39859    -48.44915    131622.08   -40627.141    2649.7697   -43276.911    23.383608 
    7150    218.17307    165.73783     131790.9   -40580.074    2659.2095   -43239.284    23.651611 
    7200    217.68775   -29.732204    131840.75   -40530.726    2653.2941    -43184.02    23.721651 
    7250    224.69246    170.21713    131954.79   -40520.464    2738.6713   -43259.135    23.970051 
    7300    216.73092   -58.490824    132140.99   -40565.311    2641.6319   -43206.943    24.037943 
    7350     214.5778     -120.859    132083.48   -40599.709    2615.3885   -43215.097    24.131841 
    7400    216.02638   -104.01656    131883.03   -40534.952    2633.0445   -43167.996    24.250454 
    7450    217.47023   -178.95139    131654.17   -40557.257    2650.6429     -43207.9    24.501329 
    7500    222.10083    47.166273    131585.46   -40541.539    2707.0831   -43248.622    24.646769 
    7550    219.67513    87.448298    131614.56   -40562.411    2677.5174   -43239.928    24.774257 
    7600    217.75235   -89.164001    131722.97    -40539.55    2654.0815   -43193.631    25.064538 
    7650    220.95185    85.870929    131641.78   -40573.699    2693.0788   -43266.777    25.181271 
    7700    216.63736    104.64179    131692.32   -40587.337    2640.4915   -43227.828    25.279845 
    7750    214.32094   -73.405629    131737.36   -40625.652    2612.2577   -43237.909    25.385707 
    7800    217.35599   -11.166265    131659.47   -40602.457    2649.2505   -43251.708    25.704516 
    7850    209.64784    28.483318    131679.54    -40641.22    2555.2995    -43196.52    26.003123 
    7900    216.16564   -76.892499     131676.6   -40626.143    2634.7419   -43260.885    26.156107 
    7950    216.92639   -3.6920077    131728.84   -40589.972    2644.0143   -43233.987    26.266244 
    8000    216.16956    18.306958    131678.87   -40622.414    2634.7896   -43257.204    26.339596 
    8050     217.6769   -25.570779    131711.53    -40621.33    2653.1619   -43274.492    26.372956 
    8100    217.74927    71.189288    131824.97   -40571.319     2654.044   -43225.363    26.740276 
    8150    219.91985   -13.510262    131937.36   -40555.816    2680.5002   -43236.316     26.93805 
    8200    217.70613    19.181465    131944.19   -40569.988    2653.5182   -43223.506    27.007565 
    8250    216.06426    87.708102    131928.73    -40596.76    2633.5062   -43230.266    27.116354 
    8300     214.7633   -72.774914    132078.95   -40647.261    2617.6494   -43264.911    27.203415 
    8350    215.88449   -138.33197    132029.23   -40636.038    2631.3151   -43267.353    27.282976 
    8400    215.30882    58.672627     131983.2   -40653.547    2624.2985   -43277.846    27.372798 
    8450    217.61347    102.17683    131998.48   -40701.211    2652.3888     -43353.6    27.703024 
    8500     209.7134    -25.78665    131940.88   -40719.502    2556.0985   -43275.601    27.970194 
    8550    212.19327  -0.16500902    131830.84   -40690.591    2586.3245   -43276.916    28.217028 
    8600    213.00882    97.377631    131710.06   -40707.814    2596.2649   -43304.079     28.28534 
    8650    210.87814   -101.95956    131743.07   -40748.913     2570.295   -43319.208    28.483454 
    8700     212.5935    90.625624     131721.7   -40710.948    2591.2027   -43302.151    28.579099 
    8750    216.59774   -25.268169     131847.4   -40708.846    2640.0086   -43348.854    28.715083 
    8800    216.74164   -27.334373    131773.79   -40691.116    2641.7624   -43332.879    28.781565 
    8850      211.583   -168.32341    131609.28   -40715.559    2578.8862   -43294.445    28.822494 
    8900    216.94752    33.712692    131655.23    -40704.72    2644.2718   -43348.992    28.897253 
    8950    215.10136      160.095     131692.8   -40693.602    2621.7699   -43315.372    28.969336 
    9000    213.37164    75.446973    131617.05   -40708.299    2600.6872   -43308.987    29.102284 
    9050    211.42053     17.23107    131736.99   -40684.395     2576.906   -43261.301    29.283125 
    9100    214.53463   -52.163519    131732.64   -40663.018    2614.8622    -43277.88    29.514032 
    9150    214.00891   -20.187531    131769.24    -40676.97    2608.4545   -43285.425    29.665049 
    9200    210.31869   -122.59492    131599.94   -40718.448    2563.4761   -43281.924    29.825081 
    9250    212.60429    162.01309    131612.97   -40672.331    2591.3343   -43263.665     30.02565 
    9300    214.40265    86.609168    131756.48   -40609.635    2613.2536   -43222.888    30.330226 
    9350    215.34202    17.761154    131700.62    -40556.18    2624.7032   -43180.883    30.437836 
    9400    211.92858    2.7240234    131559.85   -40605.893    2583.0984   -43188.991    30.648589 
    9450    211.63391     22.91881    131503.92   -40582.585    2579.5068   -43162.092    30.712848 
    9500    216.95096     24.32226    131516.52   -40613.115    2644.3138   -43257.429    30.742839 
    9550    211.76255    3.8337893    131681.22   -40677.581    2581.0746   -43258.656    30.938455 
    9600    212.07622   -15.077826     131699.2   -40652.612    2584.8979    -43237.51    31.162984 
    9650    211.86691   -11.240753    131700.32   -40662.529    2582.3467   -43244.875    31.255514 
    9700    218.83423    23.751622    131792.14   -40583.281    2667.2681   -43250.549    31.603346 
    9750    214.26432   -139.33159    131735.35   -40539.923    2611.5676   -43151.491    31.767629 
    9800     217.2338   -11.441975    131539.78   -40558.003    2647.7612   -43205.764     31.82326 
    9850    213.81827   -115.15443    131535.14   -40557.257    2606.1308   -43163.387    31.952047 
    9900    209.41022    270.42449       131520   -40607.471    2552.4032   -43159.874    32.141937 
    9950       215.21    73.051259    131701.15   -40607.171    2623.0941   -43230.265    32.279117 
   10000    218.53929   -26.484778    131902.86   -40591.932    2663.6732   -43255.605    32.605625 
   10050    213.93022   -2.8923772    131909.23   -40566.706    2607.4954   -43174.201    32.719333 
   10100    221.05466    -73.63057    131809.13    -40560.82    2694.3319   -43255.151    32.931153 
   10150    214.94225    118.57273    131798.69    -40544.57    2619.8306     -43164.4    33.135335 
   10200    217.12194   -31.076918    131649.49   -40559.006    2646.3978   -43205.404    33.152897 
   10250    216.17066    83.392419    131782.06   -40538.456     2634.803   -43173.259     33.47072 
   10300    210.58469    30.489839    131781.58   -40549.478    2566.7183   -43116.196    33.759567 
   10350    211.78432   -51.451871    131714.22   -40583.201    2581.3401   -43164.542    33.809025 
   10400    215.01738   -162.71818    131602.83   -40561.382    2620.7463   -43182.128     33.87176 
   10450    215.55199    55.575955    131580.22   -40586.792    2627.2624   -43214.055    34.182668 
   10500    217.16862    185.07986    131522.95   -40596.192    2646.9668   -43243.159    34.214611 
   10550    215.34762   -47.609981    131620.97   -40605.703    2624.7715   -43230.474     34.43122 
   10600    213.98302    90.476129    131571.79   -40629.035     2608.139   -43237.174    34.598854 
   10650    213.90222    5.1805791    131489.33   -40649.497    2607.1541   -43256.651    34.711562 
   10700    215.78365     233.8604    131685.03   -40635.732     2630.086   -43265.818      34.8371 
   10750    215.58606    55.394688    131801.77   -40674.481    2627.6776   -43302.159    34.929143 
   10800    216.52651    44.908402    131992.16   -40663.671    2639.1403   -43302.812    35.059049 
   10850    218.11067    77.608477    132087.59   -40643.478     2658.449   -43301.927    35.250301 
   10900    211.22698    48.789225    132046.01   -40659.674    2574.5468   -43234.221    35.227499 
   10950    217.92268    16.062797     132075.2   -40640.913    2656.1576   -43297.071     35.37274 
   11000    214.00826   -16.645067    132014.82   -40660.602    2608.4466   -43269.049    35.590156 
   11050    217.88386   -29.458526     132071.6   -40643.817    2655.6845   -43299.501    35.818575 
   11100     215.1065   -15.334253    132032.14   -40619.413    2621.8325   -43241.246    36.066542 
   11150    219.56777    7.0901226    132032.89     -40589.1    2676.2088   -43265.309    36.286163 
   11200    218.91778    34.947468    131937.34   -40616.511    2668.2864   -43284.797    36.252921 
   11250    217.06349    51.958036    131927.24   -40657.814    2645.6854     -43303.5    36.472553 
   11300    215.90563    47.302968    131989.13   -40604.909    2631.5727   -43236.482    36.638489 
   11350    218.34917   -69.372128    132139.01   -40618.468    2661.3559   -43279.824    36.770679 
   11400    214.45716    -124.3787    132033.84   -40590.641     2613.918   -43204.559    36.821682 
   11450    218.04128   -106.46061    131978.85   -40633.741    2657.6031   -43291.344    36.923769 
   11500    218.38159    99.701009    132031.92   -40641.118    2661.7511   -43302.869    37.178855 
   11550    216.23232   -4.6478085    131993.83   -40622.344    2635.5546   -43257.898    37.190355 
   11600    216.25188    99.838034    132033.07    -40665.97     2635.793   -43301.763    37.317374 
   11650    218.14759   -63.046364    131904.08   -40677.274    2658.8989   -43336.172    37.309969 
   11700     212.1191    27.171914    131925.07   -40697.114    2585.4205   -43282.535    37.618885 
   11750    214.14635   -45.788846    131919.46   -40735.359    2610.1296   -43345.489    37.760154 
   11800    218.16869    83.512764    131963.94   -40703.616    2659.1561   -43362.772    37.897298 
   11850    212.45626   -253.81293    131854.31   -40716.427    2589.5299   -43305.957    38.133461 
   11900    216.68909    84.855084    131788.76   -40723.257     2641.122   -43364.379    38.378512 
   11950    210.79322    171.37126    131834.86   -40687.028      2569.26   -43256.288    38.484149 
   12000    217.24509    7.2851893    131972.43   -40597.598    2647.8989   -43245.497    38.520533 
   12050    218.06117   -91.426448    131820.25   -40648.092    2657.8456   -43305.937      38.6752 
   12100    213.71208    20.135337    131837.08   -40697.136    2604.8366   -43301.972    38.749595 
   12150    215.44665    87.181772    131953.95   -40648.627    2625.9785   -43274.606    38.972539 
   12200    211.61918    111.85563    131920.04   -40678.808    2579.3272   -43258.135    39.272853 
   12250    212.81938   -9.9796477    131969.59   -40703.616    2593.9559   -43297.572    39.585415 
   12300    214.06881    30.878827     131835.1   -40765.945    2609.1845    -43375.13    39.806698 
   12350    211.05815   0.42572691    131901.81   -40781.947    2572.4891   -43354.436    39.808529 
   12400    213.31086   -56.156279    131910.31   -40755.981    2599.9463   -43355.928    40.058656 
   12450    212.70836    -35.53285    131877.91   -40756.177    2592.6028    -43348.78    40.186857 
   12500    209.62315    85.905589     131887.5   -40812.482    2554.9986    -43367.48    40.268375 
   12550    210.54182    142.00672    132010.99   -40831.666    2566.1957   -43397.862    40.369547 
   12600    211.92782   -3.2719731    132093.15   -40754.438     2583.089   -43337.528    40.415981 
   12650    210.62434   -40.764703    132124.77   -40811.858    2567.2016   -43379.059    40.387766 
   12700    205.69977    94.300192    132101.61   -40826.643    2507.1783   -43333.821    40.418757 
   12750    214.04673    103.05546    132210.63   -40793.951    2608.9154   -43402.866    40.475147 
   12800    214.40613   -40.198125    132197.89   -40747.496     2613.296   -43360.792    40.493195 
   12850    213.43303   -76.155001    132071.35   -40772.734    2601.4354    -43374.17    40.562768 
   12900    215.68245   -117.43372     132075.2   -40720.843    2628.8525   -43349.695    40.645727 
   12950    217.54832    187.33476    132157.65   -40701.546    2651.5947   -43353.141    40.849153 
   13000    215.25551   -12.380934    132194.01   -40674.921    2623.6488    -43298.57    41.128758 
   13050    213.72391    90.395972    132164.62   -40686.367    2604.9808   -43291.348    41.406889 
   13100    218.57227   -91.483527    132118.85   -40726.685    2664.0752    -43390.76    41.559775 
   13150    219.17501   -5.4935933    132049.32   -40713.899    2671.4217   -43385.321    41.626957 
   13200    212.76991    25.714264    132076.98   -40694.483     2593.353   -43287.836    41.662034 
   13250    212.30593    77.354102    131995.04   -40693.928    2587.6976   -43281.625    41.992583 
   13300    213.26506   -44.040069    132007.66   -40726.748    2599.3881   -43326.136    42.171373 
   13350    213.79141   -56.319032    131836.89   -40724.154    2605.8035   -43329.958    42.407839 
   13400    207.18841    27.782249    131725.46   -40769.721    2525.3227   -43295.044    42.455986 
   13450    213.35438    64.649393    131643.22   -40761.272    2600.4767   -43361.749    42.340601 
   13500    213.42072   -5.4372831    131690.19   -40745.627    2601.2853   -43346.912    42.443051 
   13550    215.59844   -126.51481    131612.05    -40652.52    2627.8286   -43280.349    42.553167 
   13600    216.55695   -56.011114    131508.82   -40627.351    2639.5114   -43266.863    42.745687 
   13650     218.1583    35.701391    131558.31   -40598.213    2659.0295   -43257.243    42.877649 
   13700    220.00343    16.330897    131588.59   -40582.558    2681.5189   -43264.077    43.022065 
   13750    214.47674   -85.687555    131458.86   -40605.811    2614.1566   -43219.968    43.358434 
   13800    218.75525   -65.954951    131507.36   -40635.234    2666.3054   -43301.539    43.336213 
   13850     217.5462    5.1888114    131441.97   -40636.101    2651.5689    -43287.67    43.527889 
   13900    219.31749   -87.716839    131397.63   -40596.049    2673.1583   -43269.207    43.696041 
   13950    218.20865    30.776971    131472.85   -40592.289    2659.6432   -43251.932    43.966332 
   14000    219.25038    -36.85698    131429.52   -40564.224    2672.3404   -43236.564    44.105469 
   14050    215.53275   -56.598727     131490.9   -40637.242    2627.0279    -43264.27    44.181929 
   14100    215.70244   -70.023987    131494.42   -40601.081    2629.0962   -43230.177     44.46708 
   14150    218.69717   -146.55622    131409.62   -40604.143    2665.5975   -43269.741    44.654407 
   14200    214.50869    75.794356    131241.69   -40676.619     2614.546   -43291.165    44.801951 
   14250    215.16833   -45.711039    131458.12   -40671.432    2622.5861   -43294.018    45.076481 
   14300    214.44785    126.87898    131454.99   -40663.604    2613.8045   -43277.408    45.140512 
   14350    215.03761    31.391229    131551.67    -40690.19    2620.9929   -43311.183    45.109645 
   14400    213.09337   -54.867218       131599   -40702.203    2597.2955   -43299.498    45.235801 
   14450    212.38234   -52.676484    131490.87   -40709.427    2588.6291   -43298.056    45.305876 
   14500    211.61556   -36.883962    131551.79   -40717.373    2579.2831   -43296.656    45.554814 
   14550    215.47222     43.08195    131524.77   -40713.183    2626.2901   -43339.473     45.78933 
   14600     214.6477   -21.478819    131654.39   -40691.065    2616.2404   -43307.305    46.106418 
   14650    213.12045     83.11476    131625.91   -40695.434    2597.6254   -43293.059    46.139624 
   14700     216.5541   -27.589234    131665.85   -40678.467    2639.4766   -43317.943    46.249995 
   14750    213.25279    20.720196    131767.51   -40642.811    2599.2385   -43242.049    46.311746 
   14800    219.42548   -30.240264    131643.25   -40642.736    2674.4745   -43317.211    46.460323 
   14850    220.19589    32.077692    131638.11   -40578.228    2683.8648   -43262.092    46.591098 
   14900    215.71982    124.61393     131729.2   -40620.994     2629.308   -43250.302    46.800328 
   14950    214.03465    67.389406    131770.49   -40631.333    2608.7682   -43240.102    46.894587 
   15000    217.66516   -54.669223    131705.97   -40638.094    2653.0189   -43291.113    47.054709 
   15050    218.59544   -47.205335       131535   -40597.074    2664.3576   -43261.432    47.192178 
   15100      215.914     36.94394    131462.67   -40633.546    2631.6747   -43265.221    47.260407 
   15150    217.78865    115.58642    131424.93   -40644.435    2654.5239   -43298.959    47.445127 
   15200    216.37143    226.92265    131497.57   -40719.043    2637.2501   -43356.293    47.504816 
   15250    214.00386    105.28776    131498.24   -40693.253     2608.393   -43301.646    47.628293 
   15300    213.21032    100.23239    131573.51   -40729.287    2598.7209   -43328.008    47.917557 
   15350    214.20997    38.384245     131690.1   -40734.245    2610.9051    -43345.15    48.089965 
   15400    213.39614     102.0574    131628.23   -40715.029    2600.9857   -43316.015    48.224165 
   15450     212.6871    122.62773    131658.74   -40767.482    2592.3436   -43359.825    48.544345 
   15500     214.8799    15.467298    131725.77   -40708.345    2619.0706   -43327.415     48.71855 
   15550     212.1311    11.984463    131726.55   -40700.448    2585.5667   -43286.014    48.938688 
   15600    216.76377    44.051403    131799.02   -40671.944    2642.0323   -43313.976    49.006257 
   15650    215.99292    153.49695    131833.89    -40637.75    2632.6367   -43270.387    49.235645 
   15700    218.34076    106.21651    131931.51   -40618.828    2661.2534   -43280.082    49.428443 
   15750    219.53957   -86.848776    131880.68   -40578.839    2675.8651   -43254.704    49.471415 
   15800    219.33635    24.790741    131866.47   -40598.189    2673.3881   -43271.577     49.48259 
   15850     217.4596    -114.8376    131873.51   -40625.076    2650.5133   -43275.589    49.664859 
   15900    218.98349    120.98948    131909.02   -40627.049    2669.0873   -43296.136    49.964879 
   15950    218.40749   -149.38027    131716.77   -40595.781    2662.0668   -43257.848    50.136797 
   16000    220.34289     27.37013    131691.09   -40575.509    2685.6564   -43261.165     50.36572 
   16050    216.01384    -15.28927    131688.36    -40556.91    2632.8916   -43189.801    50.622874 
   16100    220.02323   -70.767101     131577.6   -40538.039    2681.7602   -43219.799    50.676898 
   16150     219.3687     225.3914    131639.99   -40547.613    2673.7825   -43221.395    50.860885 
   16200    219.22524    84.345484     131726.8   -40604.705    2672.0339   -43276.739    51.129747 
   16250    213.43831    39.370616    131697.95   -40672.929    2601.4998   -43274.429    51.277653 
   16300    211.34432    118.56954    131740.51   -40690.836     2575.977   -43266.813    51.465597 
   16350    216.11341   -84.779139    131733.24   -40694.107    2634.1052   -43328.212    51.734276 
   16400    218.40962    77.875297    131699.16   -40686.342    2662.0928   -43348.435      51.9496 
   16450    210.36465    107.75905    131893.35   -40686.742    2564.0363   -43250.779    52.130268 
   16500    217.97994    96.271368     131851.1   -40681.984    2656.8555    -43338.84    52.092451 
   16550    217.73077    136.81711    131996.75   -40699.658    2653.8185   -43353.477    52.194421 
   16600    213.26187   -48.871945    131981.74   -40750.768    2599.3492   -43350.117    52.276143 
   16650     212.5025    155.79418    132054.45   -40711.008    2590.0936   -43301.102    52.443219 
   16700    210.01467     -182.198    131902.44   -40702.134    2559.7706   -43261.905    52.637719 
   16750    217.93573    -72.98041    131840.21   -40672.114    2656.3167   -43328.431    52.749785 
   16800    214.63842    70.432034    131797.83   -40681.006    2616.1273   -43297.134     53.02321 
   16850    215.45678    72.831214    131804.48   -40704.237    2626.1019   -43330.339    53.189502 
   16900    213.05069   -50.098184    131774.93   -40725.616    2596.7752   -43322.392    53.269115 
   16950    212.70098   -16.424005    131753.33   -40746.225    2592.5128   -43338.737    53.535691 
   17000    211.38815     51.53302    131797.63   -40779.925    2576.5112   -43356.436    53.696725 
   17050    214.51385   -51.521562     131860.2   -40757.508     2614.609   -43372.117    53.939586 
   17100    212.57601    41.398776    131980.22    -40753.51    2590.9895     -43344.5    54.011922 
   17150     214.6233   -21.220962    132077.59   -40726.234     2615.943   -43342.177    54.266113 
   17200    211.76146    163.31627    132159.11   -40725.091    2581.0614   -43306.152    54.395795 
   17250    212.00686    43.578061    132190.15    -40731.52    2584.0525   -43315.572    54.539444 
   17300    217.04756   -214.83597    132168.89   -40686.698    2645.4912   -43332.189    54.556649 
   17350    211.37962    8.9808915    132211.71   -40716.989    2576.4073   -43293.397    54.724998 
   17400    212.30144   0.87715197    132203.33   -40761.325     2587.643   -43348.968    54.957058 
   17450    213.19279    197.03009    132333.18   -40731.686    2598.5072   -43330.193    55.137033 
   17500    212.80584   -50.207066    132262.44   -40742.596    2593.7908   -43336.387    55.306128 
   17550    212.83197    69.822429    132259.62   -40712.394    2594.1093   -43306.504    55.558034 
   17600    214.46793  -0.45578399    132299.66    -40707.51    2614.0493   -43321.559    55.597641 
   17650    210.86952      8.97846    132282.59   -40742.629    2570.1899   -43312.819    55.648413 
   17700    216.78253    4.5928165    132260.07    -40706.77    2642.2609   -43349.031    55.785993 
   17750     216.2722    100.09324    132277.96   -40727.302    2636.0407   -43363.342    55.874539 
   17800    214.17936    -63.43483    132225.16   -40688.282     2610.532   -43298.814    56.180109 
   17850    218.52534    42.574788    132198.55    -40709.91    2663.5032   -43373.413     56.26207 
   17900     213.2601    85.927215     132195.4   -40731.662    2599.3276    -43330.99    56.554981 
   17950    210.70668   -82.771938     132206.8   -40704.128    2568.2052   -43272.334    56.684131 
   18000     216.0215    68.257333    132125.96   -40731.741    2632.9851   -43364.726    56.601721 
   18050    214.11087   -39.929478    132133.47   -40750.836    2609.6972   -43360.533    56.616207 
   18100    214.64618    12.896209    132004.21   -40737.283    2616.2218   -43353.505    56.758249 
   18150    211.64965     -92.8054     132030.7   -40714.848    2579.6986   -43294.547    56.876067 
   18200    213.69042   -35.776643    132032.77    -40767.22    2604.5725   -43371.793    56.859379 
   18250    215.42448   -113.70003    132040.28   -40744.785    2625.7082   -43370.493      56.8646 
   18300    213.13851   -2.3358235    131969.25   -40758.132    2597.8457   -43355.977    56.947275 
   18350     214.7314     77.72656    131947.86   -40791.355    2617.2606   -43408.616    56.950064 
   18400    218.57092    307.35787       132162   -40757.388    2664.0587   -43421.447    57.246721 
   18450    216.37397   -15.434113    132408.15   -40740.629    2637.2812    -43377.91    57.461198 
   18500    216.86499    -36.80241    132457.28    -40737.26    2643.2659   -43380.526    57.475034 
   18550    214.44285  -0.96936085    132438.54   -40680.525    2613.7436   -43294.269    57.426288 
   18600    224.47449   -29.255311    132568.28   -40648.103    2736.0146   -43384.118    57.653911 
   18650    217.05589    130.75968    132550.71   -40698.071    2645.5928   -43343.664    57.761882 
   18700    219.09163    113.10837    132682.03   -40677.558    2670.4054   -43347.963    57.786419 
   18750    221.26894    26.520469    132626.04   -40632.356    2696.9436     -43329.3     57.89552 
   18800    219.22559   -17.726953    132706.87   -40629.339    2672.0381   -43301.377    58.007735 
   18850    216.42176   -201.28826    132565.82   -40660.632    2637.8637   -43298.496    58.287543 
   18900    217.08235   -105.63945    132446.63   -40719.426    2645.9152   -43365.341    58.470428 
   18950    218.30688    10.323871    132340.33   -40716.289    2660.8404    -43377.13    58.700091 
   19000    222.54558    -203.2498    132255.95   -40678.298     2712.504   -43390.802    58.872947 
   19050    216.22565   -63.546643    132143.67   -40698.565    2635.4733   -43334.038    58.990747 
   19100    216.99224    82.496139     132108.4   -40704.639    2644.8169   -43349.456    58.990938 
   19150    217.38591   -74.585761    132163.77   -40686.312    2649.6151   -43335.927    59.200584 
   19200    218.73466   -40.813879    132241.59   -40723.786    2666.0545   -43389.841    59.442635 
   19250    215.31245   -14.292853    132188.48   -40709.415    2624.3428   -43333.758    59.519862 
   19300    217.00641    42.252759    132165.07   -40764.174    2644.9897   -43409.163    59.699397 
   19350    216.00223    141.93695    132113.51   -40779.677    2632.7501   -43412.427    59.692172 
   19400    213.62372   -96.424443    132068.16   -40745.528    2603.7597   -43349.288    59.831849 
   19450    217.10046    -107.6875    131977.72   -40702.607     2646.136   -43348.743    59.965986 
   19500    220.31215     159.9091    132075.13   -40683.284    2685.2818   -43368.566    60.028337 
   19550    213.87224    -112.4816    132077.07   -40716.973    2606.7887   -43323.762    60.106801 
   19600    215.64869    40.985424    132050.89   -40728.134     2628.441   -43356.575    60.356592 
   19650    216.08303    40.047434    132144.84   -40748.699     2633.735   -43382.434    60.568685 
   19700    214.28513    8.4721782    132137.38   -40791.195    2611.8213   -43403.017    60.653457 
   19750    213.93908   -42.656634    132010.87   -40755.179    2607.6033   -43362.783    60.528494 
   19800    214.06033    -34.86407     131959.4   -40729.309    2609.0813   -43338.391    60.717761 
   19850    214.89793    55.532017    132119.64    -40736.76    2619.2903    -43356.05    60.949583 
   19900    215.04343    31.892501    132164.42   -40723.381    2621.0638   -43344.444    61.319405 
   19950    211.38333   -64.214188    132187.29   -40720.001    2576.4526   -43296.454    61.414729 
   20000    216.55283    152.53621    132156.78   -40685.053    2639.4611   -43324.515    61.455502 
   20050    216.69389    61.319989    132173.47    -40708.92    2641.1805     -43350.1    61.483052 
   20100     214.9562    33.960878    132217.22   -40747.882    2620.0005   -43367.882    61.698302 
   20150     216.6062    44.668259    132216.47   -40709.357    2640.1116   -43349.469    62.005802 
   20200    216.41554    29.683006     132221.8   -40767.756    2637.7877   -43405.544    62.116665 
   20250    213.47488   -68.235131    132227.57   -40787.822    2601.9454   -43389.767     62.39554 
   20300    209.69045   -117.40717    132157.05   -40813.663    2555.8188   -43369.482    62.511407 
   20350    213.61922   -62.673145    132101.81   -40771.587    2603.7047   -43375.292    62.679372 
   20400    218.52854    54.547305    131991.19     -40730.9    2663.5422   -43394.442    62.799876 
   20450    216.34091    34.140628    132038.38   -40732.042    2636.8782    -43368.92    62.898418 
   20500    215.16434   -19.531221    132102.06   -40762.293    2622.5375   -43384.831    63.197384 
   20550    216.07475    76.813817    132205.55   -40753.849     2633.634   -43387.483    63.183932 
   20600    216.81023   -1.8955351    132374.77   -40784.095    2642.5985   -43426.694     63.25671 
   20650    215.10604   -23.029013    132375.38   -40766.206     2621.827   -43388.032    63.233992 
   20700    216.79239   -135.83637    132360.41   -40758.169    2642.3811    -43400.55    63.222043 
   20750    213.37793    12.021759    132307.08   -40775.008    2600.7638   -43375.772    63.329491 
   20800    213.48697   -22.285753     132168.5   -40777.506    2602.0928   -43379.598    63.496677 
   20850    217.09177    83.272751    132156.25   -40771.595      2646.03   -43417.625    63.470901 
   20900    214.34565    112.74709    132235.58   -40750.539    2612.5589   -43363.098    63.490746 
   20950     215.8564    1.9627049    132342.37   -40791.979    2630.9727   -43422.951    63.736347 
   21000    216.64349   -59.440442    132371.66   -40761.552    2640.5662   -43402.119    63.822968 
   21050     214.7738    165.24113    132414.15   -40767.058    2617.7775   -43384.835    63.989354 
   21100    218.70852    197.34219    132443.26   -40758.933    2665.7359   -43424.669    64.030943 
   21150     217.3957    59.794904       132474   -40780.365    2649.7345   -43430.099    64.279202 
   21200    216.21662    -29.43464    132357.77   -40786.127    2635.3632    -43421.49    64.546181 
   21250    215.22692   -137.98809     132225.3   -40848.242    2623.3003   -43471.542    64.717604 
   21300    216.62699   -91.518029    132173.05   -40832.839     2640.365   -43473.204    64.777987 
   21350    216.77435   -92.780082    132165.85   -40832.873    2642.1611   -43475.034    65.079958 
   21400    212.97567   -41.656672    132130.76   -40857.123    2595.8609   -43452.983    65.301624 
   21450     213.2602    72.546039    132056.68   -40820.682    2599.3288   -43420.011    65.125363 
   21500     215.3621    202.93541    132111.52   -40755.666     2624.948   -43380.614      65.2334 
   21550    216.62608   -85.134151    132144.89   -40728.535     2640.354   -43368.889    65.269599 
   21600    218.04293   -42.749809    132130.75   -40701.585    2657.6234   -43359.209    65.450192 
   21650    217.04951   -164.70552    132002.06   -40665.383     2645.515   -43310.898    65.502926 
   21700    212.71804     109.9096    131936.69   -40687.324    2592.7207   -43280.044    65.709121 
   21750    215.64701   0.78757408    131993.02     -40707.2    2628.4206   -43335.621    65.951251 
   21800    216.39663   -22.307277    131986.32   -40693.191    2637.5573   -43330.748     66.03416 
   21850    212.80674   -8.8372943    131943.73   -40699.409    2593.8018   -43293.211    66.353915 
   21900    212.21688     46.78959    131848.36   -40744.403    2586.6123   -43331.015    66.509633 
   21950    214.00632    43.130312    131920.76   -40713.058     2608.423   -43321.481    66.707257 
   22000    214.38126   -58.605219    131871.19   -40705.879    2612.9929   -43318.872     66.78535 
   22050    215.09411    61.612853    131839.54   -40693.952    2621.6815   -43315.633     66.87647 
   22100    210.89627    103.23248     131960.7   -40754.537     2570.516   -43325.053    67.140652 
   22150    208.00403    65.479312    131979.29   -40775.836    2535.2638     -43311.1    66.917706 
   22200    212.06583    -25.55633    132031.84    -40785.48    2584.7713   -43370.251    67.236065 
   22250    208.55466   -9.6467871    131939.11   -40782.211    2541.9752   -43324.186    67.582171 
   22300    210.75686    82.730188    131983.18   -40778.234    2568.8168   -43347.051    67.925978 
   22350    208.91406   -101.15214     131945.1   -40783.804    2546.3558    -43330.16    68.045285 
   22400    214.27852    41.719429    131836.56    -40748.38    2611.7407   -43360.121    68.230886 
   22450    214.54073    59.532139    131912.22   -40771.156    2614.9367   -43386.093    68.492526 
   22500    210.59527    30.834913     132062.7   -40716.768    2566.8473   -43283.615    68.533609 
   22550    213.16523   -25.390161    132017.63   -40697.964    2598.1713   -43296.135    68.494282 
   22600    216.66606    149.63747    132009.23   -40692.392    2640.8413   -43333.233    68.610905 
   22650     211.3775   -171.98276    132091.66   -40674.082    2576.3815   -43250.464    68.809435 
   22700    213.47406    97.250863    132123.73   -40702.666    2601.9355   -43304.602    69.151939 
   22750    218.37254    -17.61795    132105.48   -40669.363    2661.6407   -43331.004    69.291908 
   22800    216.18063     37.65064    132133.48   -40697.167    2634.9246   -43332.091    69.393423 
   22850    212.91092    9.2574138    132163.64   -40691.931    2595.0717   -43287.003    69.528551 
   22900    213.66192   -25.323952    132120.92   -40735.434    2604.2252   -43339.659    69.553431 
   22950    211.64881    1.2129547    132217.75   -40721.532    2579.6883    -43301.22    69.851869 
   23000    216.32811    50.422505    132240.83   -40655.098    2636.7222    -43291.82    70.013604 
   23050     218.7116    98.942631    132189.54   -40622.137    2665.7734    -43287.91    70.033344 
   23100    217.14765    147.24933    132309.86   -40624.601    2646.7112   -43271.312    70.074178 
   23150    217.00491   -40.934102    132283.48    -40604.31    2644.9714   -43249.281    69.961025 
   23200    214.89075   -57.408443    132138.06   -40626.711    2619.2029   -43245.914    69.933664 
   23250    210.48826   -197.02443     132081.9    -40704.57     2565.543   -43270.113    69.909209 
   23300    216.04498   -117.13206    131959.28   -40681.216    2633.2712   -43314.488    70.085012 
   23350    214.72428    -93.35124    131840.61   -40676.723    2617.1738   -43293.897     70.29289 
   23400    214.34166    135.61218    132025.33   -40661.386    2612.5103   -43273.897    70.407004 
   23450    214.65382    108.13468    131983.32   -40667.824     2616.315   -43284.139    70.575704 
   23500    212.05615   -72.495519    131955.35   -40692.096    2584.6532   -43276.749    70.604717 
   23550    217.93124    180.37159    132020.71   -40704.264     2656.262   -43360.526    70.940252 
   23600    215.10458    86.773993    132119.16   -40668.812    2621.8091   -43290.621    71.096459 
   23650     217.5793    29.619979    132230.96   -40666.061    2651.9724   -43318.033    71.072517 
   23700    216.15933   -93.181541    132107.11   -40654.856     2634.665   -43289.521    71.436082 
   23750    216.80162   -96.760467    132042.32   -40614.904    2642.4936   -43257.397    71.816495 
   23800     218.8446    36.825789    132035.97   -40597.425    2667.3945    -43264.82    72.172941 
   23850    211.08985   -46.154693    131906.15    -40661.21    2572.8754   -43234.085    72.304595 
   23900    210.72444    176.10291    131974.22   -40669.501    2568.4217   -43237.923    72.202918 
   23950    218.21024   -29.646059    131980.16   -40614.548    2659.6626    -43274.21    72.245649 
   24000    212.32228    -187.8984    132005.27   -40644.794    2587.8969   -43232.691    72.391503 
   24050    215.45252   -8.0365812    131962.31   -40642.809      2626.05   -43268.859    72.422354 
   24100     214.1913     75.51634    131837.96   -40645.216    2610.6775   -43255.893    72.338438 
   24150    215.37219    94.574796    131995.22   -40649.098    2625.0709   -43274.169    72.565075 
   24200    216.88101     200.3888    132007.17   -40620.704    2643.4612   -43264.165    72.635498 
   24250    216.31142   -187.55256    131889.15   -40673.683    2636.5188   -43310.202    72.752362 
   24300    216.65318    3.0941827    131809.68   -40697.533    2640.6843   -43338.217     73.21714 
   24350    214.09419    32.536309     131815.1   -40661.928    2609.4939   -43271.422    73.244762 
   24400     213.0571     38.29837    131814.31   -40652.503    2596.8533   -43249.356    73.630613 
   24450    219.96113    136.22014     131693.7   -40614.803    2681.0033   -43295.806    73.699609 
   24500    213.10649    13.955705    131742.02   -40615.622    2597.4554   -43213.078    73.827624 
   24550    214.16122   -74.895969    131685.72    -40646.02     2610.311   -43256.331    73.978433 
   24600    214.93941    62.627782    131610.25   -40603.328    2619.7959   -43223.123    74.010677 
   24650    210.31729    30.312478    131693.97   -40643.322    2563.4591   -43206.781      74.1505 
   24700    215.49863   -20.274828    131667.86    -40639.94     2626.612   -43266.552    74.128824 
   24750    214.52126   -11.742019    131522.89   -40662.141    2614.6994    -43276.84    74.036245 
   24800    213.17369    223.94485    131656.97   -40628.299    2598.2744   -43226.573    74.302475 
   24850    212.90584   -129.88089    131694.41   -40669.367    2595.0097   -43264.377    74.500973 
   24900    211.13019    2.9394243    131807.43   -40656.949    2573.3671   -43230.316    74.688858 
   24950    210.90843   -20.249462    131796.92   -40699.176    2570.6642    -43269.84     74.89412 
   25000    216.64648   -172.86205    131830.92   -40633.524    2640.6026   -43274.127    75.249554 
   25050    216.63653   -26.149802     131746.3   -40637.688    2640.4813   -43278.169     75.38172 
   25100    217.13039   -118.91051    131633.04   -40604.265    2646.5008   -43250.766    75.702505 
   25150    217.75886    49.366261    131561.72   -40635.902    2654.1609   -43290.063    76.015321 
   25200     219.4865    56.316451    131653.81   -40623.135    2675.2182   -43298.353    76.202424 
   25250    214.74228    101.35177    131734.67   -40657.543    2617.3932   -43274.936    76.404314 
   25300    218.87817   -56.609201    131742.56    -40637.36    2667.8037   -43305.164     76.58083 
   25350    216.61112     19.43395    131789.39    -40680.79    2640.1716   -43320.961    76.721493 
   25400    213.96711   -47.932336    131811.39   -40728.275     2607.945    -43336.22    76.840434 
   25450    210.98402    53.411136    131765.19   -40731.978    2571.5855   -43303.563    77.024911 
   25500    215.34197    31.636222    131841.04   -40712.007    2624.7025    -43336.71     77.31433 
   25550    217.12102   -70.595026    131841.32   -40707.018    2646.3866   -43353.405    77.418099 
   25600    218.78723   -37.016301    131776.87   -40741.642    2666.6952   -43408.337    77.502744 
   25650    209.90238   -14.591322     131836.9   -40733.933    2558.4019   -43292.335     77.93409 
   25700    212.84534    43.801927    131890.15   -40695.003    2594.2723   -43289.276    78.207518 
   25750    216.60258   -20.472759    131810.96    -40679.33    2640.0676   -43319.397    78.419057 
   25800    217.38551   -208.51343    131655.73   -40638.451    2649.6103   -43288.061    78.685984 
   25850    212.74537    14.241379    131608.83   -40673.271    2593.0538   -43266.325    78.544693 
   25900    213.84438    115.14207    131527.03   -40666.996    2606.4491   -43273.445    78.599337 
   25950    216.63835   -15.376934    131596.56   -40648.964    2640.5035   -43289.468    78.702988 
   26000    210.89337   -19.189862    131610.18    -40644.83    2570.4807   -43215.311    78.988633 
   26050    217.62619   -39.074663       131684   -40619.915    2652.5439   -43272.459     79.25423 
   26100    217.61177    56.006079     131699.8   -40615.785    2652.3681   -43268.153    79.408116 
   26150    215.41578    -63.23766    131662.82   -40621.414    2625.6022   -43247.016    79.686249 
   26200    216.28835   -63.420132    131806.07   -40645.217    2636.2375   -43281.454     79.78211 
   26250    213.05054   -36.319585    131774.29   -40698.293    2596.7734   -43295.066    79.665118 
   26300    213.70302    -32.25655     131760.6   -40704.361    2604.7262   -43309.087    79.611818 
   26350    211.90849    171.20196    131711.58   -40684.694    2582.8535   -43267.548    79.680282 
   26400    215.45421    26.990707    131748.99   -40721.795    2626.0705   -43347.866    79.708928 
   26450    213.63507    1.5755986    131603.94   -40673.397    2603.8979   -43277.295    79.563633 
   26500    220.58138   -27.611485    131716.41   -40591.679    2688.5633   -43280.242    79.456597 
   26550    217.57382    70.215581    131701.51   -40579.756    2651.9056   -43231.662    79.743088 
   26600    220.96695    78.712151    131689.54   -40531.422    2693.2628   -43224.684    79.840713 
   26650    218.09065   -102.16759    131631.54   -40578.998     2658.205   -43237.202    80.079753 
   26700    217.09325    73.887449    131662.32   -40579.927    2646.0481   -43225.975    80.260812 
   26750    214.66732    91.616592    131777.37    -40618.09    2616.4796    -43234.57    80.435775 
   26800     218.1834    91.169257    131815.93   -40615.202    2659.3355   -43274.538    80.566699 
   26850    214.64574   -16.101873    131869.81   -40612.123    2616.2165   -43228.339      80.8371 
   26900    217.74767   -90.079216    131766.74   -40619.736    2654.0246   -43273.761    80.880498 
   26950    215.29793    99.769715     131871.8   -40605.054    2624.1658    -43229.22    81.121232 
   27000    217.07037   -77.559596    131851.59   -40576.898    2645.7692   -43222.668    81.197242 
   27050    215.27675    39.576401    131701.34    -40602.72    2623.9076   -43226.628    80.980831 
   27100    213.76414   -5.0662097    131647.63   -40668.029    2605.4711     -43273.5    80.920632 
   27150    212.67477    85.785977    131609.37   -40690.516    2592.1933   -43282.709    80.933422 
   27200    212.08659    47.732784    131683.34     -40704.1    2585.0243   -43289.125     80.88604 
   27250    213.57604    84.459239     131741.2   -40700.948    2603.1785   -43304.126    81.112045 
   27300    218.27275   -109.65959    131803.67   -40652.926    2660.4244    -43313.35    81.409261 
   27350    218.77838    1.4105691     131863.1   -40624.818    2666.5873   -43291.405    81.517506 
   27400    218.56008   -93.933313    131841.38    -40667.35    2663.9266   -43331.277    81.644732 
   27450    214.49624   -35.532733    131872.12   -40693.071    2614.3944   -43307.465    82.050214 
   27500    213.82524    25.362064    131938.11   -40688.925    2606.2159    -43295.14    82.131244 
   27550    215.71716    -43.58769    131747.21   -40670.643    2629.2756   -43299.918    82.254777 
   27600    210.38507   -145.48772    131725.75   -40711.951    2564.2852   -43276.237    82.464135 
   27650    215.06765   -28.400904    131629.88   -40695.732    2621.3589   -43317.091     82.55409 
   27700    214.00903    29.777145    131678.97   -40691.096     2608.456   -43299.552    82.560327 
   27750    217.74071    199.95309    131810.96    -40684.78    2653.9397    -43338.72    82.790996 
   27800    213.55466     70.42242    132063.16   -40701.543    2602.9178    -43304.46    83.094361 
   27850    216.23697   -190.27271    132015.77   -40756.211    2635.6113   -43391.823    83.363306 
   27900    213.32871     -52.2008     132047.3   -40814.134    2600.1639   -43414.298    83.559782 
   27950    213.56637    86.632724    131960.34   -40822.099    2603.0606    -43425.16    83.559568 
   28000    208.91916    67.346412    131953.85   -40773.206    2546.4179   -43319.624    83.703107 
   28050    218.04236     11.95513    131946.11   -40703.939    2657.6163   -43361.555    83.781301 
   28100    214.40105     126.9268    132081.56   -40679.237    2613.2341   -43292.471    83.946956 
   28150    212.06915   -14.328784     132082.1   -40719.089    2584.8117     -43303.9    84.212793 
   28200    217.94667     54.31943    132067.46   -40739.548      2656.45   -43395.998    84.507141 
   28250    216.22399   -76.739422    131981.54   -40700.981    2635.4531   -43336.435    84.434143 
   28300    218.70922    10.156454    131993.19   -40713.017    2665.7444   -43378.761    84.564557 
   28350    215.81876    64.379067    132058.74   -40684.499    2630.5139   -43315.012     84.77347 
   28400    216.45893   -38.812402    131971.95    -40713.95    2638.3167   -43352.267    84.893804 
   28450    213.39977    49.750336    131972.08   -40714.507      2601.03   -43315.537    85.041091 
   28500    218.37967   -170.39437    131889.93   -40690.026    2661.7277   -43351.754    85.173717 
   28550    215.95857    123.07045    131765.42   -40735.076     2632.218   -43367.294    85.234824 
   28600    215.07029    62.649906    131780.63   -40720.297    2621.3912   -43341.688    85.322498 
   28650    216.91871    2.7540134     131878.7   -40718.564    2643.9207   -43362.484    85.488599 
   28700    211.07877     18.97561    131771.07   -40718.176    2572.7404   -43290.917    85.570019 
   28750    215.20519   -95.159746    131708.97   -40701.498    2623.0354   -43324.533    85.696035 
   28800    213.53337    102.98125    131812.17   -40722.265    2602.6583   -43324.923    85.647295 
   28850    216.66218    154.38344    131936.59   -40709.856     2640.794    -43350.65     85.81657 
   28900    214.06072   -29.441655    132034.54   -40748.999    2609.0859   -43358.085    85.968096 
   28950    212.50433    115.06806    132110.83   -40779.971    2590.1159   -43370.087    86.104567 
   29000    214.89762    27.489359    132109.63    -40784.39    2619.2866   -43403.677    86.197237 
   29050    215.97002   -68.597302     131974.4   -40780.073    2632.3575    -43412.43    86.341541 
   29100    217.91336   -20.883049    131994.77   -40777.917     2656.044   -43433.961    86.564277 
   29150    213.51964    72.220436    131922.77   -40822.064     2602.491   -43424.555    86.822782 
   29200    212.11059   -53.903443    131947.94   -40810.572    2585.3168   -43395.889    86.918944 
   29250    215.35105     73.29349    131932.95   -40797.511    2624.8132   -43422.324    87.093258 
   29300    213.37869   -9.0055934    131884.34   -40784.967     2600.773    -43385.74    87.326601 
   29350    212.64575    50.148054    131887.91   -40805.167    2591.8395   -43397.006    87.419438 
   29400    218.63356    12.095756    131936.26   -40756.591    2664.8222   -43421.414    87.506834 
   29450    215.80776   -1.8905807    132001.62   -40740.348    2630.3799   -43370.728    88.032007 
   29500    213.58871    36.976391     132063.6   -40722.945    2603.3329   -43326.278    88.259431 
   29550    220.87745   -74.034393     131966.7   -40707.839    2692.1719   -43400.011    88.207101 
   29600    214.44931   -179.56626    131801.19   -40707.352    2613.8223   -43321.174    88.346659 
   29650    216.28586   -60.016742    131801.24   -40722.415    2636.2071   -43358.622    88.365619 
   29700    215.47084    159.78607    131929.01   -40729.449    2626.2734   -43355.723    88.899759 
   29750    212.91486    -153.5282    131910.37    -40835.77    2595.1196    -43430.89    88.846271 
   29800    210.46658    40.467845    131846.57   -40829.077    2565.2787   -43394.355    89.070448 
   29850    213.69491   -55.035662    131796.58    -40826.96    2604.6273   -43431.588    89.187098 
   29900    210.61313      8.26094    131729.91   -40812.348    2567.0649   -43379.413     89.37509 
   29950    213.34325   -243.00161    131664.95   -40733.083    2600.3411   -43333.425    89.654445 
   30000    212.55964    232.66293     131751.3   -40735.016      2590.79   -43325.806    89.746075 
   30050     211.5976    83.274979    131894.12   -40707.389    2579.0642   -43286.454    89.890772 
   30100    210.02237   -46.839329    131787.37   -40732.006    2559.8644    -43291.87    89.796434 
   30150    216.94633    93.968661    131861.14   -40674.363    2644.2573    -43318.62    90.134247 
   30200    221.41387   -32.347972    131971.32   -40679.878    2698.7101   -43378.588    90.141181 
   30250    218.16764   -35.139215    131958.95   -40663.129    2659.1433   -43322.272    90.044004 
   30300    212.97706    174.70563    131940.08   -40651.016    2595.8778   -43246.894    90.119297 
   30350    220.80775   -99.002304    131884.77   -40663.936    2691.3225   -43355.258    90.227008 
   30400    216.43639    73.562997    131775.45   -40653.973    2638.0419   -43292.015    90.052977 
   30450    213.42964   -128.96301    131828.22   -40659.011    2601.3941   -43260.405    90.299425 
   30500     214.8383    176.50273    131830.61   -40646.747    2618.5636    -43265.31     90.56993 
   30550     218.8786   -82.678897    131852.37   -40689.116    2667.8089   -43356.925    90.673812 
   30600    213.59345    46.043246    131787.56   -40687.076    2603.3906   -43290.467    90.867632 
   30650    215.73387    60.950337    131869.83   -40644.278    2629.4792   -43273.757     90.97413 
   30700    217.75563    77.788942     131849.6   -40617.773    2654.1215   -43271.894    91.229068 
   30750    218.60433   -207.62398    131886.23   -40637.215    2664.4659   -43301.681    91.421725 
   30800    217.40814   -101.90595    131764.17   -40631.652    2649.8861   -43281.539    91.748468 
   30850    216.18977   -62.018231    131813.04   -40661.326    2635.0359   -43296.362    91.933539 
   30900    211.41914    -82.99262    131630.57   -40670.278     2576.889   -43247.167    92.294295 
   30950    214.34973   -80.114727    131527.98   -40669.422    2612.6086    -43282.03    92.307549 
   31000     208.8437   -7.3859577     131528.7   -40685.745    2545.4982   -43231.244    92.534309 
   31050    218.48923    115.73226    131546.18    -40647.59     2663.063   -43310.653     93.00497 
   31100    217.99641    219.80583    131561.94   -40600.906    2657.0563   -43257.962    93.327325 
   31150    221.09272    92.681494    131799.02   -40604.537    2694.7958   -43299.333    93.520164 
   31200    217.03871    1.2872862    131793.56   -40618.882    2645.3834   -43264.265    93.688851 
   31250    216.72334    30.052892     131907.7   -40593.821    2641.5394    -43235.36    93.974568 
   31300     218.3719   -25.259479    131861.19   -40592.332    2661.6329   -43253.965    94.085926 
   31350    214.32676    23.814806    131976.46   -40606.329    2612.3286   -43218.657    94.348445 
   31400    215.56338   -27.699514    131949.02    -40600.95    2627.4012   -43228.351    94.754992 
   31450    220.85684   -103.66776    131945.71   -40649.157    2691.9207   -43341.078    94.880747 
   31500    217.35904    49.914541    131906.51   -40651.112    2649.2876     -43300.4    94.841699 
   31550    218.05824   -9.0320938    131984.14   -40677.326    2657.8099   -43335.136     94.81363 
   31600    220.14076     20.18778    132094.66   -40655.772    2683.1928   -43338.965    95.007706 
   31650    213.70916   -72.530826    132018.93   -40655.408     2604.801   -43260.209    95.067594 
   31700    216.49547   -77.339671    131979.26   -40669.155     2638.762   -43307.917     95.23446 
   31750    212.47878   -36.864425    131996.18   -40711.747    2589.8045   -43301.552    95.474417 
   31800    214.33037   -71.021856    132009.64   -40700.449    2612.3726   -43312.822     95.50469 
   31850    213.97519   -59.080594     132143.4   -40683.173    2608.0436   -43291.216     95.85365 
   31900    216.62353    73.199226    132132.71   -40676.941    2640.3229   -43317.264    95.921978 
   31950    218.33785    53.633769    132292.51   -40718.628     2661.218   -43379.846    96.241009 
   32000    214.87261   -8.4464106    132343.33   -40684.204    2618.9817   -43303.186    96.687124 
   32050    213.14384    59.400507    132384.54   -40698.313    2597.9106   -43296.224    96.833575 
   32100    216.90872    103.09036    132403.29   -40691.349     2643.799   -43335.148    96.983809 
   32150    216.94191   -101.04937    132312.34   -40678.793    2644.2035   -43322.996    97.092714 
   32200    218.49726   -144.23307    132214.03   -40708.675     2663.161   -43371.835    97.150895 
   32250    221.41815   -66.264198    132101.13   -40660.048    2698.7623    -43358.81    97.187095 
   32300    210.03692   -6.9716557    131806.06   -40760.384    2560.0417   -43320.426    97.338415 
   32350    213.82614   -26.940249    131900.95   -40729.326    2606.2269   -43335.553    97.315927 
   32400    215.58915   -97.230105    131778.95   -40742.388    2627.7153   -43370.103     97.20439 
   32450    211.17075    160.77492    131863.18   -40720.541    2573.8616   -43294.402    97.627523 
   32500    216.12368   -77.839535    132007.98   -40674.888    2634.2304   -43309.118     97.81958 
   32550    214.68322    58.577462    132080.32   -40688.569    2616.6734   -43305.243    98.267923 
   32600     216.2888   -5.4580162    132185.77   -40663.344    2636.2431   -43299.587    98.635906 
   32650     214.8681   -3.3047182    132141.71   -40650.351    2618.9268   -43269.278    98.875664 
   32700    217.21864    128.66949    132140.97   -40666.025    2647.5764   -43313.601    99.173417 
   32750    219.78518   -26.017625    132093.36   -40649.856    2678.8588   -43328.715    99.296963 
   32800    213.68125    24.624757    132072.16   -40689.276    2604.4608   -43293.737    99.401928 
   32850    213.20822    77.804535    132144.25   -40721.863    2598.6953   -43320.558    99.698542 
   32900    217.84032    135.00564    132069.41   -40706.739    2655.1538   -43361.893    99.741347 
   32950    212.84159    122.11023    132253.68   -40672.696    2594.2266   -43266.923    99.813314 
   33000    213.09167   -47.145092    132319.83   -40681.422    2597.2747   -43278.697    99.992947 
   33050    214.68544    107.29476    132406.87   -40705.506    2616.7004   -43322.206     100.1508 
   33100    216.98132   -54.964481    132505.57   -40626.552    2644.6838   -43271.235    100.35068 
   33150     219.9028   -10.114115    132476.03    -40611.14    2680.2924   -43291.433    100.63845 
   33200    218.51612   -13.013715    132570.07   -40642.391    2663.3907   -43305.782    100.83479 
   33250    217.32526    35.522187    132638.79   -40659.496    2648.8759   -43308.372    101.06783 
   33300     214.7329    38.711345    132705.99   -40748.976    2617.2789   -43366.255    101.15059 
   33350     212.9254     128.5621    132654.72   -40734.761    2595.2482    -43330.01    101.33403 
   33400    210.75282   -12.615406    132712.29   -40752.915    2568.7675   -43321.682    101.47142 
   33450    209.96112   -126.12319    132699.59   -40807.543    2559.1179    -43366.66     101.5796 
   33500    215.95014   -146.10713    132591.43   -40716.373    2632.1153   -43348.489    101.76718 
   33550    216.50401    122.74845    132506.96    -40707.82    2638.8661   -43346.686    101.90335 
   33600    213.88322   -61.674404    132498.47   -40699.102    2606.9226   -43306.025    101.84386 
   33650    216.53427    18.189455    132418.64   -40694.566     2639.235   -43333.801    101.78289 
   33700    219.46063   -35.853673    132431.07    -40644.31     2674.903   -43319.213    101.91548 
   33750    218.75928   -84.410065    132337.98   -40644.144    2666.3545   -43310.498    102.01145 
   33800    217.60012    -23.61546    132396.72   -40676.509    2652.2261   -43328.735    102.03476 
   33850    211.96615    47.276752    132425.71   -40718.497    2583.5562   -43302.053    102.11868 
   33900    217.60914   -36.327433    132381.14   -40695.109     2652.336   -43347.445    102.40028 
   33950    215.50473   -15.481438     132382.2   -40693.413    2626.6863   -43320.099    102.72339 
   34000    216.76309   -145.12774    132312.89   -40674.672    2642.0239   -43316.696    102.77612 
   34050    215.36852   -60.683803    132207.54   -40713.524    2625.0261    -43338.55    102.94381 
   34100    210.63652    32.623162    132219.17   -40703.032    2567.3501   -43270.382    103.28924 
   34150    214.47665   -160.63977    132113.59   -40679.925    2614.1556    -43294.08    103.38032 
   34200    211.06186    166.28647    131969.79   -40753.272    2572.5343   -43325.806    103.29064 
   34250    208.89795    127.76021    131977.38   -40745.831    2546.1594    -43291.99    103.48533 
   34300    213.17915   -111.69226    131976.68    -40759.72    2598.3409   -43358.061    103.83919 
   34350    211.12235    19.183298    131916.86   -40700.552    2573.2716   -43273.823    104.13654 
   34400    215.02485   -169.90995    131865.23   -40677.549    2620.8373   -43298.386    104.08161 
   34450    213.39733    43.932271    131892.71   -40652.646    2601.0003   -43253.647    104.38379 
   34500    218.78851    89.428238    132010.08   -40574.478    2666.7108   -43241.189    104.50227 
   34550     218.9514    56.435781    131992.63   -40553.134    2668.6962    -43221.83    104.69949 
   34600    217.87444   -64.578571    132099.36   -40566.875    2655.5697   -43222.445    104.90786 
   34650    215.33372   -39.864659    132106.42    -40599.68     2624.602   -43224.282    105.04519 
   34700    218.12156   -12.965197    132166.36   -40602.826    2658.5817   -43261.408    105.41225 
   34750    216.18638   -105.57643    132073.46   -40647.809    2634.9947   -43282.803    105.59614 
   34800    215.46954    195.06749    132039.39   -40658.986    2626.2575   -43285.244    105.71623 
   34850    216.91291   -39.534468    132022.12   -40675.022      2643.85   -43318.872    105.80566 
   34900     218.4697   -170.42817    132018.26   -40671.555     2662.825    -43334.38    106.14592 
   34950    214.97381    164.19068    132149.84   -40694.924    2620.2152   -43315.139    106.33368 
   35000    216.68336    124.17656    132217.84   -40685.726    2641.0521   -43326.779     106.4275 
   35050    215.56887    24.671428    132177.96   -40703.206    2627.4682   -43330.674    106.44545 
   35100    215.55628   -124.06288    132171.31   -40679.787    2627.3146   -43307.102    106.52038 
   35150    215.10153    18.623598    132106.73   -40688.868    2621.7719    -43310.64    106.62492 
   35200    214.09708   -98.768434    132086.13   -40759.445    2609.5292   -43368.974    106.65578 
   35250    212.33268    55.639681    132039.26     -40752.6    2588.0238   -43340.624    106.71902 
   35300    216.55653    66.541093    132059.93   -40716.751    2639.5062   -43356.257     106.7941 
   35350    219.56291    3.5437033    132198.31   -40652.876    2676.1497   -43329.026    106.82884 
   35400    211.58179    74.863448    132153.25   -40668.696    2578.8714   -43247.568    106.82185 
   35450     215.0725    48.977787    132223.28   -40671.444    2621.4181   -43292.862    107.13942 
   35500    211.50628    4.5832326    132223.18   -40638.879    2577.9512    -43216.83    107.36635 
   35550    216.70311     -225.748    132128.18   -40671.098    2641.2928   -43312.391    107.42815 
   35600    217.81515    -167.6271    131995.65   -40687.591     2654.847   -43342.438    107.63608 
   35650    215.78863    15.157868    132033.44   -40703.709    2630.1467   -43333.856    107.64962 
   35700    214.49463     180.6577    132260.64   -40713.184    2614.3747   -43327.558     107.8997 
   35750    214.70586    -94.32919     132269.7   -40740.158    2616.9493   -43357.107    107.87989 
   35800    214.65225   -22.521266    132079.91   -40757.213    2616.2958   -43373.509    108.01911 
   35850    208.82458    35.309424    131997.21   -40762.235    2545.2651     -43307.5    108.22995 
   35900    214.44153    53.803434    132041.55   -40736.045    2613.7276   -43349.772    108.38315 
   35950    209.25307    15.946024    132163.37   -40768.087    2550.4878   -43318.575    108.57398 
   36000    213.61165   -45.060736    132067.45   -40773.263    2603.6125   -43376.875    108.68621 
   36050    218.44549   -68.338524    132018.46   -40744.721    2662.5298   -43407.251    108.68262 
   36100    217.30652    73.516935    132052.74   -40718.057    2648.6475   -43366.704    108.91606 
   36150     217.5802    135.44009    132113.36   -40740.748    2651.9833   -43392.731    109.24736 
   36200    214.33474   -131.78153    132214.58   -40726.555    2612.4259   -43338.981    109.52321 
   36250    211.93269    164.91538    132243.24   -40736.565    2583.1485   -43319.713    109.59403 
   36300    213.01131    96.769353    132381.83   -40784.322    2596.2952   -43380.618    109.76433 
   36350    213.51805   -249.34381       132275   -40799.508    2602.4717   -43401.979    109.87157 
   36400    209.41366   -19.312566    132050.98   -40844.826    2552.4451   -43397.272    109.79433 
   36450    212.41044   -212.79594    131950.61   -40775.739    2588.9715    -43364.71    109.97906 
   36500    211.40043   -97.730229    131987.47   -40787.806     2576.661   -43364.467    109.91448 
   36550    211.27597    81.148844    132020.05   -40778.296     2575.144    -43353.44    109.70152 
   36600    208.14303   -172.77411    131862.39    -40812.51     2536.958   -43349.468    109.94264 
   36650     212.6906    14.876509    131791.62    -40806.85    2592.3862   -43399.236    110.32227 
   36700    214.80114    18.666952     131890.9   -40744.552    2618.1107   -43362.663    110.51261 
   36750    210.97359    105.01727    131936.51   -40754.226    2571.4584   -43325.685    110.46704 
   36800    216.13232     13.48201    131940.55   -40763.852    2634.3357   -43398.188    110.62903 
   36850    214.06651    177.64463    132030.09    -40720.21    2609.1566   -43329.367    110.84031 
   36900    214.77824   -11.096112    132131.24   -40739.477    2617.8315   -43357.308    111.00492 
   36950    216.86589   -199.87367    132060.76   -40729.858    2643.2769   -43373.135    111.25644 
   37000    221.44521    0.4543113    132008.97   -40705.274     2699.092   -43404.366    111.42768 
   37050    220.32313    30.346265    132139.03   -40687.818    2685.4156   -43373.234    111.80813 
   37100    218.34127    72.241632    132198.69   -40726.149    2661.2596   -43387.409    112.03582 
   37150    215.18572    84.743805    132219.93   -40739.082    2622.7981    -43361.88    112.18669 
   37200    215.37758   -123.71853    132071.85    -40769.58    2625.1366   -43394.717    112.36304 
   37250    210.13872    58.242586    131978.61   -40805.707    2561.2826    -43366.99    112.47573 
   37300    208.21573     45.14783    132106.95   -40827.542    2537.8441   -43365.386    112.69165 
[...]
  191000    214.88427   -47.161421    131711.56   -40711.518    2619.1239   -43330.642    540.66263 
  191050    211.80611     238.0499    131844.08   -40720.805    2581.6057    -43302.41    541.46399 
  191100    212.82429    90.337063    132063.58   -40772.436    2594.0157   -43366.451    542.25005 
  191150    212.81842   -52.066116    132093.39   -40762.111    2593.9442   -43356.055    542.06603 
  191200    211.82979   -1.3920919    132030.07   -40769.164    2581.8942   -43351.058    542.18175 
  191250    213.41611    -9.719794    131952.08   -40724.852    2601.2292   -43326.081    542.06055 
  191300    216.47908    63.062953     131956.4   -40712.192    2638.5623   -43350.754    542.15213 
  191350    216.33758    66.239088    132014.31   -40669.157    2636.8376   -43305.995    542.78387 
  191400    211.63691   -19.474105    131968.75   -40705.511    2579.5433   -43285.054    543.06958 
  191450    215.97904    15.829119     131943.5   -40655.894    2632.4675   -43288.362    543.39994 
  191500    219.54862   -151.63945    131824.78   -40639.148    2675.9755   -43315.124    542.39649 
  191550    217.74418   -12.986511    131829.26   -40600.209     2653.982   -43254.191    542.82942 
  191600     217.5971   -77.457384    131864.76    -40651.83    2652.1892   -43304.019    543.56042 
  191650    215.18591   -169.23446    131825.19   -40681.352    2622.8004   -43304.153    543.63879 
  191700    217.10952    56.491602     131804.5   -40671.066    2646.2464   -43317.313    543.59946 
  191750    216.14559   -24.530158    131855.13   -40680.358    2634.4974   -43314.855     543.9599 
  191800    214.06419    57.535221    131829.76   -40726.747    2609.1283   -43335.876    543.74265 
  191850    216.23203    144.25636    131880.75   -40722.047    2635.5511   -43357.598     543.7774 
  191900    213.33823    155.16369    131980.72   -40742.159    2600.2799   -43342.439    543.63928 
  191950    212.06205   -120.81065    131919.73   -40765.248    2584.7252   -43349.973    543.73258 
  192000    214.25652    15.578183    131886.72   -40748.523    2611.4725   -43359.996    543.90415 
  192050    213.87898    40.666725    131771.24   -40773.553    2606.8709   -43380.424     543.8916 
  192100    210.45957   0.59254247    131751.49   -40763.221    2565.1932   -43328.414    544.41772 
  192150    215.83029   -89.324916    131634.09   -40750.673    2630.6544   -43381.328    543.79941 
  192200    214.89457    23.913585    131552.79   -40732.083    2619.2495   -43351.332    543.09702 
  192250    211.33188    110.24728    131624.33   -40775.457    2575.8254   -43351.283    543.56043 
  192300    207.20226    -61.25447    131607.37   -40795.128    2525.4914    -43320.62    543.84082 
  192350    209.50774    -23.89549    131556.77   -40801.773    2553.5918   -43355.364     543.8395 
  192400    210.96667   -117.34972    131472.35   -40792.286    2571.3741    -43363.66    544.21161 
  192450    211.53482    5.6135158    131554.24   -40759.791    2578.2989    -43338.09    544.12163 
  192500    216.49616     175.2984    131610.57   -40751.151    2638.7705   -43389.921    544.24221 
  192550    213.16018    100.42922    131634.99   -40724.564    2598.1097   -43322.674    544.40072 
  192600    214.24947    108.57892    131750.26   -40731.959    2611.3866   -43343.346    544.59196 
  192650    213.69128   -44.953395    131850.28   -40759.646     2604.583   -43364.229    544.48438 
  192700    215.64737   -46.997707     131810.5   -40730.475     2628.425     -43358.9    544.96366 
  192750    210.57811    81.852007    131751.69   -40763.726     2566.638   -43330.364    545.33004 
  192800    212.00003    89.854771     131898.9   -40812.478    2583.9692   -43396.447    545.40247 
  192850    214.03696   -44.890076    131863.78   -40784.261    2608.7964   -43393.057    545.81604 
  192900    210.92448    101.34942    131839.31   -40745.924    2570.8598   -43316.783    545.43211 
  192950    212.85305   -84.218913     131962.5   -40798.197    2594.3663   -43392.563    546.17037 
  193000    213.20387    118.98518    131903.64   -40764.233    2598.6423   -43362.876    546.29166 
  193050    215.88345    106.53747    132005.45   -40730.671    2631.3024   -43361.974    546.42669 
  193100    214.86214   -23.313967    132106.96    -40739.23    2618.8541   -43358.084    546.73119 
  193150     212.6301    92.692686    132076.08   -40739.023    2591.6488   -43330.672    546.48438 
  193200    210.12268    49.498046    132017.28    -40799.08     2561.087   -43360.167    546.23046 
  193250    212.39723   -90.902163    131991.03   -40747.232    2588.8105   -43336.042    546.55154 
  193300    213.98765     193.5688    132076.67   -40719.485    2608.1954    -43327.68    546.81157 
  193350    212.27991    46.449337    132097.11   -40714.439    2587.3806    -43301.82    546.97859 
  193400    215.41382    144.79058    132188.41   -40697.925    2625.5783   -43323.503    547.53854 
  193450    219.34142   -129.27813    132067.55   -40712.365      2673.45   -43385.815    547.59813 
  193500    217.64428   -86.553954    132059.36   -40675.507    2652.7643   -43328.271    547.67214 
  193550    217.16035    190.26902     132107.3   -40703.987     2646.866   -43350.853     547.9295 
  193600    216.53217    19.218389    132198.45    -40672.02    2639.2093    -43311.23    548.51514 
  193650    217.51388   -52.954796    132181.04   -40630.505    2651.1749    -43281.68    548.52159 
  193700    222.19246   -78.289276    132170.84   -40574.151       2708.2   -43282.351    548.48844 
  193750    219.53388    24.379995    132140.12   -40631.175    2675.7958   -43306.971     548.7418 
  193800    218.36921    -86.05385    131932.28   -40637.563    2661.6002   -43299.163    548.08619 
  193850    214.86989     13.90603    131851.91   -40680.345    2618.9486   -43299.294    547.88964 
  193900    212.77484    21.790895    131853.22   -40663.119     2593.413   -43256.532    548.22422 
  193950    218.63298    163.33048    131877.93   -40655.256    2664.8151   -43320.071    548.55425 
  194000    216.55385    -5.394556    131990.12   -40676.492    2639.4736   -43315.965    549.13526 
  194050    216.31716     69.19586    131921.09   -40704.647    2636.5886   -43341.235    548.97993 
  194100     216.1155    29.030263    131980.67   -40693.163    2634.1308   -43327.293    549.60085 
  194150    216.06304    176.37542    132026.84   -40684.226    2633.4913   -43317.717     550.0403 
  194200    217.77477   -53.331741    132041.49   -40702.184    2654.3548   -43356.539    550.21082 
  194250    216.28985   -29.699886    131951.88   -40693.456    2636.2558   -43329.712    550.43393 
  194300    217.13647    16.992109    131964.71   -40660.045    2646.5749    -43306.62    550.55987 
  194350    215.45675    77.112554    132101.49   -40647.067    2626.1015   -43273.168    551.23738 
  194400     214.9173   -61.729786    132201.25   -40719.877    2619.5264   -43339.403    551.88023 
  194450    215.12073   -90.659383    132042.27   -40676.713    2622.0059   -43298.719    551.47349 
  194500    211.11585    -3.934044    131943.08   -40657.323    2573.1923   -43230.515    551.52639 
  194550    212.39578    36.531731     131895.6   -40695.021    2588.7929   -43283.814    551.42782 
  194600    211.58743    29.407783    131939.26   -40727.307    2578.9402   -43306.248    551.45126 
  194650    216.09381   -5.1915126    131968.97   -40703.289    2633.8664   -43337.156    551.38349 
  194700    211.82301    33.913114    132019.64   -40756.396    2581.8116   -43338.208    551.95446 
  194750    208.94027   -3.9491521     132037.3   -40790.979    2546.6753   -43337.654    552.12076 
  194800    212.91629    1.0520953    131954.94   -40795.688    2595.1371   -43390.826    552.44289 
  194850    214.96635    58.442679    131959.48   -40770.798    2620.1243   -43390.922    552.37483 
  194900    214.78874   -63.897838    131939.64   -40741.629    2617.9595   -43359.588    551.98085 
  194950    212.87258    99.858779     131953.1   -40743.795    2594.6043   -43338.399    551.81908 
  195000    217.72046   -108.91644     131964.5   -40709.219    2653.6929   -43362.912    552.10097 
  195050     214.8972   -160.00655    131806.14   -40691.488    2619.2814    -43310.77     551.3305 
  195100    212.71812    -230.3472    131483.79   -40689.616    2592.7217   -43282.338    550.67491 
  195150     214.3998    30.199167    131379.35   -40688.937    2613.2189   -43302.156    550.44055 
  195200    208.62871    110.72503    131440.94   -40731.929    2542.8778   -43274.807    550.53143 
  195250     215.0964   -3.6358042    131497.11   -40687.455    2621.7094   -43309.165    550.31474 
  195300     213.1733    64.190944     131697.2   -40693.589    2598.2696   -43291.859    551.05301 
  195350    213.49444   -83.092597    131636.24   -40652.645    2602.1839   -43254.829    551.12222 
  195400    213.29501   -24.426883    131448.41   -40685.341    2599.7531   -43285.094    550.72071 
  195450    213.86441   -25.613291    131425.53   -40673.645    2606.6933   -43280.338    550.75004 
  195500    213.65622      164.932     131634.3   -40688.571    2604.1557   -43292.727    551.88124 
  195550    213.85244    59.521866    131673.19    -40676.96    2606.5473   -43283.507    552.75044 
  195600    218.08539   -131.50128    131640.93   -40669.744    2658.1408   -43327.884    552.71485 
  195650    212.71445   -105.01147    131475.35   -40684.289    2592.6769   -43276.966    552.27123 
  195700    216.23519    34.094219    131587.35   -40702.066    2635.5896   -43337.656    552.60387 
  195750    215.70197   -9.9720612    131615.59   -40714.195    2629.0904   -43343.286    553.29108 
  195800     212.4995   -118.51938    131559.02   -40725.336     2590.057   -43315.393    553.67153 
  195850    210.39994   -53.698203    131528.92   -40725.748    2564.4665   -43290.214    553.89106 
  195900    212.50582    39.564684    131561.47    -40711.22     2590.134   -43301.354    553.51597 
  195950    216.08647    79.477775    131569.56   -40749.791    2633.7769   -43383.568    553.95737 
  196000    213.92897   -51.764063    131744.13   -40767.252    2607.4801   -43374.732    554.27763 
  196050      213.402    19.464214    131704.44   -40785.153    2601.0571    -43386.21    554.67734 
  196100    214.05507    -65.04665    131945.25   -40728.165    2609.0172   -43337.182     555.6751 
  196150    216.25083    67.645658    131924.65   -40702.651    2635.7803   -43338.431    555.78211 
  196200    213.62208    53.985681     132042.4   -40725.365    2603.7396   -43329.105    556.30647 
  196250     213.0251   -16.129396    132112.69   -40735.578    2596.4634   -43332.042    557.08235 
  196300    210.61872   -19.606232    132022.34   -40759.403    2567.1331   -43326.536    556.92296 
  196350    210.09966    112.31061    132051.25    -40766.55    2560.8065   -43327.357    557.11723 
  196400    209.00257    25.431691    132057.34   -40748.111    2547.4346   -43295.545    556.38447 
  196450    209.70429    -43.28142    132081.42   -40702.344    2555.9875   -43258.332    556.60165 
  196500    217.54845     51.09295    132070.12   -40669.162    2651.5963   -43320.758    556.32186 
  196550    215.06786   -122.22765    132098.54   -40675.626    2621.3616   -43296.987    556.48504 
  196600    212.65306    45.917165    132083.95   -40684.468    2591.9287   -43276.396    556.35028 
  196650    210.81157   -39.028064    132081.22   -40720.967    2569.4837    -43290.45    556.49345 
  196700    213.06911    171.31883    132099.78   -40680.687    2596.9998   -43277.686    556.50025 
  196750    215.07843    73.573389    132213.74   -40611.095    2621.4904   -43232.586    557.14703 
  196800    219.67025   -20.652313    132307.86   -40611.173    2677.4579   -43288.631    557.67546 
  196850    216.69778    23.301821    132239.21   -40620.576    2641.2279   -43261.804    557.89718 
  196900    217.16786    87.475985    132243.75   -40590.017    2646.9574   -43236.975    558.46733 
  196950    216.94394    12.663422    132345.01   -40620.984    2644.2282   -43265.212    558.39732 
  197000    217.56801    -185.0123    132069.08   -40625.124    2651.8348   -43276.959    557.51131 
  197050    218.62359   -191.63209    132156.17   -40674.538    2664.7007   -43339.239    558.12129 
  197100    217.64478   -89.624795    132055.84   -40654.067    2652.7705   -43306.837    558.64014 
  197150    219.67823   -26.704305    132007.72   -40645.685    2677.5553    -43323.24    558.70516 
  197200    216.56636   -47.157334    131923.33   -40666.336    2639.6261   -43305.963    558.74579 
  197250    214.89639   -26.914649    131698.25   -40681.393    2619.2716   -43300.664    557.79083 
  197300    216.46704    213.63212    131827.68   -40706.754    2638.4155    -43345.17    558.54024 
  197350    215.01582   -19.088833    131965.35   -40707.412    2620.7273    -43328.14    559.32825 
  197400    216.28838     127.2688     132018.2   -40733.064     2636.238   -43369.302    559.65626 
  197450    213.02503    12.848098    132132.11     -40727.2    2596.4624   -43323.663    559.96063 
  197500    213.89762   -170.22032    131991.65   -40740.488     2607.098   -43347.586    559.52008 
  197550     211.3394   -63.719661    132012.19   -40772.557     2575.917   -43348.474    560.23582 
  197600     212.2384   -43.822201     131991.1   -40760.532    2586.8746   -43347.407    560.94931 
  197650    212.18494    51.082221    131974.75   -40771.757    2586.2229    -43357.98    560.83406 
  197700     209.8503    1.6464632    132070.79    -40756.27    2557.7672   -43314.037    560.89364 
  197750    212.53293   0.68707676    131946.34   -40751.448    2590.4644   -43341.912    560.51662 
  197800    211.01343   -1.6482716    131974.97   -40804.073     2571.944   -43376.017    560.23491 
  197850    213.54901   -12.352466     131938.5   -40768.987    2602.8489   -43371.836    560.77822 
  197900    211.12883    148.84869    131974.87   -40762.967    2573.3506   -43336.318    561.06228 
  197950    216.66597   -137.51493    131983.16   -40737.334    2640.8401   -43378.174    560.87964 
  198000    217.91182    185.50134     132128.4   -40736.062    2656.0252   -43392.087    561.82146 
  198050    218.34165    90.509826    132479.35   -40724.988    2661.2642   -43386.252    562.77227 
  198100    215.83144    77.189478    132623.95   -40660.291    2630.6685   -43290.959    563.21747 
  198150    220.84657    70.048514    132629.48   -40628.911    2691.7955   -43320.706    563.11876 
  198200    218.49069    31.247997    132628.97   -40664.778    2663.0809   -43327.859    563.46289 
  198250    217.44054   -33.979548    132574.87   -40703.043    2650.2811   -43353.324    563.61682 
  198300    219.71887   -24.019184    132488.96   -40689.958    2678.0505   -43368.008    563.02845 
  198350    213.72141    -27.87716    132524.97   -40725.421    2604.9504   -43330.371    563.13157 
  198400    212.87506     72.03692    132635.45    -40747.75    2594.6345   -43342.384    563.75095 
  198450    217.34232   -227.17126    132456.59   -40794.866    2649.0838    -43443.95    563.42977 
  198500    215.80948    28.275563     132403.9   -40800.666    2630.4008   -43431.067    563.63623 
  198550    215.40672    14.326196    132505.62   -40765.201    2625.4917   -43390.693    564.61331 
  198600     212.5826   -39.330625    132526.77   -40738.145    2591.0699   -43329.215    564.85449 
  198650    215.36031    10.864009    132503.46   -40726.513    2624.9261   -43351.439    564.99414 
  198700    215.56687   -35.399799    132588.89   -40779.061    2627.4437   -43406.504    565.72615 
  198750    208.17224   -26.984248    132489.36   -40768.118    2537.3141   -43305.432    565.72476 
  198800    213.51192    67.285207    132486.13   -40745.859    2602.3969   -43348.256    566.08673 
  198850    216.95807   -82.786715    132460.39   -40728.429    2644.4005    -43372.83    566.31525 
  198900    216.77585  -0.45622898    132483.35   -40726.794    2642.1794   -43368.974    566.00114 
  198950    216.48043    63.585092    132583.45   -40710.402    2638.5787    -43348.98    566.65724 
  199000    219.93582   -84.086419    132538.92   -40682.152    2680.6948   -43362.847    567.19864 
  199050    217.49284   -10.741839    132450.26   -40683.711    2650.9185   -43334.629    566.69617 
  199100     216.4854    7.9773251    132481.95   -40700.583    2638.6393   -43339.222    566.51198 
  199150    212.34644   -7.1049334    132390.23   -40739.571    2588.1914   -43327.763    566.37054 
  199200    214.38189    124.99185     132528.2   -40791.342    2613.0006   -43404.343    567.27112 
  199250    213.79022    13.805381    132504.24   -40784.952     2605.789   -43390.741    566.87882 
  199300    213.64457   -59.987046    132622.18   -40806.347    2604.0138   -43410.361     567.1817 
  199350    215.62193    -78.46834    132637.75   -40774.604    2628.1149   -43402.719    567.48138 
  199400    214.02535    92.588658     132625.1   -40759.946    2608.6549     -43368.6    567.44795 
  199450    213.32669  -0.69804928     132534.8   -40744.807    2600.1393   -43344.946    567.62185 
  199500     216.2323    109.55627    132607.77   -40741.056    2635.5543    -43376.61    568.18712 
  199550    218.40977    27.262356    132592.42   -40724.168    2662.0946   -43386.262    567.98369 
  199600    213.60297    102.87465    132651.18   -40713.923    2603.5066    -43317.43    568.06589 
  199650    216.11986    73.461385    132582.87   -40744.731    2634.1838   -43378.915     567.8016 
  199700    217.40088   -58.500896    132624.51   -40761.159    2649.7977   -43410.957    567.53563 
  199750    217.25345   -81.513883    132480.85    -40798.07    2648.0007    -43446.07    567.36369 
  199800    213.39856    21.949228    132452.17     -40837.1    2601.0152   -43438.115    567.19949 
  199850    212.19354    68.581027       132502   -40827.183    2586.3279   -43413.511    567.48151 
  199900    214.16998    57.891082    132511.02   -40756.525    2610.4177   -43366.943    567.28545 
  199950    217.13404   -36.981164    132461.04    -40793.13    2646.5452   -43439.675    567.26743 
  200000     211.1869    15.311389    132373.41   -40804.034    2574.0583   -43378.093    568.13771 
Loop time of 334.156 on 12 procs for 200000 steps with 4090 atoms

Performance: 258.562 ns/day, 0.093 hours/ns, 598.522 timesteps/s
99.5% CPU use with 12 MPI tasks x no OpenMP threads

MPI task timing breakdown:
Section |  min time  |  avg time  |  max time  |%varavg| %total
---------------------------------------------------------------
Pair    | 236.21     | 276.41     | 300.36     | 158.6 | 82.72
Neigh   | 6.1494     | 7.0774     | 7.6469     |  23.5 |  2.12
Comm    | 19.662     | 44.079     | 84.976     | 404.7 | 13.19
Output  | 0.15161    | 0.17509    | 0.42472    |  18.0 |  0.05
Modify  | 4.9621     | 5.0779     | 5.2152     |   3.4 |  1.52
Other   |            | 1.34       |            |       |  0.40

Nlocal:    340.833 ave 371 max 286 min
Histogram: 1 2 0 1 0 0 0 2 2 4
Nghost:    964.167 ave 1004 max 890 min
Histogram: 1 0 3 0 0 0 0 1 3 4
Neighs:    0 ave 0 max 0 min
Histogram: 12 0 0 0 0 0 0 0 0 0
FullNghs:  11072.5 ave 12159 max 9057 min
Histogram: 1 2 0 1 0 0 0 2 1 5

Total # of neighbors = 132870
Ave neighs/atom = 32.4866
Neighbor list builds = 11802
Dangerous builds = 0

write_data		${DIR}/data.eq-${NAME}-${TEMP}
write_data		run_2/data.eq-${NAME}-${TEMP}
write_data		run_2/data.eq-hardcavity_freeze_2-${TEMP}
write_data		run_2/data.eq-hardcavity_freeze_2-215
undump          1

reset_timestep  0

unfix           2
unfix           3
unfix           4


################################################
#######         Run Simulation         #########
################################################

log				${DIR}/log.run_${NAME}
log				run_2/log.run_${NAME}
log				run_2/log.run_hardcavity_freeze_2
