

### IMPORT ATOMS ###
read_data ../Box_Setup/data.Ibeam_240K
  orthogonal box = (0 0 0) to (157.504 42.9242 26.8557)
  10 by 5 by 2 MPI processor grid
  reading atoms ...
  9253 atoms
  reading velocities ...
  9253 velocities
group water type 2
1381 atoms in group water
group graphite type 1
7872 atoms in group graphite


# Define potential
#
pair_style          sw
pair_coeff * * MLC_e.sw C mW

# Add velocity/set timestep
#

fix		1 graphite setforce 0.0 0.0 0.0
velocity 	graphite set 0.0 0.0 0.0
velocity            water create ${START_TEMP} ${SEED} rot yes dist gaussian
velocity            water create 240 ${SEED} rot yes dist gaussian
velocity            water create 240 31118 rot yes dist gaussian
timestep            5.0

# Define output
#
compute 1 water msd
compute 2 water temp


thermo	            100
thermo_style custom step c_2 press vol etotal ke pe c_1[4] density

# Neighbor lists
#
neigh_modify        delay 0 every 1 check yes


# Set fixes
#
fix                 2 water momentum 10 linear 1 1 1 rescale
fix                 3 all nve
fix                 4 water temp/csvr ${START_TEMP} ${START_TEMP} 500.0 928347
fix                 4 water temp/csvr 240 ${START_TEMP} 500.0 928347
fix                 4 water temp/csvr 240 240 500.0 928347

# Run 0.05 ns equilibration
#
dump                1 all custom 100 ${DIR}/eq.${NAME}.dump id type x y z vx vy vz
dump                1 all custom 100 run_26/eq.${NAME}.dump id type x y z vx vy vz
dump                1 all custom 100 run_26/eq.ibeam_cooling_26.dump id type x y z vx vy vz
run                 10000
Neighbor list info ...
  update every 1 steps, delay 0 steps, check yes
  max neighbors/atom: 2000, page size: 100000
  master list distance cutoff = 6.67472
  ghost atom cutoff = 6.67472
  binsize = 3.33736, bins = 48 13 9
  1 neighbor lists, perpetual/occasional/extra = 1 0 0
  (1) pair sw, perpetual
      attributes: full, newton on
      pair build: full/bin/atomonly
      stencil: full/bin/3d
      bin: standard
Per MPI rank memory allocation (min/avg/max) = 3.369 | 4.254 | 4.745 Mbytes
Step c_2 Press Volume TotEng KinEng PotEng c_1[4] Density 
       0          240   -344.39513    181563.75    -13284.54    987.24429   -14271.784            0    1.0922001 
     100    245.54616   -400.82275    181563.75   -13244.379    1010.0585   -14254.437   0.84045199    1.0922001 
     200    243.89695    -293.3012    181563.75   -13283.117    1003.2745   -14286.392    1.3339211    1.0922001 
     300    244.01107   -293.33508    181563.75    -13275.55    1003.7439   -14279.294    1.7513702    1.0922001 
     400    241.20797   -510.99554    181563.75   -13288.905    992.21328   -14281.118    2.3556106    1.0922001 
     500    238.81954   -563.45331    181563.75   -13290.918    982.38846   -14273.307    2.7131402    1.0922001 
     600    227.16365   -334.79006    181563.75   -13371.958    934.44171     -14306.4    3.0391503    1.0922001 
     700    235.67079   -331.94289    181563.75   -13359.506    969.43599   -14328.942    3.3792378    1.0922001 
     800    229.92336   -320.73572    181563.75   -13396.872    945.79385   -14342.666    3.9325204    1.0922001 
     900    243.77561   -338.26123    181563.75   -13367.887    1002.7753   -14370.662    4.2416639    1.0922001 
    1000    235.14074    -450.5036    181563.75    -13319.19    967.25563   -14286.445    4.9014453    1.0922001 
    1100    237.55685   -393.22678    181563.75   -13332.723    977.19436   -14309.917    5.3864908    1.0922001 
    1200     234.8885   -417.62615    181563.75   -13378.354    966.21803   -14344.572    5.7897494    1.0922001 
    1300      240.584   -315.96879    181563.75   -13341.792    989.64657   -14331.439    5.9758463    1.0922001 
    1400    245.24034   -244.44261    181563.75   -13296.343    1008.8005   -14305.143    6.1275242    1.0922001 
    1500    244.41053   -389.40519    181563.75   -13322.135    1005.3871   -14327.522    6.4225461    1.0922001 
    1600    241.71595    -335.7682    181563.75   -13313.467    994.30287    -14307.77    6.8743754    1.0922001 
    1700    244.43362   -387.24086    181563.75    -13336.34    1005.4821   -14341.822    7.1685618    1.0922001 
    1800    230.82038   -331.57736    181563.75   -13344.216    949.48375     -14293.7    7.5273243    1.0922001 
    1900    250.18958   -335.71347    181563.75   -13277.602    1029.1593   -14306.761    7.8747772    1.0922001 
    2000    242.79585   -419.55244    181563.75   -13260.902    998.74508   -14259.647    8.4285113    1.0922001 
    2100    241.86816   -392.07907    181563.75   -13272.772    994.92898   -14267.701    8.9189391    1.0922001 
    2200    239.93598   -216.89528    181563.75   -13264.155    986.98093   -14251.136     9.639629    1.0922001 
    2300    246.25173   -305.56976    181563.75   -13303.948    1012.9609   -14316.909    9.9758868    1.0922001 
    2400    245.30701   -372.87399    181563.75   -13295.769    1009.0748   -14304.844    10.311714    1.0922001 
    2500    246.59028    -387.1016    181563.75   -13286.449    1014.3535   -14300.802    10.768751    1.0922001 
    2600    241.40643   -159.94294    181563.75     -13318.5    993.02964    -14311.53    11.408856    1.0922001 
    2700    248.74088   -181.38637    181563.75     -13291.9    1023.2001     -14315.1    11.284728    1.0922001 
    2800    244.99045    -348.7264    181563.75   -13299.229    1007.7726   -14307.002    11.492406    1.0922001 
    2900    237.00523   -391.75808    181563.75   -13340.497    974.92525   -14315.422    11.764728    1.0922001 
    3000     236.2942   -376.45111    181563.75   -13359.175     972.0004   -14331.175    12.569681    1.0922001 
    3100    242.71488   -441.02437    181563.75   -13351.843    998.41199   -14350.255    13.048208    1.0922001 
    3200    234.47531   -328.26103    181563.75   -13360.509    964.51839   -14325.027       13.379    1.0922001 
    3300    245.68997   -207.89932    181563.75   -13313.724    1010.6501   -14324.375     13.88749    1.0922001 
    3400    237.23608   -215.40475    181563.75   -13320.042    975.87484   -14295.917    14.340197    1.0922001 
    3500    236.24134   -185.05571    181563.75   -13315.262    971.78296   -14287.045    14.765877    1.0922001 
    3600     243.2389   -273.57232    181563.75   -13302.077    1000.5675   -14302.645    15.121009    1.0922001 
    3700     238.5365   -366.03198    181563.75   -13339.068    981.22414   -14320.292    15.199833    1.0922001 
    3800    241.77376   -523.97101    181563.75   -13323.606    994.54066   -14318.147    15.209069    1.0922001 
    3900    240.24183   -502.57911    181563.75   -13335.404    988.23904   -14323.643     15.08015    1.0922001 
    4000    243.10083   -318.95026    181563.75   -13339.075     999.9996   -14339.074    15.237465    1.0922001 
    4100    238.08416   -218.86006    181563.75   -13311.318    979.36344   -14290.682    15.268784    1.0922001 
    4200    245.03852   -370.76011    181563.75   -13283.934    1007.9703   -14291.904    15.255833    1.0922001 
    4300    253.66671   -440.86591    181563.75   -13232.843    1043.4625   -14276.306    15.502988    1.0922001 
    4400    251.63188   -602.49901    181563.75   -13238.114    1035.0922   -14273.207    15.644656    1.0922001 
    4500    242.43265   -476.02533    181563.75   -13286.656    997.25104   -14283.907    15.684248    1.0922001 
    4600    238.95942    -344.1979    181563.75   -13310.434    982.96386   -14293.398    16.113875    1.0922001 
    4700    243.83618   -175.97989    181563.75   -13302.664    1003.0245   -14305.688    16.442959    1.0922001 
    4800    249.51904   -253.92654    181563.75    -13289.67     1026.401   -14316.071    16.721804    1.0922001 
    4900    242.66208   -403.61934    181563.75   -13305.723     998.1948   -14303.918    16.993436    1.0922001 
    5000    240.09732   -349.53064    181563.75   -13331.161    987.64461   -14318.806    17.299024    1.0922001 
    5100     240.9632   -296.17902    181563.75   -13341.354    991.20645    -14332.56    17.374918    1.0922001 
    5200    245.29154   -390.95578    181563.75   -13346.456    1009.0111   -14355.467    17.503294    1.0922001 
    5300    236.18662   -337.86778    181563.75   -13393.783    971.55788   -14365.341    17.773289    1.0922001 
    5400    241.77777   -382.30465    181563.75   -13352.888    994.55718   -14347.445    18.175322    1.0922001 
    5500    228.10337   -585.11035    181563.75   -13378.231    938.30729   -14316.539    18.024007    1.0922001 
    5600     232.3692   -216.53302    181563.75   -13388.623    955.85485   -14344.478    18.596348    1.0922001 
    5700    250.92216   -333.15483    181563.75   -13356.511    1032.1728   -14388.684     18.88044    1.0922001 
    5800    240.96844   -233.95255    181563.75    -13293.49    991.22799   -14284.718    19.389294    1.0922001 
    5900    243.19055   -341.13427    181563.75   -13327.737    1000.3687   -14328.105    20.149681    1.0922001 
    6000    238.77229   -297.60075    181563.75    -13401.05    982.19409   -14383.245    20.462109    1.0922001 
    6100    235.65932   -414.21559    181563.75   -13381.851    969.38882    -14351.24    20.898331    1.0922001 
    6200    235.32164   -530.72372    181563.75   -13353.187    967.99978   -14321.187    20.972202    1.0922001 
    6300    244.38453   -412.60719    181563.75   -13328.447    1005.2801   -14333.727    21.213232    1.0922001 
    6400     238.3933    -324.5237    181563.75    -13322.73    980.63512   -14303.365     21.68457    1.0922001 
    6500    244.77431   -405.18539    181563.75   -13337.149    1006.8835   -14344.033    22.069292    1.0922001 
    6600    235.33861   -358.06711    181563.75   -13368.209    968.06959   -14336.279    22.259577    1.0922001 
    6700    236.42547   -462.54411    181563.75   -13384.691    972.54038   -14357.231    22.424899    1.0922001 
    6800    238.76184   -596.99553    181563.75   -13360.192    982.15111   -14342.343    22.494189    1.0922001 
    6900    229.37585   -440.93608    181563.75   -13394.484    943.54164   -14338.026    22.618961    1.0922001 
    7000    234.09818   -262.03481    181563.75   -13382.603    962.96704    -14345.57    22.620134    1.0922001 
    7100    241.04641   -161.35273    181563.75   -13310.014    991.54872   -14301.562    22.965929    1.0922001 
    7200    240.12497   -260.91021    181563.75   -13323.943    987.75837   -14311.701    23.447002    1.0922001 
    7300    236.91402   -290.87455    181563.75   -13387.912    974.55004   -14362.462    23.647521    1.0922001 
    7400    235.82453   -396.13622    181563.75   -13396.574    970.06843   -14366.642    23.726645    1.0922001 
    7500    227.68586   -321.07732    181563.75   -13409.527    936.58984   -14346.116    23.780823    1.0922001 
    7600     235.9145     -317.758    181563.75   -13419.524    970.43852   -14389.962    24.138066    1.0922001 
    7700    233.96502   -389.46316    181563.75    -13405.88    962.41927   -14368.299    24.261974    1.0922001 
    7800    247.38169   -181.29818    181563.75   -13378.795     1017.609   -14396.404    24.388962    1.0922001 
    7900    229.65327   -449.97873    181563.75   -13374.221    944.68282   -14318.904    24.824689    1.0922001 
    8000     236.5182   -380.09628    181563.75   -13369.063    972.92185   -14341.985    25.085988    1.0922001 
    8100    232.06544   -615.68364    181563.75   -13388.081    954.60532   -14342.686    24.960457    1.0922001 
    8200     228.2232   -500.92444    181563.75   -13397.633    938.80022   -14336.433    25.140255    1.0922001 
    8300    233.35287   -304.37143    181563.75   -13404.125     959.9012   -14364.026    25.283867    1.0922001 
    8400    232.35879   -348.42366    181563.75   -13394.198    955.81201    -14350.01    25.782315    1.0922001 
    8500    242.63918   -206.49622    181563.75   -13383.566    998.10061   -14381.667    25.777675    1.0922001 
    8600    239.95353   -342.83242    181563.75   -13352.183    987.05315   -14339.236    26.092852    1.0922001 
    8700    237.96722   -369.35349    181563.75    -13400.95    978.88242   -14379.832    26.541424    1.0922001 
    8800     243.5335   -555.45321    181563.75   -13352.702    1001.7794   -14354.481    26.887094    1.0922001 
    8900    230.52861    -393.5762    181563.75    -13379.25    948.28354   -14327.534    27.023289    1.0922001 
    9000    248.72529   -415.77307    181563.75   -13334.989    1023.1359   -14358.125    27.156037    1.0922001 
    9100    242.10474   -342.78894    181563.75   -13339.165    995.90219   -14335.068    27.487952    1.0922001 
    9200    236.90416   -449.42681    181563.75   -13384.901    974.50948   -14359.411    27.759944    1.0922001 
    9300    229.39575   -364.99037    181563.75   -13395.657    943.62352    -14339.28     27.88633    1.0922001 
    9400     237.7816    -367.2783    181563.75   -13406.032    978.11887   -14384.151    28.103484    1.0922001 
    9500    238.55973    -363.7234    181563.75   -13383.629    981.31973   -14364.949    28.529671    1.0922001 
    9600    225.76878   -346.82104    181563.75   -13442.208     928.7039   -14370.912    29.043911    1.0922001 
    9700    236.80444   -458.99391    181563.75   -13378.435    974.09931   -14352.534    29.774795    1.0922001 
    9800    232.62226   -475.41084    181563.75   -13393.338    956.89582   -14350.234    29.803942    1.0922001 
    9900    250.18202   -462.46552    181563.75   -13349.789    1029.1282   -14378.917    29.815433    1.0922001 
   10000    247.53743   -268.10044    181563.75    -13299.75    1018.2496   -14317.999    29.923744    1.0922001 
Loop time of 15.6476 on 100 procs for 10000 steps with 9253 atoms

Performance: 276.081 ns/day, 0.087 hours/ns, 639.076 timesteps/s
97.7% CPU use with 100 MPI tasks x no OpenMP threads

MPI task timing breakdown:
Section |  min time  |  avg time  |  max time  |%varavg| %total
---------------------------------------------------------------
Pair    | 0.00094008 | 4.4077     | 13.625     | 235.3 | 28.17
Neigh   | 0.0045011  | 0.15459    | 0.36346    |  31.4 |  0.99
Comm    | 0.20161    | 3.0106     | 10.784     | 180.3 | 19.24
Output  | 0.14       | 0.1402     | 0.14756    |   0.2 |  0.90
Modify  | 0.24787    | 7.8287     | 15.192     | 230.5 | 50.03
Other   |            | 0.1057     |            |       |  0.68

Nlocal:    92.53 ave 187 max 0 min
Histogram: 30 0 10 10 0 0 0 4 34 12
Nghost:    792.89 ave 1107 max 579 min
Histogram: 24 6 0 24 14 2 7 12 1 10
Neighs:    0 ave 0 max 0 min
Histogram: 100 0 0 0 0 0 0 0 0 0
FullNghs:  9986.56 ave 22854 max 0 min
Histogram: 35 15 0 0 0 0 0 24 19 7

Total # of neighbors = 998656
Ave neighs/atom = 107.928
Neighbor list builds = 550
Dangerous builds = 0
write_data 	    ${DIR}/data.${NAME}_eq
write_data 	    run_26/data.${NAME}_eq
write_data 	    run_26/data.ibeam_cooling_26_eq

undump              1
unfix               4



################################################
#######         Run Simulation         #########
################################################

reset_timestep      0
timestep	    10.0
log                 ${DIR}/log.run_${NAME}
log                 run_26/log.run_${NAME}
log                 run_26/log.run_ibeam_cooling_26
