
# Set production fixes - Nose/Hoover
#
fix                 4 water temp/csvr ${START_TEMP} ${END_TEMP} 500.0 928347
fix                 4 water temp/csvr 240 ${END_TEMP} 500.0 928347
fix                 4 water temp/csvr 240 227 500.0 928347


## divide "droplet" into core and surface
#region		core_reg cylinder z 135 135 44.6 20 INF units box
#region		surface_reg cylinder z 135 135 44.6 20 INF units box side out
#group		core dynamic all region core_reg
#group		surface dynamic all region surface_reg

## compute pressure core
#compute        peratom_core core stress/atom NULL
#compute        p_core core reduce sum c_peratom_core[1] c_peratom_core[2] c_peratom_core[3]
#variable       press_core equal -(c_p_core[1]+c_p_core[2]+c_p_core[3])/(3*1249982.5)


## compute pressure surface
#compute        peratom_surf surface stress/atom NULL
#compute        p_surf surface reduce sum c_peratom_surf[1] c_peratom_surf[2] #c_peratom_surf[3]
#variable       press_surf equal -(c_p_surf[1]+c_p_surf[2]+c_p_surf[3])/(3*33365)

## compute total pressure of drop
compute        peratom water stress/atom NULL
compute        p water reduce sum c_peratom[1] c_peratom[2] c_peratom[3]
variable       press equal -(c_p[1]+c_p[2]+c_p[3])/(3*50320)


# compute order parameter
compute        3 all orientorder/atom nnn NULL cutoff 3.5

# compute center of mass of bridge
compute 	4 water com

# Run simulation
thermo_style        custom step c_2 press vol etotal ke pe v_press c_1[4] c_4[*]
thermo              200
dump		     1 water custom 400 ${DIR}/prod.${NAME}.dump id type x y z vx vy vz c_3[*] c_peratom[*]
dump		     1 water custom 400 run_26/prod.${NAME}.dump id type x y z vx vy vz c_3[*] c_peratom[*]
dump		     1 water custom 400 run_26/prod.ibeam_cooling_26.dump id type x y z vx vy vz c_3[*] c_peratom[*]
run                 ${STEPS}
run                 5200000
Neighbor list info ...
  update every 1 steps, delay 0 steps, check yes
  max neighbors/atom: 2000, page size: 100000
  master list distance cutoff = 6.67472
  ghost atom cutoff = 6.67472
  binsize = 3.33736, bins = 48 13 9
  2 neighbor lists, perpetual/occasional/extra = 1 1 0
  (1) pair sw, perpetual
      attributes: full, newton on
      pair build: full/bin/atomonly
      stencil: full/bin/3d
      bin: standard
  (2) compute orientorder/atom, occasional, copy from (1)
      attributes: full, newton on
      pair build: copy
      stencil: none
      bin: none
Per MPI rank memory allocation (min/avg/max) = 6.145 | 6.633 | 7.275 Mbytes
Step c_2 Press Volume TotEng KinEng PotEng v_press c_1[4] c_4[1] c_4[2] c_4[3] 
       0    247.53743   -268.10044    181563.75    -13299.75    1018.2496   -14317.999   -365.94532    29.923744    78.720354    25.136644    16.453715 
     200    245.13078   -270.91643    181563.75   -13347.531    1008.3499   -14355.881   -424.24689    30.806861     78.72296    25.137574    16.466811 
     400    238.45599    -523.0123    181563.75   -13335.165    980.89297   -14316.058    -1262.523    32.944992    78.721592    25.137202    16.477489 
     600    225.99671   -472.59419    181563.75   -13429.729     929.6415   -14359.371   -1105.5289    33.111615    78.723819     25.13314    16.510389 
     800    232.41467   -407.45594    181563.75   -13427.104    956.04191   -14383.146   -929.52662    34.943402    78.722115    25.132003    16.509855 
    1000    239.49775   -458.37344    181563.75   -13324.788    985.17828   -14309.966   -1059.2994    35.321458    78.721703    25.133365    16.483137 
    1200    234.76593   -341.06778    181563.75   -13377.529    965.71385   -14343.243   -614.87175    36.053646    78.723036    25.128211     16.45585 
    1400    249.28536   -190.41922    181563.75   -13286.144    1025.4398   -14311.584   -117.74594    36.659185    78.725204    25.127881    16.436876 
    1600    242.94851   -371.01264    181563.75   -13292.403    999.37302   -14291.776   -730.81607    38.250632    78.720969     25.12163    16.442433 
    1800    232.72387   -272.28579    181563.75   -13307.115     957.3138   -14264.429   -400.91593    40.056021     78.71986     25.12221    16.413579 
    2000    241.56266   -348.94415    181563.75   -13201.196    993.67231   -14194.868   -677.89353    42.165295    78.719783     25.12274    16.383134 
    2200    243.59267   -136.40477    181563.75   -13209.696    1002.0228   -14211.719    74.437301    43.414933    78.725484    25.122876    16.372083 
    2400    243.08704   -312.97068    181563.75   -13254.535     999.9429   -14254.478    -549.2852    44.246106    78.725595    25.122342    16.410551 
    2600    239.70824    -540.6911    181563.75   -13274.059    986.04414   -14260.103   -1397.0825     46.12308    78.727411    25.125446    16.375765 
    2800    245.92951   -381.25237    181563.75   -13265.011    1011.6354   -14276.646    -810.8149     47.27061     78.72522    25.129089    16.388558 
    3000    234.27359   -402.20684    181563.75   -13349.701     963.6886    -14313.39   -866.32504    48.356238    78.723113    25.129196    16.366883 
    3200    236.04008   -357.74428    181563.75    -13339.04    970.95509   -14309.995   -666.62696    49.069134    78.721132    25.128046    16.348135 
    3400    240.45823   -253.71646    181563.75   -13303.407    989.12921   -14292.536   -352.34848    50.399746      78.7177    25.126314     16.35492 
    3600    245.34532   -340.08256    181563.75   -13286.219    1009.2323   -14295.451   -707.00879    51.070923    78.717462    25.124277    16.352737 
    3800    239.42833   -282.63618    181563.75   -13301.103    984.89271   -14285.995   -447.32732    51.925311    78.714578    25.126995    16.368731 
    4000    243.05999   -333.45989    181563.75   -13315.259    999.83163    -14315.09   -653.51242    52.903742    78.712139    25.130011    16.359585 
    4200    241.44598    -421.2648    181563.75   -13217.831    993.19234   -14211.023   -932.90518    53.975481    78.711515    25.130981    16.345085 
    4400    248.01527   -420.37535    181563.75   -13213.491    1020.2152   -14233.706   -1000.4095     55.79551    78.710081    25.131664     16.37805 
    4600    241.30644   -307.63434    181563.75   -13295.448    992.61836   -14288.066   -550.64502    57.698682    78.708296    25.130047    16.390422 
    4800    241.73233   -496.65656    181563.75   -13259.089    994.37027    -14253.46   -1219.3826    58.780939    78.708421    25.129229    16.338753 
    5000    235.66846   -391.78433    181563.75   -13304.221    969.42642   -14273.648   -826.89565    60.537873    78.706303    25.128979    16.341499 
    5200    235.70503   -363.30911    181563.75   -13291.678    969.57685   -14261.255   -716.89916    60.546922    78.702097    25.124701    16.377918 
    5400    242.08121   -555.07076    181563.75   -13307.869    995.80536   -14303.675   -1406.0538    62.845714    78.699457     25.12311    16.355796 
    5600    240.55841    -325.8817    181563.75   -13374.356    989.54132   -14363.897    -577.1203    63.580436    78.697349    25.121373    16.363476 
    5800    256.00002   -411.80399    181563.75   -13232.751    1053.0607   -14285.812    -880.8704    65.037262     78.69202      25.1202    16.341472 
    6000    233.23365   -197.32467    181563.75   -13379.572     959.4108   -14338.983   -151.20131    66.479052    78.693218    25.119659     16.33725 
    6200     236.4586   -448.81841    181563.75   -13298.351    972.67666   -14271.028   -1030.5214    68.166536     78.69256    25.119317    16.340622 
    6400     235.5482   -328.90176    181563.75    -13260.78    968.93172   -14229.711   -647.21014     69.26409    78.694019    25.120402    16.294144 
    6600    229.19776   -340.06356    181563.75   -13307.837    942.80906   -14250.646   -630.21655    69.940839    78.693311    25.119762    16.262603 
    6800    240.51367   -233.22144    181563.75    -13277.65    989.35728   -14267.008   -249.58122    70.876491    78.689146    25.119551    16.293989 
    7000     242.0518   -416.74095    181563.75   -13307.297    995.68439   -14302.981   -946.46234    72.563342    78.688264    25.124274    16.303748 
    7200    246.10087    -369.4516    181563.75   -13250.052    1012.3403   -14262.392   -759.94814    73.450958    78.684292    25.122868    16.301676 
    7400     236.7878   -419.50124    181563.75   -13327.855    974.03086   -14301.886   -924.13461    75.115485    78.687185    25.124172    16.321816 
    7600    238.03187   -383.05388    181563.75   -13345.016    979.14834   -14324.164   -781.01358    75.669535    78.689968    25.129394    16.328163 
    7800    231.72661   -391.99302    181563.75   -13273.431    953.21157   -14226.642   -825.26176    76.962942    78.691723    25.131013    16.319261 
    8000    241.61639   -407.52236    181563.75   -13262.363    993.89334   -14256.256   -900.97048    78.486751    78.689612    25.134708    16.340028 
    8200    233.19793   -391.01556    181563.75   -13322.332    959.26386   -14281.596   -818.26398    79.953015    78.688252    25.133058    16.351858 
    8400    226.49272    -397.8129    181563.75   -13336.136    931.68184   -14267.818   -868.61842    80.174009    78.688323    25.136182     16.33294 
    8600    236.55006   -423.25016    181563.75   -13270.974    973.05291   -14244.027   -959.61909    81.667775    78.684002    25.139567    16.368451 
    8800    237.93889   -319.00219    181563.75   -13273.898    978.76586   -14252.664   -584.86281    83.132286    78.680485    25.140805    16.397329 
    9000    244.38962   -291.62609    181563.75   -13258.973    1005.3011   -14264.274   -542.94885    83.338764    78.681731    25.142226    16.408101 
    9200    243.15812    -336.9246    181563.75   -13298.539    1000.2353   -14298.774   -659.28439    85.367149     78.68034    25.145606    16.407353 
    9400    238.43399   -234.42939    181563.75   -13318.032     980.8025   -14298.834   -240.81876    86.812139    78.677269     25.15015    16.411854 
    9600    229.32859   -423.65523    181563.75    -13364.51    943.34723   -14307.857    -953.8722    88.778394    78.678031    25.152075    16.433119 
    9800    235.13634   -402.77892    181563.75   -13341.948    967.23754   -14309.185   -879.93973    91.188897    78.674152    25.152278    16.404461 
   10000    242.87743   -517.31421    181563.75   -13219.643    999.08064   -14218.724   -1238.3867    91.093607    78.673367    25.152606    16.383178 
   10200    234.87247   -465.18083    181563.75    -13246.08    966.15212   -14212.232   -1133.8134     93.88307    78.673999     25.15392     16.39703 
   10400    237.59935   -201.45683    181563.75   -13258.498    977.36916   -14235.867   -137.79601    95.257814    78.674496    25.157462    16.371377 
   10600    241.63251   -369.03471    181563.75   -13265.191    993.95963   -14259.151   -762.98125    95.291775     78.67539    25.161523    16.375346 
   10800    245.28459   -554.33996    181563.75   -13321.152    1008.9825   -14330.134   -1416.2838    97.226719    78.673572     25.16327    16.381448 
   11000     235.7615   -390.11109    181563.75   -13337.039    969.80914   -14306.848   -846.85887    97.190793    78.674223     25.16292    16.377059 
   11200    233.16592   -465.25436    181563.75   -13330.361    959.13218   -14289.494   -1087.4132     100.5006    78.671717    25.160633    16.396651 
   11400      242.661   -252.51874    181563.75   -13316.447    998.19034   -14314.637   -403.63566    100.25907    78.669628    25.156585     16.38388 
   11600     245.1105   -391.85132    181563.75   -13306.718    1008.2664   -14314.985   -818.94798    101.93177    78.667209     25.15586    16.397805 
   11800    240.78312   -361.23379    181563.75   -13313.773    990.46569   -14304.239   -712.63496    103.67519    78.669353    25.150645    16.370457 
   12000    237.04363    -277.2694    181563.75   -13246.189     975.0832   -14221.272   -455.20802     105.6531     78.67085    25.148577    16.356767 
   12200    239.06696    -339.1466    181563.75   -13248.079    983.40622   -14231.485   -619.13646    106.77038    78.675119    25.151311    16.344484 
   12400     238.2169   -224.73712    181563.75   -13216.031    979.90947   -14195.941   -228.15964    109.24849    78.675951    25.152514    16.343999 
   12600    245.24033   -423.11106    181563.75   -13208.596    1008.8005   -14217.396   -952.26864    110.76503    78.676387    25.152287    16.373743 
   12800    239.67327    -237.0697    181563.75   -13303.703    985.90027   -14289.603   -294.38824    110.89151    78.677732     25.15106    16.361033 
   13000    235.51527   -418.85049    181563.75   -13339.523    968.79626   -14308.319   -943.23839      112.032    78.676592    25.150745    16.340452 
   13200    237.73308   -406.60971    181563.75   -13301.349    977.91927   -14279.268   -927.86483    112.83145    78.674897    25.152641    16.360524 
   13400    241.84623   -506.71743    181563.75   -13264.236    994.83881   -14259.075   -1266.5259    116.29352    78.678042    25.158435    16.384556 
   13600    243.87902   -314.89257    181563.75   -13253.838    1003.2007   -14257.039   -628.51224    117.54158    78.682126    25.159565     16.39942 
   13800    230.58104   -331.01712    181563.75   -13315.457    948.49924   -14263.957   -607.23753    118.76532    78.687162    25.160728    16.403193 
   14000    241.34335   -402.50772    181563.75   -13272.895     992.7702   -14265.665   -816.96257    120.16223    78.689262    25.162535    16.420915 
   14200    236.39844   -515.24898    181563.75   -13315.342    972.42921   -14287.771   -1273.9474    121.75654    78.691334    25.161668    16.430501 
   14400    228.47957   -349.57587    181563.75   -13345.859    939.85481   -14285.713   -676.55145    123.85356    78.694568    25.160455    16.391851 
   14600    236.91257   -268.63835    181563.75    -13313.98    974.54409   -14288.524   -439.59405    125.87017    78.696023    25.160398     16.37399 
   14800    235.95758   -318.87408    181563.75   -13279.641    970.61572   -14250.257   -636.32944    127.19457     78.69508     25.15674    16.366258 
   15000    236.57192   -344.04443    181563.75   -13305.775    973.14283   -14278.918   -678.15254    128.64815    78.697716    25.156652    16.337131 
   15200    228.89068   -374.70229    181563.75   -13358.961    941.54591   -14300.507   -777.67338    127.26062    78.702164    25.154555    16.328081 
   15400    241.87231   -253.85612    181563.75   -13298.053    994.94606   -14292.999   -342.96372    126.79795    78.698204    25.157126    16.316274 
   15600    232.16617   -319.94313    181563.75   -13339.618    955.01968   -14294.638   -533.93454    129.15475    78.695514    25.160691    16.344072 
   15800    242.32211   -342.30637    181563.75   -13239.988    996.79634   -14236.784   -626.97849    130.76702    78.701207    25.162325    16.350553 
   16000    237.60873   -357.48249    181563.75   -13320.763    977.40775   -14298.171   -671.05408    130.56508    78.705475    25.164508    16.341734 
   16200    250.45238   -362.93416    181563.75   -13232.666    1030.2403   -14262.906   -735.56943    131.12621    78.708408    25.166153    16.362719 
   16400    242.23935   -413.72402    181563.75   -13216.804    996.45588    -14213.26   -947.01029    133.89845    78.711059    25.164033    16.355626 
   16600    237.99402   -284.70103    181563.75   -13259.843    978.99264   -14238.835   -459.06891    136.24675    78.711005    25.161601    16.372778 
   16800    242.43981   -394.15723    181563.75   -13259.643     997.2805   -14256.923   -833.64978    138.89117    78.714386    25.161949    16.379649 
   17000    238.93164   -313.01446    181563.75   -13278.095    982.84956   -14260.945   -574.00745    139.88194    78.716975    25.161044    16.354858 
   17200    232.46866   -180.29067    181563.75   -13283.467    956.26398   -14239.731   -71.600675    140.99168      78.7147    25.163713    16.341508 
   17400    243.85452   -532.51894    181563.75   -13237.329    1003.0999   -14240.429   -1310.3773    142.68867    78.713662    25.161525    16.325673 
   17600    242.89968   -397.62853    181563.75   -13183.437    999.17216   -14182.609   -820.68835    143.64581    78.714847    25.157586    16.308349 
   17800    247.00193   -369.40275    181563.75   -13215.197    1016.0468   -14231.244   -729.23522    145.09218    78.712974    25.158382    16.313881 
   18000    237.44454   -342.66422    181563.75   -13254.299    976.73236   -14231.031   -653.38479    145.72715    78.711699    25.160811    16.302223 
   18200    236.35144   -298.07924    181563.75   -13288.352    972.23586   -14260.588    -481.6405    146.08463    78.710952    25.166971    16.300663 
   18400    237.48092   -378.83512    181563.75   -13262.147    976.88203   -14239.029   -830.39898    147.72057    78.708924    25.169656    16.361323 
   18600    243.50951   -376.31319    181563.75   -13247.654    1001.6807   -14249.335   -752.25439     148.3107    78.707157     25.17047    16.354813 
   18800     241.7756   -398.91191    181563.75   -13288.734    994.54823   -14283.283   -861.51851    150.10011     78.70562    25.167512    16.352042 
   19000    240.75756   -184.34693    181563.75   -13279.218    990.36055   -14269.578   -95.054555    151.44225    78.704655    25.167162    16.350778 
   19200    238.78115   -471.98486    181563.75   -13237.216    982.23055   -14219.446   -1115.7382    152.85422    78.704437    25.168998    16.351557 
   19400    239.34058   -261.20663    181563.75   -13231.869    984.53174   -14216.401   -358.02408    152.84092    78.701371    25.167028    16.341343 
   19600    235.32962    -368.4335    181563.75   -13306.189    968.03259   -14274.222   -740.95334    153.27019    78.700835    25.166319    16.345252 
   19800    240.05746   -294.41351    181563.75   -13285.312    987.48065   -14272.792   -499.28737    154.19194    78.696623     25.16715    16.330481 
   20000    231.36613   -379.04494    181563.75   -13302.003    951.72869   -14253.732   -822.71299    155.56067    78.693659    25.169753    16.313678 
   20200    234.40795   -268.95549    181563.75   -13293.659     964.2413     -14257.9   -414.25821    155.88244    78.690662    25.170149    16.329497 
   20400    234.22387   -490.32821    181563.75   -13339.636    963.48406    -14303.12   -1143.3551    158.34666     78.69055    25.169854    16.341055 
   20600    238.15672   -331.79258    181563.75   -13298.496    979.66194   -14278.158   -608.80854    158.23085    78.689813    25.171325    16.372084 
   20800    234.58934   -355.54209    181563.75   -13305.704    964.98744   -14270.691   -708.94355    159.27727    78.696493    25.170352    16.378647 
   21000    240.54848   -497.75073    181563.75   -13297.767    989.50045   -14287.268   -1209.3501    159.26985    78.700249    25.170694    16.378066 
   21200    243.48144   -331.10855    181563.75   -13287.416    1001.5653   -14288.981   -634.87528    158.48448     78.69867    25.170615    16.387106 
   21400    237.19002   -349.08449    181563.75   -13334.751     975.6854   -14310.436   -654.95411    160.56901    78.698565    25.171389    16.409395 
   21600     246.1616   -381.98012    181563.75   -13292.731    1012.5901   -14305.322   -789.00137    160.47195    78.699601    25.174772    16.394767 
   21800    233.40755   -234.74384    181563.75   -13269.211    960.12614   -14229.337   -258.34516    161.61632    78.701536    25.175284    16.365311 
   22000    236.24696   -440.88492    181563.75   -13286.559    971.80609   -14258.365   -980.63144    163.53917    78.702987    25.171653    16.366863 
   22200     250.1206   -323.50964    181563.75   -13266.563    1028.8756   -14295.438    -583.1089    164.63234    78.701068    25.167671    16.381369 
   22400     243.9827   -446.35303    181563.75   -13281.406    1003.6272   -14285.033   -1042.4365    166.01575    78.702719    25.161987     16.37272 
   22600    231.36716   -267.99271    181563.75    -13292.36    951.73296   -14244.093   -406.18333    165.10804    78.699609     25.16013    16.362081 
   22800    242.14457   -395.28921    181563.75   -13268.116    996.06601   -14264.182   -842.93425    166.10347    78.701973    25.155204    16.356039 
   23000    238.67507   -305.83608    181563.75   -13318.468    981.79418   -14300.263   -506.02676    166.92816    78.702379    25.157152    16.364335 
   23200    232.80907   -257.88793    181563.75   -13306.643    957.66426   -14264.307   -377.73855    169.84172    78.705915    25.159827    16.371535 
   23400    242.84745   -356.09163    181563.75    -13265.55    998.95732   -14264.507   -704.15644    170.61093    78.706185    25.157447    16.374419 
   23600    240.08784   -174.05164    181563.75   -13330.033     987.6056   -14317.638   -48.244255    171.12106    78.705139    25.154882    16.354174 
   23800    240.90166   -498.77599    181563.75   -13352.018    990.95328   -14342.971   -1196.5622    174.67348    78.706036    25.152151    16.344768 
   24000    239.32471   -346.01683    181563.75   -13300.425    984.46649   -14284.892   -716.71723    175.35805    78.703763    25.152624    16.318891 
   24200    239.96553   -340.95667    181563.75   -13266.306     987.1025   -14253.408   -634.66589    176.56564    78.701411    25.157069    16.337283 
   24400    246.72273   -348.80288    181563.75   -13278.018    1014.8983   -14292.916   -695.29768    176.93935    78.699063    25.161824    16.336979 
   24600    233.99169   -341.49166    181563.75   -13294.834      962.529   -14257.363      -638.68    177.43915    78.697063    25.163349     16.34599 
   24800    232.68527   -235.14715    181563.75   -13282.945    957.15503     -14240.1   -275.63168    176.48493    78.695047    25.163558    16.342895 
   25000     234.5726   -539.61541    181563.75   -13277.556    964.91858   -14242.475   -1380.1334    179.09788    78.693585    25.164139    16.343576 
   25200    243.48524   -199.95322    181563.75   -13255.813    1001.5809   -14257.394   -145.56481     181.3887    78.695444     25.16494    16.328848 
   25400    237.01986   -520.80793    181563.75   -13277.801    974.98544   -14252.786   -1283.4349    182.40075    78.695133    25.161981    16.351716 
   25600    245.43378   -294.00745    181563.75    -13229.47    1009.5963   -14239.066   -466.12773     184.4649    78.693287    25.159352    16.355567 
   25800    244.55016   -298.09597    181563.75   -13265.967    1005.9615   -14271.928   -494.80327    186.19168    78.691683    25.162788    16.359608 
   26000    228.96134   -372.56522    181563.75   -13308.849    941.83656   -14250.686   -777.57967    188.23887    78.691264    25.160047    16.330905 
   26200    231.47928    -342.9548    181563.75    -13272.85    952.19414   -14225.044   -638.88751    189.06107    78.687944    25.160753    16.304728 
   26400    233.57874   -381.57648    181563.75   -13332.444    960.83031   -14293.275   -758.20113    191.08745    78.682958    25.162171    16.290633 
   26600    237.02844   -438.28375    181563.75   -13330.908    975.02074   -14305.929    -948.3028    192.65108    78.682336    25.164322    16.306398 
   26800    245.90646   -299.30825    181563.75   -13273.501    1011.5406   -14285.041   -546.15299    192.29613    78.681356    25.166467    16.290891 
   27000    239.96721   -399.02445    181563.75   -13300.797    987.10939   -14287.907   -839.59524    192.84029    78.680358    25.164595    16.264024 
   27200    241.29678   -308.00411    181563.75   -13262.176    992.57863   -14254.754   -496.43774    195.33615    78.680812    25.165839    16.271396 
   27400    241.94933   -438.49258    181563.75   -13248.776     995.2629   -14244.039   -1006.3757    196.33781    78.682122    25.166845    16.295816 
   27600    249.15972   -315.29465    181563.75   -13293.533     1024.923   -14318.456   -574.78261    196.22355    78.681863    25.168513     16.33769 
   27800    226.72936   -381.50106    181563.75   -13392.561    932.65527   -14325.216   -828.00695    196.58274     78.68336    25.169876      16.3382 
   28000    236.29422   -431.55025    181563.75   -13338.428    972.00049   -14310.429   -994.16325    199.24669    78.681191    25.173729    16.339252 
   28200     244.1948    -452.1207    181563.75   -13300.402    1004.4997   -14304.902   -1075.6662     201.6884    78.678085    25.173737    16.354669 
   28400    244.95467   -402.98257    181563.75   -13322.877    1007.6254   -14330.503   -900.44978     201.6239    78.676605    25.173923    16.362617 
   28600    230.67898   -407.53468    181563.75    -13304.08     948.9021   -14252.982   -853.46885    201.61558    78.676873    25.174305    16.344392 
   28800    231.86315   -544.07216    181563.75   -13340.572    953.77321   -14294.345   -1375.0975    201.16207    78.675708    25.172139    16.340641 
   29000    236.25885   -352.10654    181563.75   -13284.388    971.85501   -14256.243    -671.1967    201.84153    78.676204    25.170947    16.349488 
   29200    232.82273   -415.11772    181563.75   -13270.485    957.72044   -14228.206   -877.33809    204.34627    78.672975    25.170888    16.354581 
   29400    234.91682   -281.28142    181563.75   -13250.577    966.33453   -14216.912   -451.37918      204.986    78.672113    25.174721    16.349685 
   29600    236.17975   -301.80706    181563.75   -13271.487     971.5296   -14243.017   -518.47457    207.92284    78.671985    25.179288    16.322769 
   29800    237.98082   -357.90451    181563.75   -13232.082    978.93836    -14211.02   -655.24127    211.70097    78.673146    25.177822    16.329321 
   30000    235.88396    -212.5523    181563.75   -13231.738    970.31287   -14202.051   -182.16933     212.5776    78.674513    25.176645    16.357739 
   30200    239.71319   -264.68635    181563.75   -13260.238    986.06451   -14246.302   -344.87613    216.59503    78.675282    25.175698     16.34186 
   30400    235.42818   -195.74817    181563.75   -13308.466    968.43802   -14276.904   -130.36095    218.16306    78.672097    25.177152    16.322416 
   30600    235.10842   -295.40164    181563.75   -13323.239    967.12269   -14290.361   -511.32565    220.10056    78.670818    25.174698    16.309918 
   30800    243.45333   -270.90838    181563.75   -13282.195    1001.4496   -14283.645   -393.57644    220.50025    78.669183      25.1741    16.311717 
   31000    243.07945   -246.82562    181563.75   -13292.699    999.91165   -14292.611   -315.60307    220.55353    78.669566    25.175706    16.310637 
   31200    237.16228   -493.48733    181563.75   -13260.085    975.57128   -14235.656   -1214.5609    221.58446     78.67043      25.1821    16.301604 
   31400    240.81967   -307.77898    181563.75   -13273.538    990.61603   -14264.154    -514.9078    222.39176    78.666289    25.185633    16.307461 
   31600    242.48551   -212.84607    181563.75   -13222.997    997.46847   -14220.466   -228.12504    224.86671    78.666723    25.189911    16.300121 
   31800    237.51336   -454.85704    181563.75   -13273.903    977.01546   -14250.918   -1024.9848    225.41339    78.665131    25.190367     16.32088 
   32000    234.13289   -404.01649    181563.75   -13265.953    963.10982   -14229.063   -867.28143    227.49263    78.666922    25.188469    16.290353 
   32200    235.96733    -347.6765    181563.75   -13336.067    970.65583   -14306.723    -697.2883    229.21068     78.67243    25.191478     16.28768 
   32400    236.46663   -378.98204    181563.75   -13312.748    972.70972   -14285.457   -743.28106    229.05867    78.675538    25.193395    16.271487 
   32600    236.95083   -335.58653    181563.75   -13255.729    974.70147   -14230.431   -639.07993    231.50592    78.676431    25.192568    16.269757 
   32800    234.69736   -368.46704    181563.75   -13271.463    965.43177   -14236.894   -735.49582    233.36447    78.672127    25.193335    16.281252 
   33000    243.09348   -406.17561    181563.75    -13252.58    999.96936    -14252.55   -914.31253    232.80117    78.671549    25.191235    16.315737 
   33200    243.13505   -298.43623    181563.75   -13279.141    1000.1404   -14279.281   -446.98087    235.21924    78.673677    25.189676    16.310634 
   33400    234.06843   -297.80421    181563.75   -13278.753    962.84466   -14241.598   -444.74439    235.33722    78.677372    25.185671    16.299098 
   33600    237.30336   -317.25938    181563.75   -13282.289     976.1516   -14258.441   -545.49812    234.51149    78.676867    25.186782     16.29693 
   33800    248.43163   -344.58572    181563.75    -13231.09    1021.9279   -14253.018    -726.4583    234.21744    78.677686    25.189596    16.289671 
   34000    247.38996   -294.34886    181563.75   -13246.214     1017.643   -14263.857   -511.45985    236.79768    78.681432    25.192028    16.298344 
   34200    236.11643   -332.17432    181563.75   -13282.705    971.26915   -14253.974   -575.45069    236.65428    78.679562     25.19404    16.304041 
   34400    237.31918   -319.86305    181563.75   -13295.426    976.21668   -14271.642   -610.49167    238.56257    78.680399    25.196238    16.314161 
   34600     236.5741    -255.3948    181563.75   -13283.386    973.15178   -14256.537   -351.87152    239.36249    78.679339    25.195928    16.337949 
   34800    235.56967   -439.57333    181563.75   -13247.492    969.02006   -14216.512   -986.18384    241.09388    78.680062    25.198293    16.344277 
   35000    236.73778   -346.88003    181563.75    -13287.99     973.8251   -14261.815   -639.75776     242.3062    78.682441    25.195393    16.345355 
   35200    237.60053   -452.02682    181563.75   -13271.723    977.37404   -14249.097    -1070.671    242.31979    78.682914    25.196209      16.3515 
   35400    239.24119   -422.18638    181563.75    -13225.58     984.1229   -14209.703   -921.67458    242.79449    78.683348     25.19632    16.385522 
   35600    239.05385   -478.31831    181563.75   -13265.711    983.35227   -14249.063   -1141.3588    243.83513    78.686149     25.19804    16.367521 
   35800    239.42711    -292.9663    181563.75   -13252.471    984.88769   -14237.359    -473.6744    244.76628    78.686936     25.19811     16.36734 
   36000    237.84888   -228.50577    181563.75    -13295.97    978.39563   -14274.366    -214.6113    245.88923    78.684985    25.200099    16.387111 
   36200     236.7786   -164.23451    181563.75   -13305.516    973.99301   -14279.509   -10.953415    246.85993    78.683657    25.195212    16.378666 
   36400    239.70285   -435.11814    181563.75   -13249.893    986.02195   -14235.915   -992.25992    249.71705    78.683382    25.195556    16.377853 
   36600    235.77461    -368.2247    181563.75   -13305.345    969.86308   -14275.208   -775.10257    250.25404    78.687157     25.19602     16.37064 
   36800    230.68978   -398.84224    181563.75   -13317.486    948.94654   -14266.432   -867.68696    250.34631    78.688474    25.198748    16.361623 
   37000    234.82312   -256.27247    181563.75   -13238.027     965.9491   -14203.976   -331.97696    252.27898    78.688041    25.201055     16.34919 
   37200    236.45901   -337.49024    181563.75   -13310.217    972.67837   -14282.896    -650.0654    251.42582    78.691678    25.201582    16.362902 
   37400    237.43294   -469.48165    181563.75   -13279.042    976.68464   -14255.727   -1137.5073    252.59172    78.691664    25.203317    16.335876 
   37600    246.24956   -503.90764    181563.75   -13241.061     1012.952   -14254.013   -1270.8945    254.58028    78.695623    25.200576    16.323206 
   37800    235.68771   -398.13254    181563.75   -13303.271     969.5056   -14272.776   -825.76706    255.48065    78.697856    25.204011    16.342503 
   38000    237.04108   -294.18739    181563.75   -13289.443    975.07272   -14264.516   -462.89387    257.82943    78.697389    25.203078    16.345167 
   38200    239.08025   -310.37181    181563.75   -13251.465     983.4609   -14234.926    -529.8733    258.92471    78.696735    25.204334    16.347102 
   38400    242.71196     -138.814    181563.75   -13240.031        998.4   -14238.431    59.856308    260.46671    78.696914    25.206478    16.344404 
   38600    240.73506   -141.22386    181563.75   -13257.507    990.26797   -14247.775    48.544886    260.29038    78.695457    25.209838     16.32804 
   38800     242.1068   -210.94352    181563.75   -13259.842    995.91066   -14255.752   -202.39789    260.21004    78.696932    25.210904    16.321683 
   39000    244.46758   -250.50787    181563.75    -13228.76    1005.6217   -14234.382   -336.42054    260.92062    78.694673    25.212219    16.324899 
   39200    238.16014    -306.8727    181563.75   -13301.465    979.67599   -14281.141   -523.62823    262.73349    78.698288    25.214051    16.303366 
   39400     243.3416   -480.54749    181563.75   -13262.319      1000.99   -14263.309   -1176.8713     263.9734    78.700646    25.220867    16.301463 
   39600    239.23857   -382.63382    181563.75    -13301.19    984.11214   -14285.302   -794.87432    265.15259    78.701299    25.217842    16.308582 
   39800    253.60923   -257.31834    181563.75   -13208.437    1043.2261   -14251.663   -380.43948    266.33804    78.701838    25.215527    16.293155 
   40000     241.3278   -330.92812    181563.75   -13316.447    992.70621   -14309.153   -606.70581    267.22957    78.702026    25.216922     16.31418 
   40200    234.56399   -280.42288    181563.75   -13340.406    964.88315   -14305.289    -466.0846    268.89381    78.698526    25.218694    16.302563 
   40400    241.59163   -399.77533    181563.75   -13242.856    993.79148   -14236.647   -899.81261    267.36471    78.695873    25.217238    16.305324 
   40600    237.61631   -454.74454    181563.75   -13372.391    977.43893    -14349.83   -1067.7905    268.06442    78.697428    25.216208    16.304531 
   40800    241.04667   -344.80834    181563.75   -13309.948    991.54977   -14301.498   -672.84802    269.09271     78.69931    25.217686    16.298123 
   41000    249.58059   -453.38399    181563.75   -13279.128    1026.6542   -14305.782   -1023.4734    272.13165    78.702779    25.218866    16.314518 
   41200    239.21134   -440.32561    181563.75   -13286.291    984.00012   -14270.291   -984.98792    273.63622    78.702538    25.222312    16.345449 
   41400    242.95827   -328.89965    181563.75   -13283.765    999.41317   -14283.178   -619.27666    274.93704    78.701933    25.225093     16.34026 
   41600    240.35193   -414.84576    181563.75   -13222.392    988.69196   -14211.084   -912.98009    275.86609    78.696892    25.221608    16.354261 
   41800    233.92995   -459.83999    181563.75   -13283.345    962.27505    -14245.62   -1031.6958    275.90135    78.694257    25.223374    16.350937 
   42000    236.62913   -231.05258    181563.75   -13299.214    973.37814   -14272.592   -222.46487    275.95621     78.69339    25.225109      16.3658 
   42200    235.61269   -371.97886    181563.75   -13285.781    969.19703   -14254.978   -739.72296    279.57519    78.693198    25.232238     16.37241 
   42400    236.16854   -187.80272    181563.75   -13283.105    971.48353   -14254.588   -96.495875    280.55759    78.695915    25.237438    16.388168 
   42600    236.81008   -385.15549    181563.75   -13273.694     974.1225   -14247.817   -784.34785    282.69714    78.698159    25.239597    16.376402 
   42800    241.57448   -376.91866    181563.75   -13238.316    993.72095   -14232.037   -793.55878    283.57915    78.699587    25.240463    16.354776 
   43000    227.46387   -361.14186    181563.75   -13233.181    935.67671   -14168.858   -731.33125    285.78493    78.704027    25.239294    16.355188 
   43200    235.78314   -326.65726    181563.75   -13247.088    969.89818   -14216.986   -641.32483    287.43207    78.703244    25.234388    16.337926 
   43400    242.82503   -343.87605    181563.75   -13276.313    998.86509   -14275.179   -654.96571    288.62718    78.700331    25.230149    16.341097 
   43600    236.13249   -529.46002    181563.75   -13309.552    971.33522   -14280.887   -1314.3273    289.11052      78.7038    25.231301    16.348651 
   43800      244.914   -175.97684    181563.75   -13280.647    1007.4581   -14288.105   -13.934602    289.30431    78.701612    25.231766    16.340042 
   44000    237.05463   -530.24828    181563.75    -13340.17    975.12846   -14315.299   -1308.1075    290.64973    78.702339    25.235251    16.325247 
   44200    238.22865   -307.50432    181563.75   -13303.237     979.9578   -14283.195   -537.21603    289.07464    78.704422    25.235988     16.31731 
   44400    239.47452   -220.62173    181563.75   -13240.538     985.0827   -14225.621   -249.25209    291.61756    78.706424    25.233338    16.319317 
   44600    235.35401   -281.23092    181563.75   -13308.398    968.13292   -14276.531    -413.4201    293.19871    78.704671    25.234403    16.324481 
   44800    240.52166   -347.88539    181563.75   -13321.167    989.39016   -14310.558   -666.10089    294.29084    78.702594    25.235156     16.32138 
   45000    242.26879   -419.94018    181563.75   -13299.226    996.57699   -14295.803   -896.97285    295.43698    78.707262    25.233196    16.298232 
   45200    240.06176   -412.52248    181563.75   -13221.808    987.49835   -14209.307   -948.20381    294.81392    78.709043    25.232734    16.294518 
   45400    247.12225   -323.53639    181563.75    -13204.04    1016.5418   -14220.581   -607.27026    294.27069    78.710961    25.229969    16.300698 
   45600    240.27795   -302.73878    181563.75   -13211.241    988.38764   -14199.628   -543.14347    292.93429    78.714424     25.22874    16.287204 
   45800    234.43252   -406.03768    181563.75   -13287.175    964.34235   -14251.518   -876.69771     293.0392     78.71726    25.228093    16.293752 
   46000    235.89149     -278.644    181563.75   -13282.315    970.34386   -14252.659   -469.59017    293.48469    78.721493    25.226344    16.271811 
   46200    246.82248    -398.1176    181563.75   -13275.281    1015.3087   -14290.589   -841.28206    297.83891    78.722685    25.229421    16.268867 
   46400     239.8418   -347.16473    181563.75   -13264.616    986.59353    -14251.21   -643.47356    300.44716    78.723494    25.232017    16.277218 
   46600    235.61967   -476.89359    181563.75   -13317.941    969.22571   -14287.167   -1115.6338    302.98704    78.724396    25.232434    16.277992 
   46800    252.12349   -432.95128    181563.75   -13281.432    1037.1145   -14318.547   -1001.7731    303.43776    78.727168    25.231368    16.270912 
   47000    246.41144   -339.92457    181563.75   -13239.537    1013.6179   -14253.155   -639.97127    302.53511    78.730224     25.22915    16.259532 
   47200     237.1801   -303.19476    181563.75   -13337.445    975.64457   -14313.089   -533.47394    304.78196    78.731389    25.230163    16.243561 
   47400    240.52775   -328.12551    181563.75   -13325.119     989.4152   -14314.534   -608.30889    305.37179    78.731597    25.232209    16.258273 
   47600    240.74499   -326.62732    181563.75   -13309.651    990.30884    -14299.96    -580.0195    306.42488    78.734803    25.228942    16.247009 
   47800    240.90125   -473.77194    181563.75   -13281.192    990.95159   -14272.144   -1156.6275    310.03111    78.737407    25.228703    16.267449 
   48000    240.94382   -362.28916    181563.75   -13312.499    991.12673   -14303.626   -701.64298    308.52419     78.73826    25.229222    16.245925 
   48200    244.97933   -331.14943    181563.75   -13311.955    1007.7269   -14319.682   -599.66764    310.35532    78.739005    25.226012    16.236583 
   48400    232.84985   -269.05605    181563.75    -13330.49    957.83201   -14288.322   -389.07239    309.07695    78.738972    25.224029    16.227775 
   48600    240.47481   -291.13781    181563.75   -13273.127    989.19744   -14262.324   -473.23906    310.32545    78.737304    25.226968    16.217436 
   48800    244.14536   -370.74599    181563.75   -13302.047    1004.2963   -14306.344   -750.56136    311.38617    78.733947    25.227154    16.230612 
   49000    236.84446   -352.51931    181563.75   -13288.725    974.26392   -14262.989    -665.5654    311.48746    78.731988    25.227262    16.243435 
   49200      236.742   -383.45506    181563.75   -13273.945    973.84246   -14247.787   -842.71576    314.11796    78.727396    25.226657    16.236697 
   49400    242.89369   -442.19412    181563.75   -13282.357    999.14755   -14281.505   -981.42295    316.75424    78.724204    25.227468    16.236052 
   49600    241.11058   -413.09781    181563.75   -13322.951    991.81269   -14314.764   -938.54871    317.51228    78.722515     25.22547    16.252717 
   49800    237.57565   -260.14545    181563.75   -13351.258    977.27169    -14328.53   -362.00363    316.85542    78.717747    25.226305    16.235737 
   50000    240.29664   -495.10335    181563.75   -13337.521    988.46452   -14325.986   -1196.2363     318.1094    78.711757    25.227051    16.225429 
   50200     245.9013   -407.13426    181563.75   -13291.445    1011.5194   -14302.965   -876.73136    318.55273    78.709527    25.229138    16.225612 
   50400    236.28674   -292.86987    181563.75   -13280.008    971.96974   -14251.977   -514.15505    319.67532    78.710833    25.226006    16.219307 
   50600      234.825   -420.43973    181563.75   -13355.461    965.95683   -14321.417   -924.44895    322.08109    78.711583    25.222825    16.205165 
   50800     236.6999   -229.31036    181563.75   -13342.606    973.66927   -14316.275   -244.57118    322.53713    78.710275    25.220334    16.236996 
   51000     248.8807   -215.70253    181563.75   -13245.402    1023.7752   -14269.177    -212.5559    324.04752     78.70946    25.216844    16.241831 
   51200    238.21898   -165.24952    181563.75   -13321.848    979.91801   -14301.766   -36.509583    324.88377    78.709483    25.218844    16.257739 
   51400    237.42128   -359.24371    181563.75   -13294.752    976.63666   -14271.388   -734.76422    328.76284    78.711319    25.220224    16.264058 
   51600    244.95009   -256.38817    181563.75   -13289.847    1007.6066   -14297.453   -316.01552    328.64251    78.708656    25.220054    16.295774 
   51800    242.73441   -309.70067    181563.75   -13295.306    998.49234   -14293.798   -552.79457    330.56415    78.707641    25.216658     16.28459 
   52000     241.4218   -453.41342    181563.75   -13327.616    993.09287   -14320.709    -1076.208    330.97895     78.71115    25.211121    16.269493 
   52200    243.66489   -455.65706    181563.75   -13322.636    1002.3199   -14324.955   -1066.0592    331.30482    78.711101    25.208735    16.259241 
   52400    234.64728   -320.13684    181563.75   -13307.035    965.22576   -14272.261   -570.04855     330.7157    78.706565    25.208475     16.27872 
   52600    233.19741   -277.37977    181563.75   -13312.367    959.26173   -14271.628   -393.98611    329.77761    78.704548    25.208913    16.238958 
   52800    234.46038   -323.92926    181563.75   -13397.428    964.45696   -14361.885   -602.03196    332.15114    78.703569    25.205428    16.233282 
   53000    228.23644   -424.54368    181563.75   -13394.077    938.85469   -14332.932   -904.09173    333.56481    78.702102    25.204355    16.257155 
   53200    238.34525   -319.90937    181563.75   -13359.347    980.43744   -14339.784   -586.22173    333.47381    78.701601    25.200669    16.270018 
   53400    232.59359   -379.67699    181563.75   -13342.338    956.77788   -14299.116   -808.89092    334.28944    78.701215    25.197683     16.25108 
   53600    239.13664   -414.28795    181563.75   -13300.721    983.69286   -14284.414   -899.16636    334.35724    78.700231    25.197699    16.259126 
   53800    236.68255   -276.09882    181563.75    -13306.41    973.59791   -14280.008   -434.00195     334.3326    78.697445    25.198289    16.279486 
   54000    236.51772   -373.57646    181563.75   -13222.994    972.91985   -14195.914   -765.07892    336.19652    78.695722    25.197741    16.264562 
   54200     230.1199   -438.83461    181563.75    -13308.55    946.60234   -14255.153   -1025.2878    333.69913    78.696525    25.195232    16.279348 
   54400    233.91694   -261.09291    181563.75   -13272.642    962.22151   -14234.864   -406.79899    332.75517    78.694285    25.192286    16.290405 
   54600    237.29222   -422.27635    181563.75   -13241.057    976.10577   -14217.163   -969.58861    337.21307     78.69487     25.19529    16.315584 
   54800    240.76018   -289.35889    181563.75   -13202.658     990.3713   -14193.029   -444.90831    335.21208    78.694935    25.193982    16.334642 
   55000    241.08121   -444.88242    181563.75   -13258.911    991.69189   -14250.603   -1027.8686    334.90299    78.693769    25.195142    16.320844 
   55200    241.17991   -276.90776    181563.75   -13252.871    992.09787   -14244.969   -450.53362    336.34721    78.696374    25.192155    16.298015 
   55400    250.02587   -138.61097    181563.75   -13266.168    1028.4859   -14294.653    87.550281    337.40199    78.699372     25.19129    16.260654 
   55600    242.32546   -521.25716    181563.75   -13280.952    996.81011   -14277.762   -1282.6404    341.65497    78.699595    25.189913    16.237748 
   55800    240.21216   -278.28477    181563.75   -13318.397    988.11701   -14306.514    -402.1408    341.66526    78.702765    25.192288    16.248522 
   56000    232.36348   -444.59029    181563.75   -13358.688    955.83133   -14314.519   -1028.6558    340.70535    78.705565     25.19627    16.286863 
   56200    243.34624   -494.45834    181563.75   -13293.161    1001.0091    -14294.17   -1137.0036    342.48376    78.706865    25.195703    16.288357 
   56400    239.14622   -476.07593    181563.75   -13314.537    983.73224   -14298.269   -1131.5059    340.68814    78.712674    25.189716     16.32125 
   56600    238.10287    -234.6594    181563.75   -13334.194    979.44042   -14313.634   -273.44338    340.19614    78.715171    25.185818    16.303572 
   56800    232.09377   -307.51625    181563.75   -13338.817    954.72185   -14293.539   -554.22085    341.48879    78.716757    25.184542    16.293353 
   57000    229.56609   -379.94717    181563.75   -13330.268     944.3242   -14274.592   -797.74621    343.37123    78.719137    25.184802    16.271194 
   57200    234.42905   -334.87721    181563.75   -13310.201    964.32807   -14274.529   -658.60361    342.55408     78.71748     25.17913    16.278616 
   57400     239.7176   -220.12078    181563.75   -13298.959    986.08262   -14285.042   -245.02278    343.33541    78.715073    25.182477    16.300341 
   57600    241.69176   -407.11778    181563.75   -13199.024    994.20339   -14193.227   -902.97788    344.85726    78.713562    25.183033    16.282896 
   57800    243.46482   -473.21004    181563.75   -13260.486    1001.4969   -14261.983   -1100.5079     346.7977    78.716401    25.179598    16.303382 
   58000    248.75225    -279.0492    181563.75   -13244.525    1023.2468   -14267.772    -441.9742    346.54096    78.718483    25.180294     16.33773 
   58200    240.91858   -370.41563    181563.75   -13295.945    991.02287   -14286.968   -782.32321    347.10191    78.717638    25.178352    16.321116 
   58400    233.78451   -450.79444    181563.75   -13304.891    961.67675   -14266.567   -1039.7611    351.62308    78.712723    25.173396    16.341391 
   58600     234.8267   -369.49086    181563.75    -13290.38    965.96381   -14256.344   -806.60314    350.84934    78.711819    25.173982    16.338013 
   58800    240.94586   -370.56339    181563.75   -13306.371    991.13509   -14297.506   -725.12391    352.61581    78.709866    25.166493    16.324184 
   59000    247.25817   -380.78802    181563.75   -13314.191    1017.1009   -14331.292   -793.18022    352.53959    78.708356    25.164762    16.338021 
   59200    238.43821   -334.24674    181563.75   -13292.812    980.81983   -14273.632   -631.79722    353.64042    78.711967    25.166393    16.353227 
   59400    242.30559   -440.96658    181563.75   -13298.607    996.72838   -14295.335   -991.85259    355.82959    78.714462    25.167944    16.336679 
   59600    244.58236   -364.13883    181563.75   -13257.809    1006.0939   -14263.903   -730.21463    356.56454    78.717297    25.166033    16.301312 
   59800    240.41822    -367.9151    181563.75   -13265.031    988.96463   -14253.996   -725.03414    357.28779    78.717244    25.166239    16.294806 
   60000    235.94887   -383.03598    181563.75   -13325.642    970.57991   -14296.222   -760.21304    357.75868    78.720491    25.163461    16.281722 
   60200    240.98606   -377.82362    181563.75   -13265.585    991.30046   -14256.885   -786.26277    355.64526    78.724324    25.159873    16.292957 
   60400     230.7218   -480.97789    181563.75   -13346.549    949.07823   -14295.627   -1178.1966    357.75136    78.726079    25.154698    16.320185 
   60600    231.31436   -315.36283    181563.75   -13325.959    951.51575   -14277.474    -533.5246    357.79384    78.728464    25.151515    16.313236 
   60800    236.64081   -325.72633    181563.75   -13341.404    973.42619    -14314.83   -573.13318    358.99047    78.725511    25.148615    16.274898 
   61000    224.21931   -335.64188    181563.75   -13353.277    922.33015   -14275.607   -644.52607     359.2455    78.724834    25.146634     16.30323 
   61200    237.66882    -383.0855    181563.75   -13332.806    977.65495   -14310.461   -825.14742    360.86467    78.722828    25.149842    16.295028 
   61400    239.61874   -459.54104    181563.75   -13323.151    985.67599   -14308.827   -1048.3075    360.14556    78.723437    25.147372    16.303697 
   61600    245.18011   -270.13701    181563.75   -13316.936    1008.5527   -14325.488   -414.45101     359.8567    78.723575    25.144601    16.298147 
   61800    240.11681   -408.96394    181563.75   -13258.232    987.72477   -14245.957   -906.83353    363.05099    78.723485    25.148771    16.272044 
   62000    245.34284   -445.09836    181563.75   -13278.945    1009.2221   -14288.167   -1027.3012    361.98457    78.722979    25.151907    16.285527 
   62200    244.85038   -385.66643    181563.75   -13242.006    1007.1964   -14249.202    -843.7669    360.70374    78.721204    25.145931    16.326674 
   62400    249.94928   -340.95007    181563.75   -13248.233    1028.1708   -14276.404   -630.12633    361.08089    78.722635    25.146364    16.337222 
   62600    236.22515   -344.21494    181563.75    -13335.07    971.71636   -14306.786   -660.07727    359.74925    78.720276    25.148202    16.324562 
   62800    244.99125   -475.14614    181563.75   -13322.604    1007.7759    -14330.38   -1085.1576    362.40333    78.717695    25.145635     16.31821 
   63000    240.00867   -347.74471    181563.75   -13271.568    987.27995   -14258.848   -712.66216    363.18728    78.719113    25.151417    16.299641 
   63200    233.98596   -468.53812    181563.75   -13318.713    962.50544   -14281.218   -1099.4447    364.27724    78.722168    25.156602    16.332547 
   63400    242.49742   -387.16039    181563.75   -13252.292    997.51747   -14249.809   -838.11348    365.57279    78.720934    25.156812    16.337566 
   63600     241.4056   -257.49953    181563.75   -13201.009    993.02625   -14194.035   -363.04763     367.9106    78.718826     25.15333    16.348926 
   63800    243.86085   -239.08857    181563.75   -13242.002    1003.1259   -14245.128   -243.15885     367.0117     78.72411    25.152365    16.335679 
   64000    243.30467    -490.7579    181563.75   -13293.361    1000.8381   -14294.199   -1179.2026    369.72332    78.726751    25.151091    16.314225 
   64200    234.43481   -370.01511    181563.75   -13286.492    964.35179   -14250.844   -713.30883    370.62453    78.722782    25.149909    16.306292 
   64400    236.95525   -314.78643    181563.75   -13263.366    974.71966   -14238.086   -543.65393    370.94995    78.722341    25.152528    16.311038 
   64600    242.95357   -364.36629    181563.75   -13251.618    999.39384   -14251.012   -713.83215    372.06725    78.720198    25.154836    16.306962 
   64800    241.50143   -258.72964    181563.75   -13246.263    993.42046   -14239.684   -355.94283    374.04609     78.71951    25.154943    16.286536 
   65000    227.92414   -247.72652    181563.75   -13317.569    937.57002   -14255.139    -341.1076    375.74357    78.716741    25.154289    16.289189 
   65200    237.89613   -466.56675    181563.75   -13307.746    978.58996   -14286.336   -1111.9475    380.80692    78.718254    25.153887    16.286296 
   65400    246.15126   -444.82868    181563.75   -13165.713    1012.5476   -14178.261   -1014.1025     381.4594    78.718369     25.15103    16.287387 
   65600    244.39101   -396.98368    181563.75    -13246.44    1005.3068   -14251.747   -861.47189    383.75822    78.720074    25.152045      16.2756 
   65800    247.36601   -414.76525    181563.75   -13231.196    1017.5445    -14248.74   -893.03452    385.80589    78.719234    25.151848    16.287703 
   66000    231.47304    -243.5056    181563.75   -13306.758    952.16848   -14258.926   -309.45368    386.26021    78.719147    25.154497    16.288658 
   66200    244.25281   -187.21063    181563.75   -13264.113    1004.7383   -14268.852   -95.033298    389.37546    78.721128     25.15485    16.300207 
   66400    233.98284   -310.76472    181563.75   -13316.574    962.49258   -14279.067   -504.39353    390.94749    78.720081     25.15592    16.299809 
   66600    238.80721   -370.84641    181563.75   -13304.929    982.33775   -14287.267   -741.20269    392.86954    78.719156     25.15703    16.297369 
   66800    237.36349   -242.85579    181563.75    -13343.26    976.39896   -14319.659   -307.20481    394.60214    78.717647    25.152347    16.289862 
   67000    236.00487   -445.17195    181563.75   -13370.899    970.81027   -14341.709   -1042.6072    396.24557    78.717453    25.153116    16.304152 
   67200    239.41901   -497.22396    181563.75   -13352.529    984.85439   -14337.384   -1221.8559    397.29458    78.715124     25.15327    16.322762 
   67400    242.62785   -273.15783    181563.75   -13294.414    998.05399   -14292.468   -399.84983    395.43933    78.714387    25.150485    16.303032 
   67600    241.26916   -247.74517    181563.75   -13309.846    992.46502   -14302.311   -294.02353    397.52829    78.712532    25.149041    16.299609 
   67800    239.16493   -386.17941    181563.75   -13284.849    983.80921   -14268.658   -790.35107    397.34014    78.709408    25.146017    16.307309 
   68000    241.46343   -195.90485    181563.75   -13266.184    993.26412   -14259.448   -134.50937    396.33729    78.706306    25.145124    16.332481 
   68200    237.86475   -365.52854    181563.75    -13267.23     978.4609    -14245.69   -749.43412    400.16111    78.706261    25.147641    16.338536 
   68400    253.31774   -579.37168    181563.75   -13230.949     1042.027   -14272.976    -1521.892    401.18389    78.705243    25.145854    16.355434 
   68600    240.17359   -386.84931    181563.75   -13299.713    987.95835   -14287.671   -816.24836    403.02033     78.70633    25.144475    16.361729 
   68800    241.91762   -367.79976    181563.75   -13228.297    995.13245    -14223.43   -719.28444    400.24187    78.706527    25.144374    16.384868 
   69000    238.73763   -414.23133    181563.75   -13240.893    982.05152   -14222.944   -885.56692    401.77401    78.708096    25.147204    16.370008 
   69200    244.48775   -331.98735    181563.75   -13285.631    1005.7047   -14291.335   -658.52223    403.84248    78.705753    25.148814    16.371434 
   69400    232.15864   -437.80068    181563.75   -13321.663    954.98872   -14276.652   -1016.8124    405.23954    78.709188    25.148771    16.340686 
   69600    243.20861   -333.12362    181563.75   -13259.282     1000.443   -14259.725   -652.68235     405.8616    78.709534    25.151711     16.34152 
   69800    239.97829   -383.98036    181563.75   -13274.188    987.15498   -14261.343   -805.90755    410.80813    78.710314    25.153096    16.334994 
   70000    236.10552   -317.05024    181563.75   -13325.554    971.22426   -14296.779   -561.84657    410.71631    78.710911    25.157362    16.344266 
   70200    232.62772   -520.08151    181563.75   -13305.605     956.9183   -14262.523   -1272.0776    412.08634    78.706286    25.160404    16.338864 
   70400    237.91453    -275.5012    181563.75   -13267.294    978.66568    -14245.96   -408.32978    412.40146    78.702467    25.167556    16.347844 
   70600    236.87443   -391.74876    181563.75   -13251.205    974.38719   -14225.593   -827.98664    414.11213    78.697174    25.171996    16.345534 
   70800    244.41508   -359.76581    181563.75   -13280.476    1005.4058   -14285.882   -695.89591    413.97729    78.697569    25.172282    16.350509 
   71000    242.97471   -406.05487    181563.75   -13255.368    999.48083   -14254.848   -873.60389    413.09342    78.696033    25.171395    16.372729 
   71200    255.46492   -440.32382    181563.75    -13167.47    1050.8595   -14218.329   -979.42017    416.89886    78.694508    25.173324    16.353696 
   71400     232.2924   -309.26643    181563.75   -13277.062    955.53896   -14232.601   -541.35788     418.9785      78.6911    25.175136    16.331612 
   71600    235.96301   -421.39214    181563.75   -13306.492    970.63805    -14277.13   -943.68859    419.09292      78.6885    25.172614    16.323936 
   71800     235.8328    -441.4223    181563.75   -13287.063    970.10244   -14257.166   -980.75427    417.30137    78.687123    25.171739    16.313765 
   72000    240.10578    -397.0718    181563.75    -13235.25    987.67942    -14222.93   -862.11781    416.55184    78.688096     25.17008    16.346809 
   72200    240.87479   -463.00766    181563.75   -13253.195    990.84277   -14244.037   -1092.3898    417.02561    78.687823    25.172284    16.361698 
   72400    239.69753   -398.90737    181563.75    -13256.89    986.00006    -14242.89   -869.55759    417.18665    78.688513    25.174543    16.389394 
   72600    235.58112   -418.49643    181563.75    -13256.62    969.06716   -14225.687   -960.56746    419.58787    78.688714    25.179495    16.368907 
   72800    239.36971   -360.82896    181563.75   -13326.772    984.65159   -14311.424   -732.42694    421.24637    78.688076    25.181429    16.381486 
   73000    245.73781   -457.59505    181563.75    -13271.15    1010.8469   -14281.997   -1068.4655     422.8705    78.685393    25.178194    16.368236 
   73200     245.4846    -453.1695    181563.75    -13236.07    1009.8053   -14245.876   -1082.0507    420.51698    78.685704    25.178436    16.354453 
   73400     239.0773   -314.28931    181563.75   -13295.774    983.44874   -14279.223   -583.79146    422.23585    78.686453    25.180806    16.352897 
   73600    241.67208   -318.54227    181563.75   -13286.581    994.12242   -14280.703    -571.3429    420.52694    78.691089    25.179807    16.352738 
   73800    249.13725   -336.86062    181563.75   -13207.568    1024.8305   -14232.398   -623.33694    421.43229    78.691974    25.178802    16.334738 
   74000    244.07308   -628.83135    181563.75   -13212.158     1003.999   -14216.157   -1672.1767    422.63797    78.689466    25.175949    16.312293 
   74200    249.43427   -307.55974    181563.75   -13223.019    1026.0523   -14249.071   -552.62404    421.10318      78.6892    25.179005    16.317862 
   74400    247.19237   -507.72509    181563.75   -13243.041    1016.8302   -14259.871   -1218.5413    419.17675    78.688582    25.177754    16.301321 
   74600     234.8025   -364.18975    181563.75   -13262.839    965.86426   -14228.704   -748.58021    416.88559    78.688048    25.179076    16.287938 
   74800    245.43529   -497.12378    181563.75    -13218.65    1009.6024   -14228.252   -1188.7411    420.23074    78.688958    25.183347    16.266179 
   75000    240.94715   -287.28203    181563.75   -13260.663    991.14041   -14251.804   -462.84686    420.52963    78.688481    25.178939    16.285119 
   75200    241.06314   -329.78148    181563.75   -13242.507    991.61755   -14234.125   -600.30254    422.57497    78.691503     25.18008    16.278678 
   75400    248.56305   -428.93222    181563.75   -13198.218    1022.4686   -14220.686    -930.2743    426.20804    78.694977     25.17972    16.284426 
   75600    234.55351   -439.05981    181563.75   -13271.777    964.84005   -14236.617   -970.23631     427.3467    78.701344    25.177856    16.265655 
   75800    244.45432   -378.58671    181563.75    -13249.06    1005.5672   -14254.627   -772.93388    429.27386     78.70104    25.178881    16.281399 
   76000    241.48793   -305.30898    181563.75   -13309.024     993.3649   -14302.389   -494.47958     430.3009    78.700312    25.184114    16.318244 
   76200    237.41581   -431.08305    181563.75   -13374.194    976.61418   -14350.808   -925.33392    433.45608    78.698926     25.18657    16.323622 
   76400    228.85944   -320.01381    181563.75   -13396.018    941.41738   -14337.435   -537.26228     435.0322    78.695447    25.192274    16.357884 
   76600    241.13989   -261.10232    181563.75   -13350.984    991.93326   -14342.917   -327.16001    435.92411    78.696468    25.192895    16.359055 
   76800     240.0695   -381.79257    181563.75   -13304.852    987.53019   -14292.382   -845.88909    435.68136    78.692331    25.193362    16.350981 
   77000    240.54733   -283.75499    181563.75   -13345.603    989.49573   -14335.099   -418.20088    435.93095    78.694298    25.197606     16.37069 
   77200    240.34777   -376.41816    181563.75   -13339.291    988.67483   -14327.965   -719.23526    438.00657    78.695273    25.198392     16.38406 
   77400    237.87159   -170.47579    181563.75   -13308.343    978.48904   -14286.832   -14.477919    439.02213    78.696581    25.200507    16.387182 
   77600    235.97673   -369.46392    181563.75   -13322.742    970.69451   -14293.436   -745.75048    440.32456     78.69699    25.195136     16.39974 
   77800    242.90592   -470.15378    181563.75   -13328.239    999.19783   -14327.437    -1142.339    440.78799    78.696097    25.195467    16.386057 
   78000    235.70872     -324.507    181563.75   -13370.952    969.59202   -14340.544   -563.52509    440.92692    78.693582     25.19693    16.394524 
   78200    239.61769   -267.13661    181563.75   -13304.535    985.67166   -14290.207   -399.65408    440.80952    78.692654    25.199469    16.364382 
   78400      238.144   -278.99149    181563.75   -13328.419    979.60962   -14308.029   -398.72081    443.51584    78.692593    25.196933    16.369693 
   78600    234.63079   -449.59327    181563.75   -13393.494    965.15794   -14358.652   -1057.7015    445.53592    78.689469    25.191009    16.336206 
   78800    235.71364   -397.81651    181563.75   -13394.749    969.61227   -14364.361   -831.13425    444.07912    78.689209    25.185418    16.334837 
   79000    236.37397   -399.12471    181563.75   -13356.247    972.32854   -14328.575   -856.43651    445.75202     78.69376    25.188048    16.343921 
   79200     246.0528   -155.98046    181563.75   -13294.886    1012.1426   -14307.029     40.33926    443.81202    78.696047    25.188619    16.353912 
   79400    245.14349    -226.0724    181563.75    -13352.23    1008.4021   -14360.632   -225.93889    445.65901    78.694708    25.187704    16.338864 
   79600    245.23723   -353.81723    181563.75   -13336.925    1008.7877   -14345.712   -672.76268    446.68193    78.694276    25.184272    16.357078 
   79800    238.36619   -349.23004    181563.75   -13352.378    980.52359   -14332.901   -674.35002    449.24429     78.69746    25.187055    16.370139 
   80000    238.53504   -351.25915    181563.75   -13368.184    981.21816   -14349.402   -656.80376    447.84795    78.702303    25.189125    16.374212 
   80200    238.12716   -313.67365    181563.75   -13300.225    979.54033   -14279.766   -546.27784    447.59724    78.704087     25.19434    16.362261 
   80400     239.0771   -217.86937    181563.75   -13301.364    983.44793   -14284.811   -189.91084    449.87678    78.704985    25.194955     16.34101 
   80600    242.70881   -324.79604    181563.75   -13241.256    998.38703   -14239.643   -653.69385    448.15614    78.703283    25.196149    16.355463 
   80800    242.53367   -196.60121    181563.75   -13305.106     997.6666   -14302.773   -126.94298    448.01722     78.69877    25.195093    16.376278 
   81000    248.21673   -389.32811    181563.75   -13237.034     1021.044   -14258.078    -761.4653    449.97761    78.695423    25.200858    16.369444 
   81200     244.6615   -311.21135    181563.75   -13283.449    1006.4195   -14289.869   -591.94449    451.32385    78.693493    25.201825    16.362002 
   81400    238.09586   -290.86089    181563.75   -13314.053    979.41159   -14293.464   -464.19571     451.7048    78.691562    25.199847    16.345825 
   81600    237.20748   -439.46221    181563.75   -13289.937    975.75722   -14265.695   -1006.0815    453.63225    78.693359    25.198245    16.337722 
   81800    232.34269   -539.79723    181563.75   -13269.433    955.74581   -14225.178   -1346.2729    452.79847    78.691757    25.195329    16.354247 
   82000    247.61172   -240.91902    181563.75   -13226.561    1018.5553   -14245.116   -283.32443    454.08454    78.692098    25.194533    16.374005 
   82200    249.42073   -293.46957    181563.75   -13261.194    1025.9966   -14287.191   -451.02249    457.07894    78.689717    25.197363    16.351797 
   82400    237.76352   -278.53054    181563.75   -13318.464     978.0445   -14296.508   -436.23689    456.19393    78.689624    25.196957    16.368427 
   82600    238.14467   -278.91878    181563.75   -13307.014    979.61234   -14286.627   -418.59198    456.40308    78.688566    25.192506    16.380619 
   82800    242.91386   -415.92593    181563.75   -13270.288     999.2305   -14269.519   -921.69373     456.4591     78.68945    25.190168    16.382709 
   83000    242.22275   -460.58865    181563.75   -13234.676    996.38759   -14231.063   -1089.0547    456.37527    78.691843     25.18597    16.388441 
   83200    236.22826   -499.00463    181563.75   -13231.065    971.72916   -14202.794   -1186.6608    458.50737    78.692464    25.179491    16.370307 
   83400    241.00143   -328.11467    181563.75   -13249.583    991.36371   -14240.947   -585.09687    459.06409    78.693321    25.178319    16.374067 
   83600    241.86163   -304.92924    181563.75   -13235.486    994.90212   -14230.388   -547.15103    457.73077    78.688628     25.18213     16.38405 
   83800    236.26281   -182.37045    181563.75   -13333.382    971.87128   -14305.253    -96.12791    458.98372    78.685514    25.181498    16.388645 
   84000    239.07905   -504.28621    181563.75   -13367.651    983.45594   -14351.107   -1231.9649    461.38095    78.679734    25.186849    16.393061 
   84200    232.05548   -417.65168    181563.75   -13373.156    954.56435    -14327.72   -931.59059     459.1844    78.678411    25.187323    16.372352 
   84400    237.50163   -365.70747    181563.75   -13346.692    976.96721   -14323.659   -746.64347    460.51538    78.682165    25.186985    16.353293 
   84600    238.75475   -378.62458    181563.75   -13309.736    982.12192   -14291.858   -763.24909    460.80967    78.683874    25.186777    16.343519 
   84800    237.99673   -320.42522    181563.75   -13322.866    979.00382    -14301.87    -588.6742    462.79444    78.682949    25.185232    16.352308 
   85000    229.76238   -288.75942    181563.75   -13300.152    945.13166   -14245.283   -401.08878    465.68641    78.679222    25.183985    16.355727 
   85200    241.19591   -347.10378    181563.75   -13204.797    992.16368    -14196.96   -699.29621    467.15647    78.679656    25.184344    16.334199 
   85400    243.05166   -309.45274    181563.75   -13275.296    999.79736   -14275.093   -571.96756    470.39749    78.679606    25.183391    16.321914 
   85600    243.59476    -440.6588    181563.75   -13290.179    1002.0314    -14292.21   -1017.5463    471.77549    78.681423    25.186048    16.351917 
   85800    245.63633   -239.78113    181563.75    -13253.58    1010.4294    -14264.01   -284.89568    472.03779    78.678272    25.186129    16.345251 
   86000    241.14111   -270.93699    181563.75   -13267.612    991.93826    -14259.55   -421.70077    471.76598     78.67886    25.182953    16.351792 
   86200    236.59975    -363.4384    181563.75    -13301.22     973.2573   -14274.477   -724.69035    469.52073    78.679377    25.179184    16.339734 
   86400    232.16328   -230.70973    181563.75   -13293.628    955.00781   -14248.636   -252.99092    471.27833    78.677534    25.178851    16.339824 
   86600     245.3528   -393.18869    181563.75   -13257.451    1009.2631   -14266.714   -809.01372    472.02228    78.674321    25.176721    16.338648 
   86800     236.7512   -214.54939    181563.75   -13259.299    973.88029   -14233.179   -224.13492    473.74056    78.674491    25.179958    16.327068 
   87000    238.86218   -364.04874    181563.75   -13286.114    982.56387   -14268.678   -742.03456    475.73734    78.675646    25.176486    16.338163 
   87200    243.08943   -379.87036    181563.75   -13274.311    999.95271   -14274.263   -799.55016     475.3519    78.676428    25.174296    16.336041 
   87400    238.04111   -368.58865    181563.75   -13268.491    979.18634   -14247.678   -781.54623    476.58961    78.677337    25.170371    16.305387 
   87600    245.68836   -323.28161    181563.75   -13271.295    1010.6435   -14281.939   -569.78868    479.55062    78.679044    25.166225    16.331058 
   87800    231.97947   -284.38609    181563.75   -13302.531    954.25169   -14256.782   -436.31228    478.78252    78.681821    25.167529    16.350064 
   88000    239.37911   -567.46816    181563.75   -13231.386    984.69025   -14216.077   -1492.5565    479.67854    78.686225    25.172573    16.360665 
   88200    240.09732   -215.21793    181563.75   -13225.753    987.64463   -14213.397   -240.32041    478.90144    78.684617    25.171883    16.376781 
   88400    237.19242   -464.24203    181563.75   -13273.823    975.69527   -14249.518   -1072.0254    479.87817    78.686192    25.170181    16.357797 
   88600    237.32674   -447.21341    181563.75   -13327.363     976.2478    -14303.61   -1024.9409    478.21975     78.68685    25.169804    16.364852 
   88800    222.88539   -390.30925    181563.75   -13330.304    916.84305   -14247.147    -810.6832    480.20978    78.687083     25.16833     16.34096 
   89000    231.82531    -375.6005    181563.75   -13345.132    953.61754    -14298.75    -776.5698    480.77323    78.689221    25.172624    16.334971 
   89200    232.28172   -194.54541    181563.75   -13335.028    955.49499   -14290.523   -140.11391    481.21309    78.686752    25.172002    16.363477 
   89400    245.01478   -298.20698    181563.75   -13282.552    1007.8727   -14290.425   -557.15847     482.2403    78.684477    25.173327     16.36968 
   89600    241.59551    -314.9726    181563.75   -13344.901    993.80744   -14338.708   -554.48012    482.50909    78.685973    25.169806    16.371949 
   89800    244.00567   -502.73214    181563.75   -13280.905    1003.7217   -14284.627   -1185.6781     484.2729    78.688232    25.167668    16.377593 
   90000    248.68207   -317.80055    181563.75   -13259.114    1022.9581   -14282.072   -608.11505    484.11094    78.687738     25.17022    16.385006 
   90200     238.6085   -362.74458    181563.75   -13347.432    981.52033   -14328.953   -749.98877    486.75243    78.694176    25.170577    16.382928 
   90400    236.08704   -446.25012    181563.75   -13394.885    971.14827   -14366.034   -1031.1969    490.40932    78.696334    25.168683    16.342949 
   90600     244.4822    -179.3867    181563.75   -13295.831    1005.6819   -14301.513   -107.27205    489.01077    78.696359    25.174539    16.357004 
   90800    239.86888   -455.20342    181563.75   -13263.433    986.70493   -14250.137   -1067.0512    491.55148    78.695363    25.174638    16.368603 
   91000    235.35599   -433.74511    181563.75   -13285.076    968.14108   -14253.217   -949.25921    490.38531    78.696254    25.172044    16.379588 
   91200    233.42621   -454.98458    181563.75   -13292.918    960.20288   -14253.121   -1099.9782    491.04806    78.694761    25.170341    16.392773 
   91400    236.29407   -510.03858    181563.75   -13335.375    971.99987   -14307.375   -1228.0912    493.05257    78.696089     25.16729    16.375694 
   91600    241.87809   -259.31175    181563.75   -13227.334    994.96985   -14222.303    -361.3925    490.02539    78.693912    25.162938    16.402179 
   91800    234.76974   -491.05122    181563.75   -13250.701    965.72953   -14216.431   -1185.3032     491.4282    78.693285    25.163597    16.365029 
   92000     245.5694   -266.00447    181563.75   -13240.268    1010.1541   -14250.422   -368.82348    488.28775    78.693223    25.161959    16.352454 
   92200    241.56574   -276.13398    181563.75   -13258.791    993.68498   -14252.476   -395.95349    489.82247    78.694511    25.161633    16.365807 
   92400    247.57137   -268.89227    181563.75    -13189.76    1018.3892    -14208.15   -377.79369    493.96692    78.695343    25.163617    16.358303 
   92600    237.61095   -270.99388    181563.75   -13253.596    977.41689   -14231.013   -386.57091    498.23837    78.694566    25.164922    16.355858 
   92800    244.78233   -231.79096    181563.75   -13262.162    1006.9165   -14269.078   -221.50234    498.55944    78.693548    25.169705    16.323538 
   93000    232.32131   -407.49646    181563.75   -13297.046    955.65784   -14252.704   -871.16162    501.04857    78.695273    25.172066     16.34218 
   93200    232.33692   -233.45494    181563.75   -13287.322    955.72207   -14243.044   -225.87274    500.32378    78.695515    25.169516    16.340022 
   93400    237.85245   -258.06182    181563.75   -13296.325    978.41032   -14274.736   -373.51842    500.09613    78.698073    25.171438    16.336571 
   93600    241.99112    -452.8183    181563.75   -13306.311    995.43478   -14301.746    -1002.625    502.02454    78.699819    25.172061    16.345502 
   93800    245.16501   -401.58801    181563.75   -13258.672    1008.4906   -14267.162   -860.23047    504.31017    78.699419    25.174085    16.344962 
   94000    238.31352   -279.86905    181563.75   -13317.442    980.30692   -14297.749   -413.17028    504.45514    78.696944    25.173576    16.367769 
   94200     251.7525   -358.55272    181563.75   -13237.477    1035.5884   -14273.066   -709.83165    504.35271    78.695957    25.174692    16.367926 
   94400    246.87835   -393.12529    181563.75   -13263.998    1015.5385   -14279.537   -839.46474    504.85198    78.698518    25.173084    16.340331 
   94600    244.62798    -305.3104    181563.75   -13250.767    1006.2816   -14257.048   -559.21652    507.22015    78.698219    25.178888    16.364766 
   94800    246.07666   -352.12549    181563.75   -13226.829    1012.2407   -14239.069   -728.68021     506.9586    78.700165    25.176546    16.379844 
   95000    239.70631   -399.46676    181563.75   -13306.058    986.03619   -14292.094   -863.58629    507.47174     78.70226    25.177547    16.367254 
   95200     241.7902   -209.43162    181563.75   -13301.945    994.60832   -14296.553   -115.47992    504.79397    78.703264    25.177657    16.378618 
   95400    246.22678   -272.95188    181563.75   -13303.405    1012.8582   -14316.263   -471.46335    505.78118    78.707254     25.17151    16.351452 
   95600    231.95119    -340.8307    181563.75   -13325.768    954.13535   -14279.903   -658.73323     508.4534    78.708153    25.170519    16.365863 
   95800    235.08917   -272.10562    181563.75   -13321.006    967.04349    -14288.05   -433.94507    506.41297    78.707527    25.168366    16.358637 
   96000    237.37831   -394.15709    181563.75   -13317.549    976.45993   -14294.009   -835.56985    508.33269    78.705985     25.16593    16.379257 
   96200    233.15782   -384.64887    181563.75   -13344.229    959.09888   -14303.328   -798.14689     507.4365     78.70612    25.162722    16.384435 
   96400    235.15875   -265.93514    181563.75   -13307.634    967.32971   -14274.964   -376.37244    506.53098    78.705845    25.163491    16.411457 
   96600    231.92347   -323.39641    181563.75   -13342.174    954.02135   -14296.196   -549.52547     506.5548    78.704794     25.16612    16.372812 
   96800    247.43137   -184.39665    181563.75   -13290.233    1017.8134   -14308.047   -78.910277    509.37698    78.702922    25.167051    16.372173 
   97000    242.59576   -264.35996    181563.75   -13291.482      997.922   -14289.404   -405.25111     511.7818    78.702831    25.164086    16.385969 
   97200    245.54635   -275.62613    181563.75   -13248.721    1010.0593   -14258.781   -420.79917    513.62469    78.700518    25.163277    16.386998 
   97400    236.14662   -403.96038    181563.75   -13332.959    971.39334   -14304.352   -901.03915    514.92332    78.698744    25.163881    16.374701 
   97600    239.32283   -449.56624    181563.75   -13288.092    984.45875   -14272.551   -1070.1823    514.30621    78.699751    25.165943     16.36137 
   97800    240.64489   -460.64568    181563.75     -13308.7    989.89705   -14298.597    -1084.412    516.54782    78.702151    25.164142    16.363295 
   98000    231.85434   -414.05253    181563.75   -13360.479    953.73696   -14314.215   -959.52725    518.19032    78.704825    25.164121    16.364165 
   98200    249.34134   -309.99034    181563.75    -13368.32    1025.6701    -14393.99   -545.35317    517.78844    78.701172    25.161145    16.377256 
   98400    245.24195   -460.46124    181563.75   -13340.016    1008.8072   -14348.823   -1145.6491    520.52391    78.706141    25.163177    16.395652 
   98600    244.29324   -479.55066    181563.75   -13302.137    1004.9046   -14307.041   -1171.1502    521.28799    78.708968    25.167258    16.382316 
   98800    253.99364   -405.14403    181563.75   -13207.068    1044.8074   -14251.875   -890.92942    520.20125    78.710995    25.169665    16.340178 
   99000    238.00445   -367.18413    181563.75   -13244.796    979.03555   -14223.832    -746.8439    521.29191    78.705822    25.168878    16.348722 
   99200    238.86998   -452.64725    181563.75   -13260.388    982.59595   -14242.984   -1032.9717    524.11275    78.704154    25.166457    16.342164 
   99400    246.64889   -289.56878    181563.75   -13256.215    1014.5946    -14270.81   -471.27877    524.75225    78.701882     25.16564    16.353252 
   99600    241.91501   -444.80562    181563.75   -13256.956    995.12171   -14252.077    -995.5932    526.49235    78.699554    25.162273    16.380196 
   99800    240.74718   -361.10414    181563.75   -13266.305    990.31783   -14256.623   -716.86037    527.61782    78.702616    25.157909    16.392511 
  100000     229.0311   -415.34509    181563.75   -13300.032    942.12353   -14242.155    -918.4938    528.75865    78.706116    25.156716    16.408144 
  100200    246.71403   -325.97481    181563.75   -13251.944    1014.8626   -14266.806   -614.85065    528.41788    78.706277    25.151507    16.394376 
  100400    241.58945   -212.61155    181563.75   -13290.706     993.7825   -14284.489    -199.2081    530.31814    78.702259    25.152585     16.37503 
  100600     233.1961   -383.28605    181563.75     -13344.3    959.25634   -14303.556   -805.05487     531.5981    78.702759    25.157392    16.375091 
  100800    239.11654   -493.92311    181563.75   -13271.485    983.61015   -14255.095    -1202.562    534.34351     78.70465    25.155142    16.383739 
[...]
 5175800     226.0333   -433.99242    181563.75   -14739.298    929.79201    -15669.09   -929.76766    5390.3887    78.609025     24.90096     16.32083 
 5176000    234.97351   -296.61385    181563.75   -14697.431    966.56775   -15663.998   -401.54343    5389.0331    78.607767    24.900839    16.317284 
 5176200    220.21987    -301.5519    181563.75   -14710.351    905.87836   -15616.229    -414.3569    5389.3527    78.605796    24.900744    16.317252 
 5176400    213.63444   -377.69245    181563.75   -14751.357    878.78908   -15630.146   -721.57993    5388.6593    78.604365    24.901124    16.324288 
 5176600     225.7192   -273.19099    181563.75   -14707.233    928.49997   -15635.733   -334.95061    5390.5506    78.605337    24.901407    16.318775 
 5176800    228.55797   -262.70423    181563.75   -14726.288    940.17729   -15666.465   -336.98171    5387.4494    78.605264    24.902771    16.325892 
 5177000    226.81403   -353.34523    181563.75   -14728.745    933.00358   -15661.748   -622.18831    5390.7392    78.604594    24.902746    16.329286 
 5177200    235.41544   -413.52239    181563.75   -14687.147    968.38562   -15655.533   -827.24589    5393.2479    78.604823    24.904688    16.324737 
 5177400    223.47035   -341.95769    181563.75   -14715.405    919.24929   -15634.654   -595.17469    5389.5869      78.6059    24.905521     16.31696 
 5177600    224.79888   -289.42049    181563.75   -14719.867    924.71423   -15644.581   -368.24935     5388.138    78.606021    24.905637     16.31387 
 5177800     217.2474   -512.55049    181563.75   -14728.412    893.65105   -15622.063   -1211.2891     5393.602    78.606284    24.905534     16.31878 
 5178000    229.35446   -343.60537    181563.75   -14715.934    943.45369   -15659.387   -564.61899    5391.1453    78.605639    24.905913     16.31643 
 5178200    226.07591   -183.35692    181563.75   -14732.871    929.96731   -15662.838    12.411268    5386.1553    78.605176     24.90637    16.318377 
 5178400    227.36261    -357.6894    181563.75   -14706.627    935.26015   -15641.887   -637.43911    5391.3946    78.604857    24.909075    16.319461 
 5178600    224.46416   -479.53971    181563.75   -14693.634    923.33733   -15616.971   -1072.6351    5394.0391    78.605797    24.908772    16.319686 
 5178800    227.00795   -262.21047    181563.75   -14676.975    933.80124   -15610.776   -277.29887     5389.878    78.605439    24.910596    16.316174 
 5179000    231.53665   -271.35217    181563.75   -14670.534    952.43015   -15622.964   -344.02783    5389.2283    78.605658    24.911513    16.316577 
 5179200    225.04177   -456.33069    181563.75   -14708.903    925.71333   -15634.617   -993.22661    5394.1581    78.606402    24.911465    16.316876 
 5179400    227.74722     -357.632    181563.75    -14720.33    936.84226   -15657.173   -620.20933    5390.8323    78.606394    24.912235    16.312951 
 5179600    223.80758   -185.35139    181563.75    -14740.27    920.63649   -15660.907   -27.339279    5386.9759    78.607542    24.913677    16.320671 
 5179800    229.68298   -452.29304    181563.75    -14696.89    944.80505   -15641.695   -972.26179    5391.8913    78.606375    24.915911    16.315566 
 5180000    224.15704   -418.99321    181563.75   -14732.284    922.07397   -15654.358    -805.8019    5394.9155    78.606197    24.916437    16.316304 
 5180200    226.66846   -247.36804    181563.75   -14715.654    932.40475   -15648.059   -249.57385    5387.1834    78.605888    24.914796    16.317801 
 5180400    228.72716   -341.51906    181563.75   -14691.104    940.87326   -15631.978   -619.37848     5388.547    78.605477    24.914709     16.31879 
 5180600     214.4154    -520.3326    181563.75   -14749.477    882.00158   -15631.479   -1196.7616    5396.8032    78.605431    24.915619    16.311448 
 5180800    224.52551   -373.35937    181563.75   -14724.785    923.58971   -15648.375   -686.49099    5390.5623    78.604458    24.915489    16.322177 
 5181000    225.93243   -216.12968    181563.75   -14737.278     929.3771   -15666.655   -168.06932    5387.2288    78.603295    24.916789     16.31545 
 5181200    225.61559   -385.12793    181563.75   -14705.269    928.07375   -15633.343   -723.06057    5392.6037    78.603259    24.917587    16.314784 
 5181400    226.22453   -433.08146    181563.75   -14703.691    930.57866    -15634.27   -873.68886    5393.9019    78.603964    24.917827    16.316527 
 5181600    226.91018   -205.11188    181563.75   -14703.242    933.39907   -15636.641   -129.58617    5387.7731    78.604547    24.919018     16.31788 
 5181800     229.8905   -266.69687    181563.75   -14674.561    945.65866    -15620.22   -318.71922    5389.5151    78.605094    24.919219    16.320039 
 5182000     222.6286   -514.77494    181563.75   -14746.619    915.78672   -15662.405   -1197.3531    5394.9323    78.603977    24.919499    16.323523 
 5182200    226.13549   -337.82729    181563.75   -14817.368     930.2124    -15747.58   -557.96938    5392.0298    78.604743    24.920242    16.315724 
 5182400    219.53043   -196.09969    181563.75   -14716.857    903.04234   -15619.899   -93.182964    5387.6848    78.605532    24.920533    16.321577 
 5182600    232.07621   -472.64775    181563.75   -14692.959    954.64966   -15647.609   -1091.0509    5391.9105    78.605853    24.921302    16.325643 
 5182800    217.92632   -511.62248    181563.75   -14721.753    896.44379   -15618.197   -1190.4818    5394.3654     78.60632    24.922246    16.321018 
 5183000    228.43666    -182.8451    181563.75   -14714.481     939.6783   -15654.159   -13.984749    5386.4754    78.606978    24.922065    16.319761 
 5183200    228.68443   -257.10915    181563.75   -14681.699    940.69747   -15622.396   -265.36094    5389.2261    78.607481    24.923924    16.313322 
 5183400    225.78174   -548.76757    181563.75   -14731.912    928.75723    -15660.67   -1315.4174    5394.8999    78.608364    24.925002    16.320214 
 5183600    231.06406    -326.9376    181563.75   -14719.207    950.48612   -15669.693   -526.91464    5391.2803    78.608037    24.925909    16.317345 
 5183800    225.40434   -239.45448    181563.75   -14748.585    927.20476    -15675.79   -250.80298    5387.2186    78.607482    24.926552    16.315804 
 5184000     221.3296   -387.83832    181563.75   -14728.743    910.44327   -15639.186   -743.09731    5392.2071    78.607113    24.927835    16.324664 
 5184200    230.86836   -450.65558    181563.75   -14726.822    949.68113   -15676.503   -929.72946    5394.1145    78.607191    24.926982    16.319844 
 5184400     223.0186   -270.87429    181563.75    -14734.41    917.39098     -15651.8   -350.37383    5388.6355    78.606887    24.927797    16.319077 
 5184600    232.09156   -291.21322    181563.75   -14705.644    954.71278   -15660.357   -427.75425    5390.2217    78.607107    24.929428    16.319929 
 5184800    229.48185   -466.15789    181563.75    -14665.25    943.97769   -15609.228   -1022.4302    5394.1386    78.606589     24.93124     16.32298 
 5185000     236.7223   -373.70642    181563.75   -14662.242     973.7614   -15636.004   -707.24953    5391.9029     78.60474    24.929929    16.320811 
 5185200     228.6978   -261.00586    181563.75   -14702.242     940.7525   -15642.995   -304.03069    5387.2103    78.604317     24.93155    16.315926 
 5185400    223.87404   -357.90397    181563.75   -14716.686    920.90986   -15637.596   -603.80073    5393.7606    78.604086    24.933254    16.321236 
 5185600     215.8064    -433.7808    181563.75   -14770.918    887.72349   -15658.642   -859.56712    5393.9507    78.602932     24.93331    16.319497 
 5185800    226.05147   -254.03773    181563.75    -14713.68    929.86676   -15643.547   -267.75432    5389.4963    78.603313    24.932925     16.31458 
 5186000    239.82719   -344.74959    181563.75    -14673.14    986.53345   -15659.674   -595.98879    5392.8281    78.604806     24.93376    16.313039 
 5186200    232.99815   -449.99264    181563.75   -14661.411    958.44206   -15619.853   -956.23677      5395.22     78.60424    24.935747    16.322817 
 5186400    226.71856   -262.99252    181563.75   -14728.496    932.61087   -15661.107   -302.55044    5389.7481    78.605184    24.935126    16.321466 
 5186600    228.79068   -285.42362    181563.75   -14706.585    941.13456    -15647.72   -418.49556    5390.0035    78.605807    24.935332    16.325532 
 5186800    229.81825   -499.62516    181563.75    -14672.06    945.36148   -15617.421   -1130.4082    5394.3793    78.605799    24.933579    16.325772 
 5187000    217.07544   -433.66381    181563.75   -14717.049     892.9437   -15609.993   -942.21588    5393.2177    78.604658    24.933814    16.318616 
 5187200    223.10138   -213.84885    181563.75   -14693.113    917.73151   -15610.845   -91.165791    5388.3521    78.605874    24.935242    16.316414 
 5187400    217.27035   -329.77412    181563.75   -14739.832    893.74545   -15633.578    -521.0677    5392.1852    78.605569    24.933857    16.321795 
 5187600    222.45305   -460.62246    181563.75   -14724.512    915.06461   -15639.576   -1014.4761     5395.229     78.60619    24.933184    16.315266 
 5187800    218.30235   -279.14039    181563.75   -14702.131    897.99061   -15600.122   -360.97883    5390.9376    78.606171     24.93319     16.31933 
 5188000    224.25182   -280.66958    181563.75   -14731.384    922.46385   -15653.848    -377.6954    5388.0817    78.605954    24.932699    16.326979 
 5188200    231.64321   -430.82403    181563.75   -14697.295    952.86849   -15650.164   -909.78132    5396.1832    78.605667    24.931729    16.322092 
 5188400    229.49441   -390.10809    181563.75   -14721.321    944.02936    -15665.35   -778.64568    5391.5922    78.605956    24.931499    16.320817 
 5188600     225.4604   -289.47678    181563.75   -14736.833    927.43539   -15664.269   -392.90084     5390.813    78.605381    24.931455    16.323552 
 5188800    226.87236   -395.45174    181563.75   -14692.879    933.24351   -15626.122   -757.68795    5394.4938    78.605524    24.932898    16.322917 
 5189000    229.25906   -417.82105    181563.75   -14715.945    943.06125   -15659.006   -829.43709    5393.0631    78.606487    24.933353    16.321637 
 5189200    226.27652   -327.04356    181563.75   -14696.626    930.79252   -15627.418   -533.43346    5390.4703    78.607404     24.93265     16.32139 
 5189400    227.54457   -321.26502    181563.75   -14717.117    936.00867   -15653.126   -508.95577     5392.843     78.60679    24.931655     16.31928 
 5189600    227.10326   -395.36366    181563.75   -14722.049    934.19332   -15656.242   -748.78316    5393.7052    78.606946    24.932364    16.327394 
 5189800    223.21853   -353.30282    181563.75   -14737.819    918.21341   -15656.032   -630.52914    5391.3756    78.608215    24.931703    16.321709 
 5190000    229.81762   -245.67898    181563.75   -14720.064    945.35889   -15665.423   -237.59234    5389.9074     78.60809    24.932446    16.322559 
 5190200    225.23806   -390.09884    181563.75   -14741.437    926.52077   -15667.957   -751.51432    5390.9802    78.607367     24.93234    16.329482 
 5190400     228.5652   -458.21099    181563.75   -14706.377    940.20702   -15646.584   -992.63378    5393.1263    78.607053    24.931886    16.324978 
 5190600    233.54564   -242.31429    181563.75   -14684.207    960.69416   -15644.901   -220.35812    5389.4693    78.605793    24.932379    16.324259 
 5190800    226.71415   -288.14159    181563.75   -14707.257    932.59269    -15639.85    -396.9537    5388.4904    78.606689    24.933335    16.321437 
 5191000    219.90481   -460.15749    181563.75   -14753.981    904.58236   -15658.563   -1000.6713    5393.7033    78.605422    24.932951    16.319657 
 5191200    226.45317   -338.34329    181563.75   -14739.674    931.51918   -15671.193   -570.23267    5389.9328    78.604385     24.93301    16.322991 
 5191400    224.01482   -237.29862    181563.75   -14721.358    921.48897   -15642.847    -249.6466     5386.453    78.603988     24.93401    16.328111 
 5191600    224.11392   -389.12962    181563.75   -14718.079     921.8966   -15639.975   -733.51066    5393.9193     78.60439    24.932893    16.323103 
 5191800    224.19389   -429.90081    181563.75    -14735.27    922.22556   -15657.495    -896.9553    5392.8564    78.603565    24.932797    16.321239 
 5192000    229.94421   -289.75803    181563.75   -14696.389    945.87962   -15642.269   -411.53879    5390.3304    78.604076     24.93229    16.325517 
 5192200    227.59891   -285.45094    181563.75   -14642.719    936.23219   -15578.952   -388.06897    5390.2001    78.604043    24.931518    16.322216 
 5192400    236.59733   -461.63225    181563.75   -14636.923    973.24735    -15610.17   -1009.7388    5394.0107    78.605379     24.93026    16.326531 
 5192600    212.13358   -324.27396    181563.75   -14710.877    872.61528   -15583.493   -509.24761    5393.1409     78.60531    24.930315    16.320275 
 5192800    223.04492   -191.93428    181563.75   -14730.022    917.49926   -15647.522   -55.928382    5388.8307    78.604554      24.9314     16.32346 
 5193000    220.21015   -445.66963    181563.75   -14704.914    905.83838   -15610.752   -981.17616    5391.6828    78.604512    24.931137    16.321051 
 5193200    221.70363   -450.10203    181563.75   -14699.865    911.98183   -15611.847   -954.82406    5394.5189    78.603727    24.931183    16.325256 
 5193400    223.92706   -210.52709    181563.75   -14767.494    921.12795   -15688.622   -87.756048    5387.9333    78.604266    24.931196    16.320563 
 5193600    224.20948   -314.80119    181563.75   -14700.149    922.28971   -15622.439   -488.51754    5390.2669    78.604756     24.93122    16.317736 
 5193800    218.13431   -535.55045    181563.75   -14729.036    897.29938   -15626.335   -1286.7553    5397.2238    78.605018    24.932593    16.316279 
 5194000    233.11722   -284.11036    181563.75   -14682.059    958.93187   -15640.991   -373.55663    5390.9551    78.604995    24.932866    16.319668 
 5194200    228.79085   -280.48023    181563.75   -14705.946    941.13523   -15647.082   -395.30835    5388.9113    78.605231    24.932485     16.31985 
 5194400    232.48685   -473.38385    181563.75   -14672.333    956.33882   -15628.671   -1082.3406    5395.7088    78.605261    24.930674    16.321945 
 5194600     225.8568   -427.39822    181563.75   -14721.133    929.06597   -15650.199   -907.10006    5391.9803    78.604342    24.928292    16.321355 
 5194800    230.46306   -210.79922    181563.75   -14685.029    948.01389   -15633.043   -107.95264    5387.8699      78.6038    24.927522     16.32022 
 5195000    225.52795   -357.85617    181563.75   -14687.117    927.71327    -15614.83   -649.18055     5393.824    78.604216    24.926436    16.320692 
 5195200    221.80436   -492.99757    181563.75   -14739.103     912.3962   -15651.499   -1111.7496    5394.8315    78.601676    24.924057    16.325575 
 5195400    229.55502   -235.00535    181563.75   -14715.261    944.27868   -15659.539   -187.55202    5388.6262    78.602092    24.923558    16.321096 
 5195600    226.62433   -246.79488    181563.75   -14714.176    932.22323   -15646.399   -231.51453    5389.4454      78.6012    24.920544    16.325741 
 5195800    220.88155   -457.54928    181563.75   -14719.392    908.60021   -15627.992   -981.47024    5394.5868    78.601957    24.920205    16.324075 
 5196000     229.2449   -285.11724    181563.75    -14674.89    943.00299   -15617.893    -298.4309    5391.2721    78.601902     24.91881    16.322995 
 5196200    228.47214   -222.67019    181563.75   -14700.906    939.82425    -15640.73    -156.3399    5389.3624    78.602457     24.91897    16.325648 
 5196400    233.27907   -401.82505    181563.75   -14658.571    959.59764   -15618.169   -805.97974    5394.1102    78.603971    24.919888    16.320236 
 5196600    222.13651   -497.36376    181563.75   -14745.823     913.7625   -15659.585   -1167.2149     5395.773    78.603561      24.9191    16.320907 
 5196800    221.34008   -260.96578    181563.75   -14723.899    910.48638   -15634.385   -330.16475    5390.0957    78.603973    24.919252     16.32384 
 5197000    224.65227   -304.02338    181563.75   -14693.397    924.11114   -15617.508   -420.96184    5388.7957    78.605003    24.918937     16.31627 
 5197200     229.2586   -484.97564    181563.75   -14711.264    943.05936   -15654.324   -1069.4799    5395.8381    78.604851    24.917595    16.320148 
 5197400    234.43819   -381.55146    181563.75   -14649.519    964.36568   -15613.885   -707.36946    5393.1787    78.604763    24.916669    16.318227 
 5197600     225.4817     -134.618    181563.75   -14686.006    927.52302   -15613.529    148.75091    5387.9906    78.605443    24.915226    16.319003 
 5197800    225.47806   -388.64977    181563.75   -14685.737    927.50804   -15613.245   -720.34488    5394.5345    78.605501    24.915058     16.32221 
 5198000    231.72842   -455.09436    181563.75   -14659.785    953.21899   -15613.004   -1044.4389    5392.8688    78.604434    24.916111    16.318971 
 5198200    228.81835   -234.16374    181563.75   -14704.832    941.24838   -15646.081   -206.03139    5386.9266     78.60381     24.91621    16.321632 
 5198400    219.81418   -202.66035    181563.75    -14721.26    904.20957    -15625.47   -80.239012    5388.8079    78.604648    24.918074    16.321432 
 5198600    229.61816    -503.2824    181563.75   -14704.592     944.5384    -15649.13   -1135.3056    5395.3933    78.605224    24.917503    16.316916 
 5198800    221.53854    -369.7092    181563.75   -14754.583    911.30275   -15665.886   -727.58628    5389.0634    78.605059     24.91711     16.32016 
 5199000    230.28351     -159.952    181563.75   -14719.914    947.27531    -15667.19    61.816401    5386.7611    78.605843    24.917098    16.322407 
 5199200    227.73203    -350.2986    181563.75   -14712.342    936.77976   -15649.122   -585.42757    5392.3045    78.606004    24.918236    16.322073 
 5199400    223.57863   -529.77138    181563.75   -14748.382    919.69467   -15668.076   -1241.2553     5395.319    78.606454    24.919072    16.320365 
 5199600    223.26818   -280.36873    181563.75    -14750.84    918.41765   -15669.258   -403.57838    5387.1024    78.606539    24.918693    16.319241 
 5199800    226.00675   -314.12025    181563.75   -14700.748    929.68282    -15630.43   -510.35684    5389.7021     78.60604     24.91855    16.312629 
 5200000    226.19729    -441.8679    181563.75   -14700.325     930.4666   -15630.792   -937.31077     5392.674    78.605408    24.918746    16.315189 
Loop time of 7706.29 on 100 procs for 5200000 steps with 9253 atoms

Performance: 583.004 ns/day, 0.041 hours/ns, 674.773 timesteps/s
97.7% CPU use with 100 MPI tasks x no OpenMP threads

MPI task timing breakdown:
Section |  min time  |  avg time  |  max time  |%varavg| %total
---------------------------------------------------------------
Pair    | 0.5123     | 2102       | 6421.9     |5072.9 | 27.28
Neigh   | 4.2639     | 143.92     | 336.96     | 973.4 |  1.87
Comm    | 111.52     | 1528.9     | 5544.7     |4014.2 | 19.84
Output  | 85.275     | 85.39      | 87.873     |   2.7 |  1.11
Modify  | 148.46     | 3775.7     | 7443.5     |5107.3 | 48.99
Other   |            | 70.41      |            |       |  0.91

Nlocal:    92.53 ave 189 max 0 min
Histogram: 30 0 10 10 0 0 0 4 35 11
Nghost:    794.07 ave 1090 max 579 min
Histogram: 24 6 0 23 15 2 2 16 3 9
Neighs:    0 ave 0 max 0 min
Histogram: 100 0 0 0 0 0 0 0 0 0
FullNghs:  9948.5 ave 23030 max 0 min
Histogram: 35 15 0 0 0 0 3 21 21 5

Total # of neighbors = 994850
Ave neighs/atom = 107.516
Neighbor list builds = 516560
Dangerous builds = 0
write_data 		${DIR}/data.${NAME}_run
write_data 		run_26/data.${NAME}_run
write_data 		run_26/data.ibeam_cooling_26_run
Total wall time: 2:08:42
