LAMMPS data file via write_data, version 29 Oct 2020, timestep = 50668

3981 atoms
1 atom types

0.19542624152705912 69.80457375847371 xlo xhi
0.19542624152705912 69.80457375847371 ylo yhi
0.08179984109652594 29.21820015890362 zlo zhi

Masses

1 18.015

Atoms # atomic

124 1 1.27832390877275 4.125002312030657 28.74058422410661 0 0 -1
474 1 0.9820334902718558 6.190691657465134 9.385719163493118 0 0 0
2587 1 5.338762977474859 2.9502256174208954 0.5648077821767503 1 0 0
2579 1 34.89944698370756 8.890416499588358 8.227539647254806 0 0 0
1327 1 15.480054663427985 2.04546266611645 0.671042063362545 0 1 0
3970 1 24.811797519995054 0.35098062187916296 0.19906366411941925 0 1 0
40 1 21.415168811061022 3.1988578613679284 1.1777589103087103 0 0 1
3369 1 19.282982318352513 1.633977955913984 1.477812908172296 0 1 0
3904 1 27.587899491207185 3.325715478283296 1.727551353064106 0 1 0
1756 1 26.1045883576921 1.4501716044640556 2.4024238449770374 0 1 1
851 1 0.210345704083372 10.762273961137929 6.5981544869228035 0 0 0
130 1 26.498108744791836 20.800547123021627 0.08683743304134323 0 0 0
2567 1 3.84214707820112 5.289119861377552 0.5984076451888826 1 0 0
299 1 3.985815609798326 6.104899585360777 3.1421421514590704 0 0 1
360 1 8.78329091965082 4.61315723004149 1.6322581494555304 0 0 0
2504 1 11.494609751884655 3.8758598988740047 1.2967670147918822 1 0 0
532 1 13.060144534688655 4.368402242320936 3.5595368804485203 0 0 0
46 1 16.11133373466386 4.749985445261216 28.914963707663865 0 0 -1
491 1 18.491912409495086 7.787906716534058 2.52834416636292 0 0 0
439 1 19.453796462048984 7.593340595283876 29.127196579143384 0 0 -1
92 1 23.06562253579181 6.445070167497409 2.6737921289999793 0 0 0
163 1 22.479282930654016 4.156531656859629 3.921902882634213 0 0 0
3745 1 30.78747147108435 2.96584309112212 2.606388636733196 0 1 1
1718 1 33.1178333379996 5.956285795828789 0.9493425214924162 0 1 1
3362 1 33.484821077735916 4.6014824912658945 3.383441469353803 0 1 1
404 1 3.1532586703434746 9.948780947107219 0.4700900125605261 0 0 0
1609 1 4.320842336070867 1.4516908116074816 3.519658052700674 0 1 0
312 1 8.51439758415551 7.320680445571543 1.4626311138062895 0 0 0
225 1 6.362260731274651 7.833733890261859 3.1858634065438873 0 0 1
86 1 10.742512094320633 9.445125885226556 0.5997331004304921 0 0 0
729 1 13.612333586076385 8.637837396872769 0.43865747830634116 0 0 1
110 1 16.953000923315184 10.492503174766195 2.7483626831936783 0 0 0
1529 1 21.16906355797521 7.94260097303409 4.1268541448283225 0 1 1
287 1 26.679240796061606 8.240569447723656 0.661333838674441 0 0 1
274 1 29.450854808232602 8.864191282208136 1.1210010693662067 0 0 0
2723 1 34.63864437482181 17.473335189031065 27.981096703378597 0 0 0
1942 1 28.185184110051487 1.1130122430253349 5.752435914903414 0 1 1
2252 1 6.041670867869972 11.371192707858683 0.3772992150701834 1 0 0
633 1 5.682719646772376 14.391247287393515 3.618272935164823 0 0 1
634 1 10.578286053400916 12.012046965489283 2.2344148102568875 0 0 0
353 1 13.83740196062294 11.874605064088662 0.23962553402776693 0 0 1
388 1 13.442287089657103 12.978778529451802 2.935159391320587 0 0 0
2617 1 16.691689008289217 11.231735934188865 29.04990972465194 1 0 -1
2573 1 18.831856932867368 12.314296702194447 3.4641740735948376 0 0 0
318 1 23.448073298937423 11.781539556046814 3.0628341494566906 0 0 0
3937 1 25.269509584440293 10.598428837579934 1.1977942740166971 0 1 1
98 1 26.607629576240146 12.33077380607829 28.604222031730277 0 0 -1
236 1 26.496282232191955 11.44493949354427 4.096119493439908 0 0 1
632 1 33.451827098770586 11.552454841044613 28.60175054617168 0 0 -1
859 1 3.9282525025722195 14.899307480593707 0.9474066270200818 0 0 0
272 1 4.945300439665482 16.974116970668224 28.057216372171563 0 0 -1
2559 1 8.683700753967988 13.574926685633063 4.415372631342449 1 0 1
2157 1 6.158331388704095 16.960791779645202 1.5835997339565664 1 0 0
284 1 11.492887234877735 17.15456801361641 2.354454361023035 0 0 1
54 1 15.017018586780695 15.030698795510103 1.7694618382262084 0 0 0
450 1 17.678986662692807 14.916901135830914 2.952541839032598 0 0 0
314 1 23.062044089235755 14.546810573858718 1.6564711769327731 0 0 1
64 1 20.714053625726972 14.642116891860782 29.07239859021088 0 0 0
1872 1 24.698460807560092 14.160206663130182 28.375266179189467 0 1 0
336 1 25.675169611154516 16.89411400783855 28.148609961322688 0 0 -1
373 1 29.1911664324925 15.420004611231697 1.2003463286964242 0 0 0
213 1 32.151686231146435 15.689056477946878 2.050614972348573 0 0 1
370 1 1.04362958530358 7.843079624443383 25.481724324471177 0 0 -1
420 1 5.428902681921169 19.541912531873262 1.623851843296711 0 0 1
917 1 9.941531050309338 19.61052705133502 1.5357699659843587 0 0 1
1173 1 13.833115012944038 19.47452456005044 29.023913992886865 0 0 -1
2361 1 21.6445153302914 18.83943474868371 28.406184403533835 0 0 -1
457 1 24.32587888849212 18.91685741806399 0.6941142815164247 0 0 0
1523 1 26.856930308813176 17.18616956245316 1.4644710673545576 0 1 0
2452 1 30.751452895858307 17.32645989842609 3.9702305957065973 0 0 1
2415 1 31.065837621170026 20.153763937943175 4.413829676658006 0 0 1
1774 1 21.845195786625382 0.9295294209833417 17.064147721644183 0 1 0
81 1 0.33176598554437653 12.519400561981781 16.26722794372558 0 0 -1
3208 1 0.3640477815977724 17.61238193530995 7.663930308241257 1 0 1
656 1 7.2710973331452 17.870844436403793 26.98856677459735 0 0 -1
430 1 10.980774616830717 0.2138267717976346 26.87753363073604 0 0 -1
187 1 10.954241458804926 21.687523678669336 3.3053431345038824 0 0 1
441 1 25.092308923581275 0.8505388850027856 17.209477003161496 0 0 0
427 1 17.672150566943653 19.542833818412845 0.1913941173891358 0 0 1
2866 1 3.0947330995886637 20.1602740358163 14.063271215725642 1 0 0
2498 1 22.85448712799797 23.215187256343597 27.51921073205977 0 0 -1
613 1 25.33388760686498 22.713391418542948 5.5378389307230576 0 0 1
524 1 27.920036551540104 19.66809490665481 2.3171517027902104 0 0 0
636 1 30.519573905371637 20.01240152916975 1.6334896628369733 0 0 1
349 1 2.2156575188728507 5.595049444522465 26.135410160443865 0 0 0
2137 1 1.9918869501891834 5.779137368929987 5.540187928178932 1 0 0
578 1 6.850629584976603 2.945703073378721 3.146467873771539 0 0 0
1652 1 9.411485563349164 2.5833108208885647 5.590129293623904 0 1 0
2025 1 8.737132937963638 23.00749228731878 4.989927855343725 1 0 0
205 1 11.206413272209941 23.188053098813036 21.312391676273656 0 0 0
1023 1 7.954944966671312 23.00739028912999 16.782049897033577 0 0 0
2322 1 17.269381836335512 1.3860658067940719 5.24811181791591 1 0 1
288 1 18.4269767572626 3.3817360980225564 3.6768091629788113 0 0 0
2239 1 34.73212759742501 16.526732233394252 11.358526624865581 0 0 0
334 1 24.06969406533599 1.9078125634637786 4.5099983695521555 0 0 0
685 1 4.48639477171646 0.7099853985689665 24.748022269879343 0 0 -1
1684 1 30.509494174714423 2.687838524365804 5.585670481576881 0 1 1
2310 1 32.66081712273747 1.6452538432077188 6.981487682485241 0 0 0
1337 1 10.902891275882723 0.8831606158470873 22.70021707791766 0 1 -1
2065 1 5.37076247078224 4.426518054447359 5.215200582377873 1 0 0
2652 1 9.154793912271817 5.157695358716296 4.237519044597306 1 0 0
568 1 13.259365298462452 2.242973443713951 5.263861225649822 0 0 0
577 1 11.446128681325543 6.019586841160098 4.930747780168099 0 0 0
658 1 15.06463569324706 6.292806433332513 4.37610456815882 0 0 0
2583 1 16.26247646834922 6.041304456460827 6.663938852784011 0 0 0
1540 1 16.963915258187395 5.533779399431601 2.478919657833796 0 1 0
1898 1 19.0894680243735 5.6189556953673545 7.1889014314351805 0 1 0
1683 1 20.297495805022702 4.138341238913112 5.458035297776769 0 1 0
1734 1 24.41371353728371 6.724065115747194 6.733852542398739 0 1 0
3891 1 27.777156429953727 5.524394252396877 3.6902847966814702 0 1 0
247 1 30.297486183657448 4.248676975660035 7.8629332262508695 0 0 1
881 1 4.539040719259637 21.714052409538276 5.607715928439497 0 0 0
2112 1 2.8211257509731507 8.637924005304194 2.895905552297104 1 0 1
511 1 2.8224822065306103 10.052153232514858 5.593033096994313 0 0 0
2077 1 9.485972074328272 9.608429501121188 3.579502045487852 1 0 0
516 1 11.745091638614843 8.90953887343094 4.990237540826239 0 0 0
1002 1 14.087060947306247 8.656144559971265 3.274081158595914 0 0 0
371 1 14.875814234908995 11.310932414118266 4.348184123139288 0 0 1
630 1 20.208701218027098 8.080749222229993 6.768338299074898 0 0 0
705 1 23.60184111765944 8.999448399656611 5.055416719222308 0 0 0
2362 1 25.82429302089825 7.654722056580085 3.4140050804771613 1 0 0
1817 1 30.76178685636345 5.714508593818371 3.6171083907698875 0 1 1
3499 1 30.623632127383676 8.784582404705578 3.625592534805075 0 1 0
556 1 13.507833171233878 22.05047765720676 16.96374107735795 0 0 -1
59 1 5.625548357763352 10.72473639261909 3.486609802907154 0 0 1
731 1 7.675808032723852 11.044978154684676 5.028996102956583 0 0 0
697 1 3.719582165104944 15.529127903410506 5.62097985704041 0 0 1
746 1 12.498531444584238 14.39226773207318 5.363222754265278 0 0 1
379 1 18.775602613646495 9.986078323920426 7.5850014795066905 0 0 0
359 1 20.879203434158917 10.411374005751457 2.3915407637074413 0 0 1
1368 1 22.184396157639608 10.606982046454274 8.012888748627358 0 1 0
1380 1 23.67809042225339 11.704319348496732 5.94539291950157 0 1 1
1977 1 26.18190996533139 12.521235242052855 7.326470726664841 0 0 1
36 1 28.041951651787414 9.0183825962387 4.724790464945216 0 0 0
1226 1 33.52895170250799 11.643571795077179 6.545559890376202 0 1 0
2647 1 31.172827863448205 12.800313336318432 2.3756506064268277 0 0 1
2232 1 22.934993820005076 0.258950501003182 11.609217951027386 1 0 0
330 1 16.2713786394831 21.964181834987492 16.23270750775061 0 0 0
756 1 1.3267826149978792 14.74378760483505 1.292795484283818 0 0 0
508 1 10.512670433976801 15.870269023036407 4.536668740373537 0 0 0
345 1 14.03311981188106 16.5838769833128 5.486027327174948 0 0 0
576 1 16.833135186279165 15.636475252772819 5.4580644639564975 0 0 0
2351 1 20.75487100932783 15.08358816331728 3.2634392176853475 0 0 0
19 1 18.91744452855489 12.560107964350241 6.482930027204686 0 0 0
7 1 24.701711923614127 14.86058609194473 6.2185112091573505 0 0 1
725 1 28.568954414189637 13.39121370783395 3.4749180213492434 0 0 0
2027 1 30.937390862222053 11.577314481265965 4.769277209508825 0 0 1
1095 1 2.678217659045388 22.834711324278587 2.7689279240828104 0 0 0
1118 1 3.3203522224784194 20.308323836542318 3.2999268726260924 0 0 1
2121 1 5.233861539636248 17.77908792011017 6.799134056298948 1 0 1
44 1 7.597434416362648 21.09923299074084 2.6083244578065945 0 0 1
767 1 7.755250000175603 18.4798661591967 5.302042527108503 0 0 0
1125 1 9.390348066949848 17.057914821428383 6.892531532850779 0 0 0
571 1 14.65660746560323 20.06768354016749 2.4324754881539774 0 0 0
66 1 14.093672547704362 17.48528365308163 2.9433423360996027 0 0 0
852 1 20.086964856598758 17.4057877646331 0.8719668532247535 0 0 0
165 1 20.77413452374085 17.62690143047903 3.4640988616322086 0 0 0
397 1 25.015730718592522 16.011355692741986 3.3888843686539487 0 0 0
394 1 23.524390546329894 18.395103301967858 3.468278227400994 0 0 0
2669 1 28.187263911341443 16.092691854398367 4.343763294209955 0 0 0
2531 1 29.233225071614108 20.704725490813185 6.1843804365415505 0 0 0
9 1 23.062975929706987 22.315487461451873 7.206479872052484 0 0 0
270 1 32.85293517530898 16.047711715715394 5.667251319594582 0 0 0
1643 1 29.847940843231523 2.666520329321397 28.98832739482039 0 1 -1
2530 1 2.905123705418488 18.75226645220836 8.060558168089965 1 0 1
2693 1 1.8614193360508318 3.6309832302085177 3.402485114644586 1 0 1
1087 1 6.429890098632061 22.16223804425392 0.1501561718542877 0 0 0
38 1 13.271695704505074 21.455770193736594 4.4030168479475815 0 0 1
226 1 17.742065228290063 20.89085850429538 2.707084198027774 0 0 0
217 1 21.620131494636126 21.355176067286827 3.9449852605160656 0 0 0
159 1 19.141978681265382 19.331297557838898 4.633691166663805 0 0 0
358 1 26.91405161283596 20.44909789237067 4.664546581346012 0 0 0
2635 1 1.0584715615400344 1.5951674957219117 28.204073602099268 1 0 0
6 1 7.255158863197997 1.313211011838798 25.0822654819611 0 0 0
1389 1 6.25266268354837 1.8504381950020525 8.799860003590556 0 1 1
617 1 34.03865416101528 12.823917986894303 17.458405526001656 0 0 0
45 1 11.61683570681293 2.68162864960118 7.371330895285238 0 0 0
712 1 15.39045135656063 3.2083159338996805 6.570475181698463 0 0 0
253 1 21.48478784822784 1.1254794491976177 9.280307621454067 0 0 0
197 1 25.68867015590486 2.4603917264719657 9.707976369316269 0 0 1
452 1 20.009502145885797 1.5875386910865237 6.329343064271927 0 0 0
3300 1 25.790964563530235 2.6235716293348745 6.56475276747393 0 1 0
3618 1 26.70825183725164 5.059014684971775 6.032071267583449 0 1 0
443 1 18.31795892368644 21.039440210430275 26.970584968707886 0 0 -1
2381 1 2.4335357235698867 3.9475202146151833 7.722313152483981 1 0 0
668 1 7.104527912706752 1.1627575775944679 12.565680771159174 0 0 -1
1571 1 6.150811379614373 6.53647316917343 6.979411632387526 0 1 1
2373 1 7.49008414453844 3.902694200967062 7.185601547573046 1 0 0
638 1 8.69915447524937 4.912702513879833 9.517068566066278 0 0 0
471 1 12.016073976359273 5.46135690585691 7.573024370286913 0 0 0
1956 1 8.616375643399746 1.2448583963286661 17.003498453817613 0 1 0
112 1 22.25800464662828 3.62230362141281 9.604179276337296 0 0 0
250 1 23.27694677256771 4.2098745902866295 7.026597756538563 0 0 1
2728 1 27.808372301340903 5.547106561640178 8.476880122843607 0 0 1
273 1 30.28718787006432 4.242741695893773 10.821027975158676 0 0 0
2023 1 32.65863367930139 5.630711627558 9.382728917567498 0 0 0
61 1 3.740541435082909 7.639042712935843 6.551106669172178 0 0 0
74 1 7.979442732612437 7.399239660005253 5.440029987674672 0 0 0
2393 1 9.028527456013697 9.262657925896661 7.338978309094173 1 0 0
67 1 14.62788773159502 6.309595793769809 8.914276181392049 0 0 1
2488 1 12.96415349222796 8.382067843418046 10.262759519160797 1 0 0
726 1 20.38394403427196 5.422821143963203 9.765620134430279 0 0 0
2406 1 16.282751161249237 8.867540846128085 8.142861284548419 0 0 1
644 1 18.806240009178424 9.782082126981301 10.33056788977033 0 0 -1
341 1 22.32247841172474 7.9284138805085025 8.577576074338047 0 0 0
337 1 25.72796335871806 7.4883025282656925 8.809839140144526 0 0 0
209 1 28.779271774043593 7.903645459838481 7.148393543750179 0 0 1
483 1 31.17457366927675 6.394147325216441 6.274934440356003 0 0 1
2720 1 0.814470035926533 12.758645617186371 8.683658528707818 1 0 1
688 1 3.442693991004271 7.852360539455239 9.35364334822849 0 0 0
2489 1 4.720016375646001 10.997228637924342 7.275950135309413 1 0 0
185 1 11.60304137667903 12.523835017039806 7.382568222196352 0 0 0
1659 1 12.297389659402805 9.759736476714291 7.5888997634276585 0 1 -1
540 1 14.72484148533896 10.915952167550172 7.210875794936332 0 0 0
348 1 16.449384167884485 13.451015548755974 7.3230188188952905 0 0 0
669 1 21.510451080605634 13.691303864567091 5.767482414090128 0 0 0
670 1 24.233646029804152 10.688360185699622 9.851234691456446 0 0 1
550 1 26.782872180909855 10.324283500723336 8.595145411420756 0 0 0
2544 1 27.40935086388325 11.733187013653428 11.248198521527332 0 0 1
1475 1 26.18944054448049 1.332539822106637 14.260914102173437 0 1 0
2284 1 33.30256827610844 9.898922338159585 3.966110729756895 0 0 0
343 1 1.255011849036043 14.443702848207623 4.012315012444407 0 0 1
342 1 0.44426668036893013 7.384284270136093 2.994261274966841 0 0 0
1161 1 2.257717376361698 16.55925324153966 10.519254925954694 0 0 0
661 1 3.5464088174586528 13.977720913689213 7.819415812308686 0 0 0
698 1 4.673364529658278 14.823052722521052 10.479622645143653 0 0 1
166 1 6.256663716786109 16.59096006500206 9.020899509799374 0 0 0
325 1 13.753297028310621 13.730455483701464 8.952883253276005 0 0 0
321 1 12.830073055779728 16.487690050338912 9.55810440238519 0 0 1
687 1 21.95935602801611 15.696006498578994 7.821526149179489 0 0 0
476 1 26.332756130771518 15.806912217429673 8.580308935557179 0 0 1
189 1 28.504271563067302 13.922020308201876 12.285460513555702 0 0 1
526 1 28.815675806280677 13.008017831617588 6.62126948672068 0 0 0
449 1 31.23234534038374 15.119388818277708 8.38554257477311 0 0 0
1934 1 34.000358699287005 15.740895527814667 8.939427682189582 0 1 0
221 1 20.740138070968896 21.491683566843935 28.554778388635423 0 0 -1
56 1 5.695613939618817 16.237572534634555 12.97855482994797 0 0 0
286 1 3.1539265424673073 19.34402576129449 10.693946183390512 0 0 0
592 1 11.26880411870374 18.571342466934762 8.474219972030617 0 0 0
655 1 15.46317646804983 19.124531340589005 8.092244768340718 0 0 1
182 1 17.69558888668025 17.928474551377253 6.807863557556851 0 0 0
566 1 19.70984158385155 17.198950048060013 8.667259314375372 0 0 0
814 1 23.230761484070374 17.861670018006418 6.661613281450486 0 0 0
1710 1 28.75001913255585 15.809605643728606 7.056274982947785 0 1 0
666 1 26.232520274921775 17.949287734233447 5.691954203483492 0 0 0
2448 1 30.376432831094327 18.569125383677996 7.787400886859959 0 0 0
47 1 3.2090293338759355 21.43847143904562 7.825889704717154 0 0 0
484 1 7.219805869655899 21.13456859872077 5.8263856009748825 0 0 0
909 1 7.369815266168155 22.039348230775566 8.591468262498626 0 0 0
786 1 11.977804558298812 21.751028178795547 8.098568454016092 0 0 0
78 1 13.145270087294673 19.309583537196403 6.475789707753091 0 0 0
179 1 16.41899726758136 21.576603665127546 8.843712957975022 0 0 0
594 1 0.8499015853962096 1.4870487501502059 25.078264512486662 0 0 -1
819 1 20.21434193147849 21.615486917730355 6.347401207283416 0 0 0
3767 1 33.06347419796045 18.373685525362095 8.197514605838126 0 1 0
1976 1 2.921643774925324 1.4228545610804495 11.597600154160274 1 0 0
782 1 4.667855863138815 3.6628296128094884 15.190839554655197 0 0 0
2516 1 8.737134181832593 1.9426935761510395 10.233465586298461 1 0 0
328 1 9.411523232693318 3.6415207082353347 13.084027616654854 0 0 0
120 1 11.48117010638277 2.170319419490877 11.85456273527435 0 0 0
72 1 12.589196275817345 0.3886369753912332 9.682827406742694 0 0 0
331 1 17.113313611999867 0.21389511682659418 9.339183797915897 0 0 -1
1442 1 34.62612768404944 8.048801190757246 1.8611789911193788 0 1 1
280 1 19.025012829049988 1.6637768943279845 10.696793221357229 0 0 0
840 1 22.74370399980792 17.96130927636365 25.951288044834055 0 0 0
3024 1 13.95273277019616 22.76119216160061 9.86265031244907 1 0 1
808 1 13.161767377847784 22.59600351645616 12.418245718944151 0 0 1
2145 1 1.2483777862557321 9.147096426551313 22.986078963263125 1 0 0
2460 1 0.5293267152336536 5.206357157963584 12.017580502757509 1 0 0
1460 1 3.237949823047843 4.371606367941094 12.271988105684239 0 1 0
1856 1 5.820271579369809 6.066859105857461 9.981372905115332 0 1 0
202 1 4.4722573782321975 3.7994064414249133 9.75997353825325 0 0 0
2692 1 6.8569872981065805 7.676764853883748 12.441567163098513 1 0 0
315 1 9.25830063348497 6.102778325990363 11.99598215198718 0 0 0
2292 1 10.469109479599732 7.344597624951975 9.063928680786278 1 0 1
1708 1 15.041517805176388 2.193855004824157 9.004759995704985 0 1 0
2528 1 15.66146162029342 4.301168390592854 10.545579694516334 1 0 -1
722 1 15.890683325317356 8.236547179004543 11.051101525442062 0 0 0
1611 1 22.397043721465153 6.082003845635806 12.62770681105567 0 1 0
264 1 20.641756911700945 3.32019298114801 14.571824134944396 0 0 0
15 1 23.709223246781338 3.467527078762741 11.854205323298128 0 0 -1
1321 1 27.953902062532844 2.7641999824234182 11.219162900005433 0 1 0
1548 1 26.177681881375417 4.445505621864293 12.625650472808372 0 1 1
1396 1 32.159725715452126 2.5696843564554834 12.123996588612059 0 1 1
1285 1 28.890211220097733 2.514674641060746 14.466121636895007 0 1 0
1310 1 33.77968087107958 1.955508705062493 10.098196252885847 0 1 0
1488 1 3.0312148420685014 10.809013740617528 9.613668781223897 0 1 0
115 1 15.444474298066533 21.35427618803872 27.566109226515124 0 0 0
2371 1 6.506849247919816 9.266257836503831 8.472647194449772 1 0 0
575 1 9.451369055832144 11.726455758286892 11.130931580217363 0 0 0
269 1 12.208779603986775 10.773873983622508 11.739183273923574 0 0 0
153 1 18.527708030546812 4.440910785011315 11.622067107959941 0 0 0
480 1 23.913454632614755 8.301059559575602 11.50127648633723 0 0 1
408 1 26.179032044570313 8.466022439553704 13.91537785225737 0 0 0
161 1 26.673577112467463 6.756034223010728 11.527270976522013 0 0 0
2582 1 29.27473764872391 9.437083103633888 12.069019476575328 0 0 0
2030 1 29.44477538392791 6.722285963724388 11.92325236770153 0 0 0
10 1 31.562528896265608 8.073673747950068 15.48287532745878 0 0 0
1950 1 29.59478606599653 9.816735389991717 9.132081166875793 0 1 0
2410 1 3.716033834004228 12.349769639019003 11.684640035659994 1 0 0
198 1 8.857613410541932 12.143581374106908 8.244188114232925 0 0 1
319 1 16.631234547570074 11.06287750712741 11.962435364770329 0 0 0
675 1 14.37556153981373 12.804053702914356 11.407383609835113 0 0 0
948 1 15.561326630673836 7.429976002651603 13.897649471048348 0 0 0
1 1 20.32487562536019 12.383162968064877 9.682491571496756 0 0 0
200 1 20.72078098897701 7.972586608609686 10.929520403753472 0 0 0
1783 1 22.968032044760086 10.939118227264718 12.721095119979745 0 1 1
2045 1 25.580065715044235 11.061961880357554 13.521743817318608 0 0 0
282 1 31.37166048876864 11.550166955572783 14.965715841849832 0 0 0
1973 1 32.037862144311916 10.276625209744155 12.37078800261932 0 0 0
1093 1 12.059623744023757 23.299701102099323 1.1474263910104305 0 0 1
2628 1 1.523426277284914 12.777581656749565 13.390695068352636 1 0 0
118 1 6.487648650598353 13.622541848936223 6.612162950270372 0 0 0
316 1 9.28578970046 14.406414526428382 11.080773878851598 0 0 0
228 1 11.701043895236841 15.879173443888918 12.053985712888672 0 0 0
170 1 17.515848148950308 15.944465844566178 10.240832883726917 0 0 0
730 1 17.67874785759303 13.191607286151614 10.100314643711263 0 0 0
2110 1 21.785791732548596 13.13268114814017 11.834838603532909 0 0 0
496 1 22.99084683958083 15.212892726114367 10.559992104293567 0 0 0
1972 1 25.146829865016077 13.419144062568215 9.898522772201334 0 0 0
101 1 27.082913571023443 16.169442534968223 12.804813533798225 0 0 0
2633 1 31.207464771851768 12.25309999747858 8.1466291795245 0 0 0
2750 1 30.698085993663625 15.276834850120418 11.15167024574251 0 0 0
303 1 24.57364839924297 22.819057712246924 0.8568180617489567 0 0 0
2333 1 32.7913623450705 12.115465367284822 10.614737147719943 0 0 1
2554 1 3.748205522513578 18.314963703815305 16.088473297203343 1 0 0
224 1 34.244826830939786 4.867418524760028 17.323648148064876 0 0 0
2797 1 6.530507768611318 18.436083243976327 11.32656800454607 1 0 -1
512 1 8.238735913939779 14.999925944930409 8.469064226632579 0 0 0
383 1 9.077139315885251 19.10770927507623 10.353069363811926 0 0 0
572 1 10.4139888907074 18.350431265099093 12.970734940910537 0 0 0
1900 1 15.450198231406231 17.56475086700735 10.158138765085793 0 1 0
664 1 22.050291493914607 17.68306923161779 11.814674338425789 0 0 0
723 1 25.45026358623758 18.59804054166375 8.600380053175497 0 0 0
33 1 27.582329366855888 18.23680478404834 10.75050510119262 0 0 0
2015 1 30.070474258434416 17.90033938865717 10.70484865506441 0 0 0
3826 1 31.762189328864665 19.202488926037518 12.361586405337277 0 1 0
2687 1 33.84505906003785 19.591899341442502 10.765258373473943 0 0 -1
657 1 21.682397028925198 0.7879435170399154 26.947089548042044 0 0 0
599 1 8.471409741035071 0.3977480137507935 27.564218023305 0 0 0
1335 1 27.55289098486976 1.1713476328019432 25.967482216641393 0 1 0
793 1 5.514609635290058 21.050414054945332 10.54315240410061 0 0 0
2184 1 5.557637986855307 21.767278886702634 13.349426941263015 1 0 0
549 1 9.855647171419896 21.684488319008526 10.178773623973571 0 0 0
2739 1 3.7019950188276023 22.262865652651502 19.69148431687803 1 0 0
279 1 12.7433112835818 20.011067487467443 12.838909787940354 0 0 0
610 1 4.179184719870106 2.1057476692394834 6.61423134520708 0 0 1
20 1 15.185414395748959 18.795470005891097 12.56453772508786 0 0 0
2695 1 20.705533227333802 19.71948151054947 9.852120779789784 0 0 0
113 1 33.403878487845574 3.9303466223674417 14.224697065885964 0 0 0
1051 1 23.317240450371827 20.407492516676445 9.368524141580309 0 0 0
68 1 24.784760832912372 21.84385311114638 11.515007903443147 0 0 1
402 1 26.64240865371053 19.9500610389353 12.791954024480631 0 0 0
2308 1 2.2920043685388136 0.9379694735992989 14.389034214742907 1 0 -1
2368 1 2.450966565581419 4.300805914104725 16.953179251225713 1 0 0
405 1 7.317768233421357 2.7937424692615807 15.097357673841755 0 0 0
1637 1 13.83964099718819 3.5261236165112484 12.55073094631494 0 1 0
643 1 15.704177684534187 1.7204689497292736 13.845517263002037 0 0 0
3658 1 2.8725047941096076 0.36678432761201507 22.065257530180794 1 1 -1
1770 1 22.926227211596405 1.886484618442978 14.246732809710522 0 1 0
702 1 11.438023086566337 19.13397486481939 27.513068961692433 0 0 -1
1497 1 26.082700351269633 0.8499835560255755 19.786390469530453 0 1 0
2451 1 33.62445088871361 8.37738469718476 13.416764849290278 0 0 0
1420 1 34.41495210560519 2.1870181916479687 16.178412330563464 0 1 1
440 1 4.840409067596875 6.285055467732567 13.786927413206042 0 0 0
375 1 9.723327887639616 6.588880236126331 15.132896416161044 0 0 0
727 1 17.77838820812481 5.616430091580158 14.283218720773464 0 0 0
1894 1 19.647508470822082 6.7733937421098105 16.418285525575154 0 1 0
76 1 24.598420375138762 3.3552719215569873 16.82680687807552 0 0 -1
2660 1 23.76374405166342 7.263612627634248 15.255194502050188 1 0 0
1812 1 26.74274184283689 4.362291086396144 15.256767814203974 0 1 0
87 1 31.326045197379198 2.1683357143710236 16.577601693935346 0 0 0
3687 1 2.986902806304056 7.961555923544436 14.618058890089408 1 1 0
1957 1 4.610673268644962 10.079371605787248 15.244958868429304 1 0 -1
602 1 6.965740486407597 10.35247747960864 11.220174774251735 0 0 0
529 1 12.207398542994493 9.34825440085419 14.567794490813732 0 0 0
352 1 11.473280848173031 7.251643716134601 12.681792921931567 0 0 1
231 1 13.489270407151992 5.850859466954116 13.884136492872141 0 0 0
1788 1 19.337885619055033 8.525108876031519 14.031436301562326 0 1 0
1283 1 21.8052587042128 9.30050735283105 14.782851201632065 0 1 0
138 1 27.393842512708193 7.126864940098266 16.41401426846075 0 0 0
1501 1 31.08474588709316 5.356820965445999 14.239107172981512 0 1 0
177 1 32.057571477389246 6.799655867335712 17.828408798450575 0 0 0
820 1 1.8204751652506181 23.334928023127976 11.231639181916078 0 0 -1
1911 1 12.183619175442498 21.25821794402509 26.072533500352566 0 1 -1
673 1 0.7333379129588822 9.490600487176879 13.522290704096598 0 0 0
3890 1 0.7868854553014574 0.4140401906524077 6.937637029689376 1 1 0
2664 1 5.966764032220511 11.756840346579546 13.363604302562901 1 0 0
219 1 10.101332013976474 11.406399683503837 14.372307142003525 0 0 0
258 1 9.563869519449792 9.614357683012779 16.796136687998604 0 0 0
947 1 12.18955726423963 13.253985109111648 15.572218418381222 0 0 0
1808 1 14.901222500648656 13.306130513746213 16.831699651252155 0 1 -1
436 1 15.143607508729145 9.402815450338968 15.817654571557235 0 0 -1
462 1 16.7957146415684 14.606594031373774 14.90300752064338 0 0 0
1715 1 22.92272459352794 13.9235754435433 16.30390462156121 0 1 0
8 1 29.06943429754407 9.492867395785735 14.965352912140734 0 0 0
431 1 25.158113519394156 12.304177790614608 15.866398917695461 0 0 0
1206 1 33.059196617165 14.561162779099757 12.543344951949594 0 1 0
176 1 3.9503114224519233 15.722857322838374 15.000386756593702 0 0 0
29 1 7.5968276426787416 12.734653702431578 14.81252431102896 0 0 0
586 1 7.9453985637100715 14.948372268866962 13.50606406535248 0 0 0
1196 1 9.223844785053597 16.88180115481306 14.892735735863162 0 0 0
451 1 10.612309516207015 15.141439655723882 16.662494904891847 0 0 0
503 1 14.658164325949596 16.801487443490785 14.596574230325503 0 0 0
151 1 13.41853420088759 14.453675665145559 13.438475378661975 0 0 0
60 1 20.58209116206957 16.1542567336029 13.445170543176701 0 0 0
429 1 21.119209314794297 13.662105144937575 14.305474070004243 0 0 0
368 1 24.955157018553965 15.441653773418642 14.556937716538213 0 0 0
398 1 28.945694112160925 16.531013423414752 15.318741554140566 0 0 0
2307 1 29.123410781551442 13.33994428555674 14.794201602194024 0 0 1
2382 1 31.324304108963265 15.629914458622629 14.493322623956248 0 0 0
2053 1 32.619451552578816 18.032482150016534 14.603972955972846 0 0 0
648 1 1.3868184485053645 15.509071125269333 12.971908613616678 0 0 0
2356 1 6.622124524015364 18.179856623833572 15.845626564795396 1 0 0
160 1 7.611376104141099 19.952617603626052 13.724078972251673 0 0 0
448 1 12.841726701685225 17.402217385903754 16.67740688867427 0 0 0
768 1 12.220180905432697 20.036772580632366 15.800815983217001 0 0 0
2165 1 17.855665273069867 16.29617843189824 13.097235060944003 0 0 0
1029 1 18.002546276900777 19.145484894667668 13.813491561445659 0 0 0
350 1 20.4291072984379 20.200736540813683 12.638066168084318 0 0 0
235 1 24.468424434438845 18.368694785726436 13.462407088171418 0 0 0
158 1 24.203840832199774 18.947135478178915 16.340220399101252 0 0 0
355 1 28.11595869021792 19.5326204460415 15.17623718565511 0 0 0
2741 1 30.5000105165766 20.557669032647706 14.549836263675534 0 0 0
2895 1 31.494863042664264 19.347400028761093 17.15433834758468 0 0 0
914 1 8.761668602367525 20.65683691851222 28.373194257284354 0 0 0
1966 1 7.245501989920543 20.407126659983284 17.82100775453969 1 0 -1
1160 1 4.4616397259223115 20.782664551841115 25.616381085301427 0 0 -1
873 1 9.867512120643553 21.60498469924795 14.979587848239111 0 0 0
801 1 24.845418234454133 22.674564229520556 20.272207804121184 0 0 -1
3619 1 33.978711375067874 1.3855137309733798 28.907925043855226 0 1 0
926 1 3.956424831022562 20.379059378980774 28.310693736885245 0 0 0
389 1 23.013362100043743 20.75106891235596 13.748958119098393 0 0 0
12 1 34.29846223379728 12.948158322060706 14.340262281248858 0 0 0
2594 1 5.9607361846370255 2.0702693109561867 18.42476221105604 1 0 0
2483 1 9.529766846862305 4.095916745029921 18.524133942018594 1 0 0
1938 1 13.086451125347585 2.5789863171349126 18.43070149179439 0 1 0
77 1 17.247414255016004 3.342539106369858 15.902619667524037 0 0 0