LAMMPS data file via write_data, version 29 Oct 2020, timestep = 2500000

3981 atoms
1 atom types

0.19542624152705912 69.80457375847371 xlo xhi
0.19542624152705912 69.80457375847371 ylo yhi
0.08179984109652594 29.21820015890362 zlo zhi

Masses

1 18.015

Atoms # atomic

3344 1 1.6261376701926011 0.7333681333728779 0.9531000083393556 1 0 1
551 1 4.023776660543514 1.6163200885476672 2.539321800343922 0 0 1
2606 1 8.883952769223052 3.3662855872016073 0.1341864046597583 1 0 -1
1642 1 11.211683895762615 3.2181445140021094 1.2537560509020762 0 1 -1
1433 1 11.343642007364247 0.8721849362643429 2.5894569660723494 0 2 0
3936 1 16.52588934684061 2.06189672085226 0.92023433345817 1 1 2
1839 1 18.57278984940312 0.9668119064315139 2.820812812761602 0 1 0
2458 1 10.813845301325932 0.6531187414332063 21.602092208275106 1 0 -2
1855 1 24.549233731846666 2.686041791623686 1.1537389545896373 0 1 1
1998 1 24.265974826314167 1.4356489727209598 3.830410046783181 0 0 0
425 1 29.02793197023986 3.4013166547305054 4.076183383817325 0 0 1
1947 1 14.609498157491144 0.2665564685815853 15.184217704742437 0 1 1
2122 1 4.407042740514859 4.187212428012393 1.6987377785621578 1 0 0
1219 1 2.848576773469179 6.38477735386749 2.459965612535739 0 1 1
3475 1 7.14794735143295 4.6215417324458725 2.1628487392397355 1 0 0
995 1 11.32806196694217 5.798733324588154 2.296021278856213 0 1 0
2350 1 19.88125971067115 4.534626683906734 2.0558091794272118 1 0 1
3049 1 19.250865951846677 7.337960765560984 2.1767568879188146 1 1 0
2100 1 24.560148655743053 5.960273122303326 3.3808324751064167 1 0 0
825 1 26.873596910301455 3.73288532855869 2.371837585178265 0 0 0
2441 1 32.28286855554123 3.386775357509564 1.1629185266436528 0 0 -1
2735 1 31.754517186111496 5.975952863680258 2.554493470881707 1 0 2
183 1 2.1651028114363045 9.132053088873645 1.840924253705583 1 -1 0
3506 1 5.34312332564553 8.77656867130542 1.9196647693037914 1 0 0
3669 1 9.32497607178049 8.054393861853246 1.665194309968493 1 1 1
1715 1 7.026465464344036 6.912426359067058 0.8208347808683896 0 1 1
2927 1 12.988772900468721 7.343959029969287 0.23794357661206578 1 0 1
3067 1 13.660335759477817 7.612015011114145 3.203767566226831 1 0 1
3607 1 16.532795803386474 8.153605256320422 2.564858158963795 0 1 1
1565 1 21.412190343358255 8.490529104046761 3.8685948052950314 0 0 1
3786 1 22.660734029056044 7.580968256261784 0.7081286181168649 1 0 -1
1308 1 27.410811872383103 6.545646820327238 2.395622863383802 0 0 0
2590 1 29.68397823853621 9.813031271048764 1.5773020548583163 1 0 3
2201 1 33.821972731246944 9.833882124112556 0.7422274192540302 0 0 1
864 1 31.770919357502393 8.121243959005316 0.7428249178017392 -1 1 1
2769 1 6.861175490390118 11.357122149170811 2.7113462013649166 1 0 0
1618 1 3.5433332974552836 11.586547065861206 2.836937393850291 0 1 2
2173 1 9.058150169297724 10.623987391463329 0.5436417814312201 1 0 0
259 1 11.776870125078904 10.956383121670317 1.4894195863591504 0 0 2
3019 1 11.431686101180839 13.828338523786186 1.382916914551814 1 0 0
3508 1 14.24212328210712 12.911285163355661 2.3251284794418083 1 1 2
1985 1 16.261897368060303 10.813907655945563 1.23782026851131 1 0 0
610 1 19.20974792823986 10.32490677521257 1.2715396284919818 -1 0 0
499 1 21.441430222888332 12.191262325942022 0.22776702896512835 0 0 0
3141 1 26.339199670248586 11.347713628152356 2.621802069751224 1 0 -2
1051 1 29.905122915010818 12.976320148632162 0.6389960330578289 0 0 1
1904 1 2.458365076114051 13.935607282350107 2.2556759587403916 0 1 2
2719 1 6.303253933029476 14.378809520135993 2.374471590487028 1 0 0
1986 1 7.7619496100289425 15.93057316040425 0.21169490623780793 1 0 1
2074 1 18.494563175637392 15.264387673494507 2.2305004082822215 0 0 0
3485 1 26.613867679323434 15.694251295607057 2.7249131587586333 0 1 1
3377 1 28.08871809908082 14.941647159108255 0.4373444074051982 0 1 -1
2093 1 34.27972401015627 13.771288392979935 3.270388827542616 0 0 -1
1350 1 33.12703551119348 16.1658623963321 2.222831274619804 0 1 2
1918 1 6.651638872967829 18.242536804978073 1.6143146760434692 0 0 0
2878 1 3.945041287752831 18.098400453083975 2.288437517814415 1 0 -2
614 1 11.691425211295767 18.54398220397907 1.5521871732145316 0 0 0
3835 1 15.52880494331017 17.302531671537075 3.0606976386775435 1 1 -1
550 1 15.250250777861579 18.057641245002525 0.18592654501495837 0 0 1
857 1 18.372146006810063 17.80205476094421 0.5411117570632499 0 0 -1
1883 1 20.943407425006548 19.65068618453286 1.5097699397986215 0 1 1
2269 1 24.80261875811553 17.208892187133383 1.764849979488616 1 0 0
1396 1 22.864286747827418 18.29705666718005 3.2325526843601553 1 1 1
2620 1 26.74273363256221 19.008728316534054 0.996054627490065 1 -1 1
2771 1 29.211329307954944 17.5111873389407 0.9821866746850448 1 0 2
2167 1 0.5950429740870864 17.82123991453954 2.820429583702847 1 0 -2
231 1 7.038004251985526 22.458645740837063 0.8774637682975539 0 0 0
3034 1 6.931498085923612 20.70191512303125 3.511930742086133 1 0 -1
56 1 10.878438028117126 21.305696398016888 1.1910355676959903 0 0 1
2312 1 12.567620599085037 23.007516701136392 3.026537081406726 0 0 0
1151 1 15.014655700730072 23.08861613347061 1.3288105070156842 0 0 1
1734 1 16.4542177271831 22.51544330556661 3.6157041958571927 0 1 0
591 1 18.440700700017818 21.225042203635812 2.192037626086294 1 0 2
1702 1 27.61948911393599 1.1912560242151524 16.94774698093882 0 1 0
572 1 24.14967654985064 22.192854483648368 2.8934914170508765 0 0 -2
555 1 22.56636710207906 21.725003589870106 0.7002390307652793 0 0 0
2532 1 26.790466371825488 21.33174308606661 2.692906981269543 1 0 0
2115 1 2.491815712820425 3.106625869844665 6.245107267568635 0 0 1
1225 1 34.7477440745914 18.164227668006575 3.544995639570347 0 1 -2
658 1 4.781966557862323 1.9550389743308205 5.196745968626286 0 0 0
3293 1 6.166738826304226 4.309561824801746 4.941942307265476 1 1 -1
2159 1 8.650314632670524 3.1977295650116218 5.780028970465162 0 0 1
2049 1 9.001608439602359 0.6760138728828138 4.175945935090269 1 0 -2
1786 1 15.197636683749826 3.060329611444732 3.5009335853684957 0 0 0
1679 1 13.590692886463355 0.816195061658178 4.572976433502395 0 1 1
909 1 17.505774237260727 2.5893463460750454 4.881534935807985 0 0 1
2884 1 21.40868975864719 2.073453819740397 2.5637265904007087 1 0 1
1701 1 21.2577324285774 2.070400321367024 5.394300806322184 0 1 1
2512 1 25.734591222814633 3.6759514463999983 5.078528032869739 1 0 1
2781 1 28.649527623524158 3.297423001347261 6.907569688575077 0 0 1
3158 1 26.503212450590222 1.3456778345900846 7.135148781123015 1 1 -3
1987 1 30.845387800819143 1.4084282182696144 7.205562044364512 1 1 1
2664 1 33.36156363320994 2.09628277779106 3.6463002793203265 1 0 1
2988 1 5.768413548666304 7.316217393933785 4.510021347604854 1 0 0
2750 1 8.573930841625018 7.264441337160078 5.525803428966134 1 0 0
2320 1 10.552629455361224 5.321730245667024 4.899305096802878 1 0 1
3791 1 14.541544830198122 5.541634047853619 5.2290491275046165 1 1 1
347 1 12.537651843121619 5.408204309422003 7.046609235311132 1 0 1
2231 1 16.796940826368274 6.546211879931793 6.388667604629595 1 0 0
3526 1 18.837812505838553 5.060648989430215 4.816049653756179 1 1 2
504 1 25.83442735372921 5.767953511798654 6.778933254441111 0 1 0
3462 1 29.50780329943246 6.256742696394649 7.337561586426835 0 1 0
705 1 29.725731576238353 6.3309091805928945 4.481145404279866 0 0 0
3400 1 34.2245665026088 17.32308441172762 12.062684132995415 1 1 0
528 1 34.172951487916606 6.325778733549073 3.9502297443230443 0 0 2
820 1 12.623320156143807 0.9002509465927567 9.848408886859975 0 0 -2
1539 1 2.3574748232293783 9.053128959735924 6.391504993809086 1 1 0
269 1 3.0548399015203143 6.772134520507831 5.055549088807799 0 0 1
605 1 8.607714950637959 9.643856376419325 3.7697863806845997 0 0 1
768 1 7.594366653094302 12.296603072311528 5.436436478275343 0 0 0
2189 1 13.09635596569981 9.450488088434264 5.1793700779290255 1 0 1
806 1 17.05725955312039 9.120346834916626 4.908988210306829 0 1 2
2605 1 21.199321544071527 6.8275375689925495 6.447794900763173 0 0 1
1142 1 23.792108851666725 7.236291760390129 5.84102328897648 0 0 0
435 1 31.93124105045729 8.243427406684011 6.3489345631883936 0 0 -1
1562 1 29.67754232103473 9.80298837512798 5.997217528477083 0 1 1
3219 1 12.07266552380923 1.8785832925348138 15.93018182869719 1 0 -1
1022 1 3.962854288654078 11.024910868554189 5.353451224170369 0 0 1
1309 1 5.956021460437711 14.708436711721522 6.396757022354372 1 0 0
2651 1 10.973009374407116 10.97940134712215 4.47149334307224 1 -1 1
585 1 15.336515745538506 10.847662483756473 6.3795700430560265 0 0 0
791 1 15.336589454660059 13.087689196978888 4.660091402564564 0 0 0
3199 1 17.847484671688665 13.102382089205475 7.158793927178224 1 0 -1
3587 1 19.353469484333708 10.338723441679846 4.3491458312574895 1 1 0
3833 1 19.795702159398278 9.281083024672201 7.019607844953797 1 1 -1
61 1 24.275426843709372 8.963743077913 2.7997622261086477 0 0 0
458 1 22.345743484609663 11.546354648990686 3.186608774794041 0 0 -1
690 1 28.066502053929515 9.057836312895168 3.7805268117520234 0 0 1
3934 1 27.09965911570862 13.450652485043843 4.295657299654612 0 0 0
904 1 30.70697093172653 11.216859241516927 3.678134212070751 0 0 0
530 1 33.58967163963527 11.040126428163465 3.1280145511672037 0 0 -1
1252 1 31.896017910928265 13.176157908476075 5.958668413499287 0 1 1
2256 1 6.367087163498885 0.4358584162383543 8.338853658721943 0 0 0
1405 1 4.113232212251494 15.626667598861424 3.6766839528049458 1 0 2
1648 1 8.432563763746883 15.019602656807162 4.297053300176393 1 0 0
1900 1 11.148367108030975 13.788377318625693 3.995082792394215 0 1 1
3188 1 13.053063559241988 14.139745440849257 6.127516323289383 1 0 1
3950 1 17.173992246998377 15.25833475007472 4.730072341704803 1 1 0
2850 1 19.51553694502398 12.920066524109009 4.962708943466165 1 0 2
3028 1 19.100254946086753 17.275858433714674 6.096408888231255 0 0 -1
252 1 21.61933353040559 16.41177139159415 5.026838998023567 0 0 0
1591 1 21.17035130019396 14.3830979160325 3.1142435775802126 0 1 2
709 1 25.799549524306137 13.606036162494128 6.893065343417683 0 0 1
1195 1 28.158288214688852 17.42121580639351 4.507190487773845 0 1 0
897 1 29.919564603895907 14.015089367164798 3.718047393476111 0 1 -2
2382 1 30.717723422970103 16.81090568134911 3.542821537758244 0 0 0
563 1 29.119917344083813 14.40413148606806 6.843961843121238 0 0 -1
905 1 3.243988068845508 19.130038050516248 6.1594554302777995 0 0 0
1213 1 6.152672822427479 19.321845406690517 6.133495410690819 0 0 1
2910 1 8.775058025774058 18.340224097980265 3.8572555224641794 1 0 1
1830 1 9.882686586557764 16.25988669163238 1.841707375393772 1 1 1
78 1 13.401319136925425 19.247617378397916 3.7311567123791374 0 0 1
3558 1 10.909410042171231 19.60212960821013 5.204949625043843 0 1 -1
1050 1 13.224718498842643 17.077419568002988 5.896496479486193 0 0 -2
2132 1 17.91206786310172 18.949241979100606 3.767119704032641 0 0 -1
2633 1 27.376045464196835 19.98217772256367 5.059278961685433 0 0 -2
1131 1 31.32689733495768 18.92192815047239 5.229693014073247 0 0 0
3765 1 29.635622782274453 20.65720987988675 6.5436726090305335 1 0 0
1700 1 33.92316045785621 17.937667014292565 6.31945108563654 0 1 -1
2982 1 3.825745072817886 20.34597676278677 3.7250638648709593 1 0 1
2327 1 1.7355026434710505 21.770711807403256 2.6462198450853904 1 0 1
1443 1 6.0079210455832355 22.382635354481316 6.010063169739344 0 0 2
2329 1 9.33659309302141 21.742293077167627 3.7278467976846685 1 0 1
729 1 15.579367779027722 20.41742502043361 5.225371842847514 0 -1 3
654 1 14.46826751608935 22.317295792584698 7.140073100013392 0 0 0
3143 1 1.5110145203302865 13.051057201869977 12.684171627390144 1 0 0
2342 1 20.350129912797836 20.957846593647496 4.954879250225568 0 -1 -1
2554 1 23.13920104479915 20.41932154277502 4.844810135830417 1 0 0
258 1 2.5009439942589236 1.5641124599751837 9.370492564311782 0 0 0
3853 1 1.0558801249878618 17.694524330713556 28.913547216927597 1 1 1
1624 1 10.127231424770276 4.245702366221117 8.12146976731538 1 1 1
2243 1 14.841627306562579 2.4518145849826936 7.204526074565463 1 0 0
110 1 17.4092746922722 1.3981315695984695 7.654773205735461 0 0 -1
3327 1 18.573222091295637 3.534341157652597 8.95140813573091 1 0 -1
18 1 23.490373555605725 1.103098993216211 6.640696458521508 0 1 0
2632 1 27.54114254007126 1.1083731871971352 9.78089563121722 1 0 1
619 1 0.3818917612370166 9.659164622808408 21.09467113091311 0 0 -1
539 1 32.99231144912584 2.023505593510647 10.19596967295731 0 0 -2
2794 1 3.3782337989228646 5.320395979780582 7.572469961043273 1 0 1
3236 1 5.9843217357741025 4.4525015415898 8.017203414182804 1 0 1
2433 1 13.532082373956031 4.008570909612189 9.257615378083456 1 0 0
885 1 14.741922832327129 6.380495975416957 10.433748393145672 1 0 0
545 1 17.40087338554342 6.03659387476111 9.660785851112786 0 0 0
434 1 20.210152281996887 4.277960136175427 6.992916715920243 0 0 -1
1831 1 22.081266927816685 6.789964084880601 9.270716056711242 0 1 0
193 1 24.400217861122993 5.2084373496257035 9.22086415364661 0 0 0
3677 1 27.81391486352945 5.410310597079263 9.4050886809504 1 1 1
227 1 31.945753180862795 5.806862127322195 8.732802309277616 0 1 0
3478 1 32.81283211860643 3.4511476614571315 7.6868898541075055 0 1 2
3922 1 6.349057973404341 9.707830140069746 6.1471109360743865 1 1 2
2328 1 2.6031689555890907 8.625136701944578 9.005052006865432 1 0 -1
767 1 9.498173597386812 8.562476887804731 8.10201755858872 0 0 -1
817 1 12.247254327196858 8.071660959687348 7.52694143241718 0 1 1
2797 1 13.978733517758053 8.983528242995273 9.641692094744275 1 0 -1
179 1 16.849402451495664 8.743607584416292 8.4505700778431 0 0 -2
3597 1 19.43367931640081 6.65427439676926 11.226483786011709 1 1 -1
1659 1 22.926152196518157 9.539455978002575 9.701096352939304 0 1 -1
3347 1 25.641379958175396 9.453625470362494 5.4222955670223865 1 0 0
999 1 27.447571167939547 8.165697115726841 7.338058078469752 -1 1 -1
2914 1 0.7563020287867309 14.080663128427702 6.407307219490134 1 0 0
3899 1 3.305848720615808 13.359211627242715 6.82805393696661 0 1 1
3708 1 8.955085538436633 11.21547337534701 9.347972473830795 1 1 0
2270 1 9.831669533571285 12.507587950576625 6.634738456084064 0 0 0
2066 1 11.145976052645606 11.229170945453662 10.93813241536709 1 0 2
315 1 12.417223749308388 12.62806988513662 8.773589592924319 0 0 0
794 1 15.318424117921928 11.812493921399021 9.060111373258664 0 0 0
83 1 18.716699257786747 11.09223570898842 9.156513128972568 0 0 -2
1091 1 21.114915740489202 12.99418434874303 9.161029108585028 0 0 -1
3407 1 22.00952080864997 10.691461270592763 7.537567577942764 1 1 0
2908 1 23.642655218391194 11.369023203515809 5.7413896556639346 1 1 -1
3948 1 27.176993083546645 13.32966666951338 9.636834818802795 1 1 0
3306 1 29.17976529695582 11.74154179548689 8.259802520540603 0 1 2
853 1 32.688046756501244 10.762463335016506 7.035141628342864 0 1 1
2740 1 1.360292822785704 16.61302292903535 5.235197537972845 1 0 0
498 1 3.584663048561404 16.936410112263182 9.671882317649539 0 0 0
1147 1 3.792823545847552 16.455267701177075 7.152953880941401 0 0 -1
2888 1 7.808104615099816 16.995033913198725 6.260484718982995 1 0 1
3105 1 8.328338632817541 14.31275087767069 8.38322928963689 1 0 1
2963 1 15.492962515911024 14.660186502284414 7.757509784238918 1 0 -1
2449 1 19.536516981772042 15.392424052902388 8.27555075038874 1 0 -2
2629 1 23.227067007373282 16.587719223136542 7.142968407202472 0 0 0
162 1 23.467739389942206 14.299719893914284 8.551808385753823 0 0 -1
2938 1 25.847438861128243 16.723522376407132 6.670190782925111 0 0 -1
3071 1 30.011661029011176 17.29317839637738 7.438420798134992 0 0 1
3618 1 31.521209609095646 13.8462863775854 8.759771235008692 0 1 -1
774 1 34.642478418732914 20.232592442080062 14.982787295491265 0 0 -2
3007 1 34.81500078445212 7.618345253929815 25.416909181349233 1 0 0
972 1 6.145310201375849 18.776639984234105 9.149985329825729 0 0 1
2486 1 9.672651910817727 16.908335886921094 8.466741167888717 1 0 1
801 1 8.393275879854663 18.070113561413823 10.586423412881182 0 0 0
3909 1 12.053008961414339 18.45219003963724 7.950927442792055 1 0 1
356 1 16.249527006459076 17.805888210543614 6.811736454073366 0 0 1
1488 1 17.45431863185295 20.071045818782437 8.048588633466098 0 1 1
387 1 21.31074646396703 17.284228827251653 8.979677908261184 0 0 -1
2245 1 25.106659823929927 19.73138882153576 6.792034891306761 1 0 1
222 1 29.229751492643725 19.383928952915213 9.09670327485012 0 0 0
1542 1 34.70469695502766 18.544515575894593 9.277771935944454 0 1 0
1799 1 11.204489279885193 20.025100555362872 24.402840741493772 1 0 0
3417 1 3.5655313887718285 21.848550211039093 7.4893830673265835 1 0 2
3701 1 7.465983907435791 21.71558188220017 8.265456983851317 1 1 -1
1896 1 12.677952731857415 20.979624537559975 8.700969307587773 0 1 1
542 1 10.200987396585015 21.472297742838844 7.645823551588338 0 0 0
3433 1 16.75021085070377 23.09073971221248 8.608672731392518 0 0 0
881 1 20.09771242076613 19.577167500534294 7.52888712510851 -1 0 -1
1489 1 20.947738248943043 22.13508439720845 8.687807818406007 0 0 0
2283 1 18.909338882435588 22.5679293908364 10.619137514821753 1 0 0
3863 1 25.2740938728343 20.472882240025285 9.49395223410318 0 1 0
1375 1 5.022026843579002 2.4344016759630316 9.148202657149147 0 0 0
2662 1 6.242451491767576 2.8906943339714437 11.602095131191579 1 0 1
75 1 11.436249084925059 4.0945549204204665 11.230055504439422 0 0 0
3046 1 12.849417678121123 3.1760728696184173 13.4938759436264 1 0 0
816 1 14.56874458992773 1.8306367330752997 11.87034679613561 0 0 0
1677 1 16.818512720995813 3.586920758753249 11.641600484905402 0 1 0
2702 1 20.877469067583778 2.4934661874103874 10.540995102617622 1 0 1
3857 1 23.277752749843405 2.4080643045377386 9.055947233288537 1 1 1
294 1 24.829530261211286 1.4676064640963085 11.08347932966094 0 0 0
2778 1 30.462147725464227 0.8248459286708368 12.372239420460236 0 0 1
175 1 13.501566624768358 0.3835854935194717 28.051964931711495 0 -1 2
1240 1 2.014876746945084 6.16486908777964 10.082802170887103 1 0 2
2942 1 1.0119019718511235 3.393163833625242 11.109321336264516 1 0 1
3867 1 5.438418059079989 5.428496574451048 12.462623919926685 1 1 1
2369 1 6.347015835098229 6.399463975950224 10.035650446752655 1 0 0
1622 1 9.385723228461268 6.3032463849398725 9.727282735315114 0 0 1
977 1 16.018371599477174 6.095249271326707 12.949270596986116 0 0 -1
1301 1 21.64720534608113 4.7263538868752 11.623165089361404 0 1 -2
1094 1 25.58007996598541 6.606604546543139 11.177197356745861 0 0 0
1259 1 23.772781694158837 5.871487938878351 13.40368321378785 0 1 -1
3561 1 31.269785813281096 4.422217521663844 10.894119645141645 1 1 0
1019 1 28.87771358991046 3.055133982294 11.05312259465237 0 1 0
2176 1 31.64472710676555 7.239777937746692 13.477362978442846 1 0 0
2903 1 5.822754461216964 20.22728861288536 28.850120900153165 1 0 -2
2187 1 9.009684448616573 1.1210686700038577 7.589679510706394 1 0 1
2113 1 5.210685414842215 8.763761799711748 9.121600498911754 1 0 0
1291 1 11.88326841838121 7.746952054677348 13.496355847345793 0 1 1
3603 1 13.096780909026124 9.715347322461744 12.089263117717715 1 0 0
1037 1 16.371243952865775 9.257114808613041 12.856071035442389 0 0 1
3073 1 18.648782719831686 9.264059210589162 11.17408309316246 1 1 1
3312 1 23.17705836368118 10.497907577192727 12.282412693782046 1 1 2
180 1 25.642211921615946 9.09793926489959 9.702915051358493 0 -1 -1
2478 1 28.57247943958746 7.458423765318327 11.6443208826688 1 0 -1
2830 1 33.00977554792198 7.740197124406258 10.759130909028128 1 1 0
210 1 32.775273464045654 10.213081227823922 9.696627374683391 0 0 1
1675 1 1.6507769718429302 10.870818063118914 10.41956477107402 1 0 0
3079 1 2.904659788800299 10.554651209148759 12.903150968340281 1 0 0
1524 1 0.9038226543724545 22.594587573868914 26.000732030037145 1 0 0
1304 1 3.4284683008246413 12.814261449639803 9.40852462229309 0 0 1
2861 1 6.053983356660897 11.208007951911064 10.30694649685702 1 1 0
1846 1 9.604388463526005 11.778409136407268 13.104877685786981 0 0 0
190 1 14.302365646609118 11.208304349023637 13.96350191775455 0 0 -1
390 1 14.959825059097165 13.313835782908463 12.37543676403622 0 0 -1
2381 1 17.308157399005395 12.893816872953916 10.973522449392794 1 0 0
2925 1 22.035704628001376 12.87610424498317 11.760363550503557 1 0 0
2020 1 24.891622066798682 13.352137678427813 13.082883939357217 0 0 1
120 1 26.382996243560278 11.265836022091886 11.611440997815912 0 0 -1
64 1 28.866255712340113 9.995767376903549 12.48504253514704 0 0 0
3717 1 30.369645529385732 11.203891410966694 10.65303651022851 1 1 -2
3935 1 1.375160036526951 16.468431269246235 13.079076093642785 1 0 1
3760 1 0.9310414576865639 15.935493521297284 9.034597025386695 1 0 0
840 1 3.62695497786958 14.741146572084725 11.655023860457588 0 0 1
174 1 8.163674471256034 15.21312351868077 11.15871229078282 0 0 1
1628 1 6.089967563859582 14.59005918849136 12.838257719109384 0 1 1
1851 1 10.365247443134267 14.511817797325389 12.559364458835368 0 0 2
2958 1 12.563073940036222 14.312965080059593 11.040053955340912 1 0 0
655 1 17.972075262944298 15.605391787776574 10.675405271855286 0 0 1
3887 1 19.268958451115818 15.506884889844331 13.209346109127026 1 1 1
983 1 22.382208255661627 15.561008407287156 12.716906039864044 1 0 -2
3516 1 25.105359451132298 15.47287628884762 10.637815839599481 0 1 0
2366 1 27.098265896435347 16.727916400572582 9.335031444128017 1 0 -1
2138 1 31.03702649802497 13.486132806335284 11.911467644026839 1 0 1
3578 1 29.558627720032565 16.10774773284703 10.6657261947667 1 1 1
1374 1 33.7210997512213 14.84047905882764 11.185924236361371 0 1 -1
2947 1 3.3903475540748995 19.53047492388418 10.749722549543547 1 0 2
1323 1 9.919085579351629 19.80802784185286 12.199060540208741 0 0 0
661 1 13.475734076218211 16.879878018940286 10.1778905226477 0 0 -1
1933 1 13.034486663325602 18.35839803569716 12.430907336594522 0 0 1
249 1 15.978800708100914 16.740593480509638 9.376441948733975 1 0 2
2961 1 16.763955363505495 19.411165798485857 10.93508994026907 1 0 0
54 1 18.884183323852906 18.53921703709441 12.944039241001654 0 0 0
1815 1 21.355677890235903 17.80221077042393 11.67788569255747 0 1 0
3472 1 23.23963940021868 19.474660808341056 12.744977380613804 1 1 0
917 1 25.10776377946074 17.312502257075497 12.876468796692873 0 0 0
2150 1 31.95997701442753 16.65185899293661 9.133865700016509 1 0 0
1029 1 30.268827361681875 17.604243958579886 12.99448085276365 0 0 -1
527 1 31.782065147228508 18.96744628227635 10.912449313616248 0 0 1
1954 1 26.7946263515936 0.4437086147039391 21.808532151133168 0 1 1
3894 1 18.577865632854948 0.6761442955201774 13.73074362430031 1 1 3
2761 1 0.710224444159543 20.216216246246002 9.854213539061755 1 0 1
3201 1 4.962414056125257 21.527710152571785 9.833486126038633 1 0 -1
3053 1 5.6054148629566996 22.88638207602779 12.49242535631888 1 0 -2
340 1 8.275235453237126 21.827019131757176 13.704656174930014 0 -1 -3
1445 1 12.812429571922259 21.270724093012404 11.433897138743644 0 0 -1
51 1 15.621428345130425 21.882500247968032 11.971827520525837 0 0 1
1121 1 20.260520568507832 21.031142921269748 12.440302952840067 0 0 0
1495 1 22.988966261265276 21.618098225635546 10.795686015055919 0 1 1
177 1 26.921980063727347 19.07211129857295 11.003095121010341 0 0 -1
478 1 1.7475764575510597 2.152513430186875 13.577020042800347 0 0 1
1068 1 4.436824136776908 1.2279344170057558 13.103011767164837 0 0 -1
1710 1 8.534562968947192 1.7735357558603766 12.871573237757021 0 1 0
455 1 34.6863533924525 4.387238050482263 5.768104148577066 0 1 1
3356 1 0.5910951199333155 10.72102546666003 18.384118108174903 1 0 -1
3921 1 3.9087885507409426 0.49969246528973105 17.949442851249135 1 1 -1
1840 1 16.101239326272935 2.9560193567251525 15.399190501522007 0 1 0
616 1 23.774470243740012 2.4043233858726594 15.468292599648453 0 1 0
544 1 25.027267965956188 2.8253388893045104 17.8317344952327 0 0 0
1803 1 24.943683363138053 3.2785914284013233 13.234034375349932 1 1 1
1338 1 29.139878220248615 3.421204924269255 16.20856603382221 0 1 2
3451 1 31.4819789509471 2.3819918782774727 14.783786475963565 0 0 0
2248 1 32.71026645506273 1.0718013901968817 16.95042648380749 1 1 0
3639 1 2.8733671318395775 6.5816705351191285 12.683616639819556 1 0 1
2615 1 2.214839211894063 4.492047146559104 14.76760786186683 1 0 0
2579 1 9.870243979498705 6.239635125352073 12.560303053648912 1 0 0
188 1 9.961724806561037 3.7146412149910164 14.18634593604656 1 0 2
103 1 13.656842332568159 5.664395680135734 14.292981409203868 1 0 1
2169 1 13.646925594395382 6.116580390948007 16.911956730081126 1 0 0
849 1 18.528867419588465 3.547858787466935 13.9618626147447 0 1 -2
1623 1 21.41870121235224 3.6484972442584893 14.639600995970431 1 1 1
1397 1 27.610893006210393 3.649631848978901 13.688832473278543 0 1 1
1100 1 28.341555884267986 6.139782236627109 14.037786587337358 0 0 -1
2838 1 32.77695515316471 4.44877043453511 13.577755816103638 0 0 -1
3444 1 0.6424834781364672 5.044731988520069 1.9404725067988362 1 0 0
821 1 4.95374524299464 8.516042687117231 11.956276576428497 0 0 1
2361 1 7.378674361206685 7.199362843291535 13.623242249095732 0 0 -1
746 1 7.415474235067916 7.150387241323427 16.348553363229552 0 0 0
3287 1 8.396398168582952 9.917188918833244 16.08265036562327 1 1 1
1481 1 11.080116645790032 8.759274613064447 15.969417135762624 0 1 1
1583 1 16.94356280480325 7.963584761116637 15.309672555735206 0 1 -1
484 1 21.758822231018826 6.623750343617522 15.227104277591234 0 1 0
441 1 18.982741355480403 6.344119993536447 14.042399381265918 1 0 -1
671 1 20.53560658846494 9.246406699520575 13.307152953326359 0 0 0
3511 1 24.350698086131523 8.795090704088917 14.1858653810473 1 1 -1
2025 1 22.35552746378933 9.300949037105607 16.177369056362895 1 0 -2
421 1 26.35659188935805 7.265888405053183 15.570370665589337 0 0 0
1076 1 30.10095866318186 9.00173448176688 15.08616308549837 0 1 -1
3002 1 34.15362918355762 8.789756838191966 13.99356448136893 1 1 1
2612 1 1.6796198489800906 8.456364793599278 14.273192134901846 1 0 -2
3764 1 5.379111725347589 12.00099385569104 13.774504932220829 2 1 0
2315 1 7.113793083283592 10.107304137743498 13.233193376847007 0 -1 -2
2473 1 11.571868954205899 11.271227197230795 14.66350590333389 1 0 -2
3523 1 10.851396873728087 13.158287834183593 16.67882248728882 0 1 0
3689 1 17.571277246141637 10.817514868581668 14.922919560409698 1 0 0
55 1 19.453536831223346 12.314979450029126 12.813326196303287 0 0 0
1693 1 20.13766092708223 11.144649527619142 16.125462781412722 0 1 1
2842 1 24.345904224653502 11.667979273617197 15.194416584524841 1 0 -1
3321 1 28.631957665934376 12.37277440742584 14.42970413399672 1 0 0
2464 1 31.335143086052696 11.507735963503176 15.783692966600745 0 0 -1
2705 1 33.01917147428823 13.057474813697146 13.978839424236297 0 0 -2
676 1 0.4544465716428353 22.34684967608639 16.477728049893514 0 0 -1
3970 1 0.954303849019102 15.575244213045448 15.98447794636446 1 1 -1
2397 1 6.117229524408827 15.952386771251627 15.431106285358931 0 0 0
2602 1 8.886506550928358 15.755107808870742 16.227612870368098 1 0 0
3016 1 11.344245641902543 16.68424421715968 14.22953513690037 1 0 0
2666 1 12.690188284108315 15.375286977881805 16.155061632915643 1 0 0
589 1 14.964047049726064 15.441999094171848 14.28766699278258 0 0 -2
1893 1 17.126800106088343 14.278311582666381 15.401289888998127 0 0 0
1809 1 22.4448975165286 15.961056632852722 15.679999150272018 1 0 1
3642 1 27.830163500846265 14.221253740767391 12.532002885438326 1 1 0
278 1 30.359978185325414 14.982667539051223 14.753042738626156 1 0 -1
1560 1 33.296988495614805 15.713395794614296 15.327887507601238 0 0 0
908 1 2.8680962581303024 18.813550485777675 13.413224746179468 0 0 -1
3916 1 3.5143421739399643 17.257466741435568 16.028151057215293 1 0 0
2355 1 5.462537736340737 20.464481913569614 14.233822622312932 1 0 -1
2383 1 7.226315398219412 18.881815897373272 15.615816812425782 1 0 0
1061 1 10.044040035136348 18.894282207333617 14.86214908843267 0 1 -1
3116 1 15.648509815140294 18.079525651223953 13.280312102292049 1 0 1
512 1 15.530737172897599 18.49038817188347 17.013839697469248 0 0 1
584 1 19.207911398541032 18.964827634194755 15.725765307092031 0 0 1
2085 1 23.44110629594349 20.160190563983264 15.500369265673342 0 0 -1
1627 1 27.161580713874724 16.042450012303977 14.887082764470776 0 0 -2
130 1 28.13012488148151 20.497629678749966 16.31869731644638 1 0 -2
386 1 32.7006642882311 18.424443889862424 14.257432736113056 0 0 0
3709 1 12.004867688120758 20.65282385125068 16.317271581283624 1 1 -1
3739 1 9.87043411668488 22.54930555661003 15.963944069485008 1 0 0
2976 1 14.33289611688694 20.25760822473057 15.05887711152703 1 0 1
2496 1 15.963989279018957 22.5456149452993 14.766037332790434 1 0 1
1267 1 17.820457312774334 21.256362683061663 16.790351681900297 0 1 -1
2281 1 19.90625753847968 22.027914903273196 15.074787140846865 0 0 -1
317 1 22.2445363595837 22.721860336686127 15.671041974835832 0 0 0
3099 1 27.9771467096924 18.803155187647263 13.832529602642817 1 0 1
2544 1 5.394727485694443 1.493696441148105 15.754189668970795 0 0 1
3614 1 3.4459767635552274 2.643540415079383 19.81118974968909 0 0 -2
2341 1 8.777836057423228 4.617951697094835 16.665471998629958 1 0 -2
681 1 34.12049963667732 15.006537142767035 5.800171537834938 1 0 -2
1678 1 10.129246757105557 1.8848986698002541 9.992258932879936 0 1 0
1964 1 13.22078756940023 3.235267981855911 17.758290913020865 1 0 1
428 1 16.030092034635416 2.9260457895951726 18.43536459404863 0 0 1
2393 1 19.355843916400513 23.27480353462063 18.39586765652402 1 0 0
3973 1 18.76336378309928 1.4871681115915913 16.835141613386053 1 1 0
1491 1 21.356368816147327 1.6957043142428838 19.374522732137557 0 1 1
288 1 24.23557274589826 1.5073136971448842 20.08765053945465 -1 0 0
891 1 28.48385480348389 1.3594747503162614 19.962171247809508 0 0 0
1586 1 34.38889585043899 2.5229354910408697 18.65336118595907 0 0 1
730 1 0.5757868697085916 3.475471606314367 4.189251126414132 0 -1 0
3860 1 4.567113269073182 5.9382624816651495 15.430810264144055 1 0 0
3278 1 5.762781387577841 3.8764995075100575 16.88949707263335 1 1 -1