LAMMPS data file via write_data, version 29 Oct 2020, timestep = 50643

4096 atoms
1 atom types

-0.024373982016825835 70.02437398201562 xlo xhi
-0.024373982016825835 70.02437398201562 ylo yhi
-0.010202252472762297 29.310202252472536 zlo zhi

Masses

1 18.015

Atoms # atomic

1929 1 26.748525029428407 1.043009007900078 7.575522161477323 0 1 0
185 1 3.2954589537901455 1.6668123307775846 3.961012524685008 0 0 1
262 1 33.571626014825526 3.6480058659416215 26.438904264782323 0 0 0
2717 1 21.65520075253508 1.7077550937485757 22.156179747226798 0 0 0
357 1 12.5873016456485 1.8556692416995735 1.5177518414792162 0 0 1
1889 1 15.338633165287822 1.1737638195181619 1.432963233773547 0 1 0
398 1 17.59958308991989 5.237616220930699 28.884669928407142 0 0 0
1685 1 25.59808943711338 3.4521785128605638 0.8496717933339778 0 1 0
1598 1 24.093092297693058 2.0101289812913636 3.1720276974954795 0 1 0
1649 1 27.06689318398514 1.5040145348182832 2.4018086136833743 0 1 0
598 1 32.780597931726575 1.591601903865784 0.7470389115620122 0 0 1
1849 1 5.309977028157335 4.2897038096000095 4.389334749776936 0 1 0
2024 1 8.814119348000737 4.0692153803922135 4.357024807267292 1 0 0
244 1 8.406631800895962 1.8984973693111356 2.304484538884893 0 0 0
298 1 11.80217300784546 3.4244762601084773 4.277509100816896 0 0 0
94 1 14.379156592429599 6.1882606946730085 28.24424438076261 0 0 -1
300 1 12.685301822882492 5.036831192536534 1.6831013630405305 0 0 0
408 1 16.981061600529532 5.900594433707328 3.567616759851819 0 0 0
269 1 19.911290185183912 1.6578501390059288 2.67170496209118 0 0 0
3935 1 24.410855342524204 6.2410082711669395 1.9926379794348135 0 1 0
1924 1 25.49870852363669 6.763359970980379 28.540271800875303 0 1 0
140 1 27.687422855278516 5.499522138690752 0.7702276139115325 0 0 1
641 1 14.448953071164587 0.52548585194168 18.47961019308147 0 0 0
2795 1 3.6458395738478764 8.900418280694288 0.5700071657668184 1 0 1
612 1 8.532062044367885 6.210924259321926 2.4553953203635768 0 0 0
1634 1 12.418554775909726 7.936476283992116 0.41672783863756707 0 1 1
2562 1 15.004684621683209 10.297157198999031 3.2294843225770618 1 0 0
362 1 15.248847266469587 7.429788049743104 1.6165389995129469 0 0 0
337 1 19.034952279192574 7.357875967331796 2.319695903194373 0 0 0
1347 1 25.196741756388317 10.112453903486267 29.26084612153867 0 1 -1
2597 1 29.524271493688705 7.813109428901736 1.0963084631011004 0 0 1
150 1 33.93946815087319 8.270010211397063 27.16562267758129 0 0 -1
597 1 6.085485890775714 11.901512189933484 2.8604243154042255 0 0 0
1160 1 8.715304613694103 13.33190288624163 3.2656508206208628 0 0 0
371 1 7.9953091878904505 15.023065221368368 1.3003941365029976 0 0 1
2081 1 12.149347285315866 10.843013517241536 29.171768227492255 1 0 -1
283 1 12.467865339142898 14.437933638020183 28.657846451401056 0 0 -1
184 1 14.794403706112782 13.173388926757443 29.281407715718164 0 0 0
1975 1 13.040052755182964 13.877742948180497 3.594741316205393 0 1 0
1692 1 15.5016373371989 13.108826083245534 2.6267641921131926 0 1 0
437 1 21.734962498999376 14.177224624095473 0.44585264444862305 0 0 0
2774 1 18.082386799495463 12.044650844282902 1.1005778774456503 1 0 0
1539 1 22.157270699987098 12.32943126202447 2.4724544598025138 0 1 0
725 1 27.245222436419194 11.208767202165143 4.034727695067709 0 0 0
3210 1 30.892564695664902 8.889398518035367 28.337441543437613 0 0 0
2365 1 33.23819245074336 10.44423208473638 29.05028942211765 0 0 0
727 1 10.350658143125575 1.3530309578289088 9.271432705371558 0 0 0
587 1 5.496714999985235 16.849460739937367 28.326767099778635 0 0 0
2435 1 5.473719520896352 15.671718308909332 2.4761398654179834 1 0 0
83 1 4.400403327662956 14.318172483240094 4.853585848512103 0 0 1
686 1 9.339868033509136 17.582203497310395 1.1721150497104884 0 0 0
232 1 11.876048564833695 16.656842275735585 0.8420127933971974 0 0 0
867 1 17.733241894732807 16.467771786574012 1.4214033556775534 0 0 0
247 1 19.067214606781604 13.816761170605073 5.109812689276513 0 0 1
375 1 20.555260460100982 16.261838654649974 1.9229850592138145 0 0 1
73 1 28.2818929353331 12.302973034759162 29.109925362281633 0 0 0
352 1 27.708070219235065 13.429438503192 2.613773831505438 0 0 1
2217 1 1.3986818075236171 7.691808324349134 11.179167426101575 1 0 0
297 1 32.80857080359507 14.63361857186 3.9486304428032417 0 0 0
2367 1 32.34035113340291 12.936652147536526 28.458104802806357 0 0 0
560 1 1.6529297858565104 18.568379657276953 1.7153691552687922 0 0 0
202 1 4.9230825186964795 20.968224922277443 0.1460901912947014 0 0 0
120 1 4.6892493129730415 18.354609977957008 1.4839250984735568 0 0 1
198 1 13.446849739910231 18.93921038709563 0.3292759614120999 0 0 1
1172 1 13.063703211743755 20.293829355442778 3.110106764153227 0 0 0
943 1 17.38426384243404 19.406920735911843 1.5134452750420946 0 0 1
81 1 20.100034165061516 19.11515052506947 2.0175414413087887 0 0 0
454 1 24.26777989379319 14.92302010972826 28.97464134656918 0 0 -1
617 1 25.700998596419566 15.279652554023405 1.937466673381149 0 0 1
37 1 29.471958508242178 16.072348729703076 0.09135704114274902 0 0 1
40 1 31.636206589125763 14.708049792077826 1.321597781907296 0 0 1
483 1 32.97662431929007 17.0405294491011 0.5147384952262873 0 0 1
1081 1 0.8584227000140224 20.73795062903799 0.1316863964459544 0 0 0
488 1 2.941562946926614 22.275311847092848 28.744474058352825 0 0 -1
1189 1 6.407851928646575 22.37895419428822 2.237866252788047 0 0 0
2387 1 0.37215787827265334 0.5419151744362346 12.500520630600858 1 0 0
633 1 9.953733736858307 21.903276667949765 28.518605440734838 0 0 -1
472 1 12.611363043083333 22.05897643015139 0.7483553750873014 0 0 1
1072 1 14.350212167670062 21.55818243556631 28.07353911565938 0 0 -1
573 1 0.578906445009768 7.85632616052586 22.51878989448752 0 0 0
1554 1 17.38806725029817 1.095628541858486 11.84931132943645 0 1 0
872 1 24.35519421229109 19.712070439075447 2.427522605814149 0 0 1
2768 1 27.293941440690677 17.607965456314208 1.205938895265938 0 0 1
870 1 0.8966624455483588 19.956965857437496 6.028046869448717 0 0 0
2011 1 34.75440631555259 1.4548558184071547 12.222018060967423 0 1 0
76 1 5.801289850375185 4.191333310657515 7.483326646291579 0 0 0
2422 1 0.3915882452153027 17.100831367384085 13.417417372027252 1 0 -1
1337 1 11.76967433236392 2.3804842222695557 7.284127424589465 0 1 0
619 1 14.80394326290714 3.570414654349947 4.616613689514816 0 0 0
441 1 15.42200441138944 0.7994027235726876 4.577416322037054 0 0 0
1626 1 18.16522465496787 1.2360055293233434 6.136178208849329 0 1 0
36 1 24.841753518318214 0.35314419272440994 23.267377638451354 0 0 0
97 1 23.663892442049963 1.809981653670396 6.92348834100902 0 0 0
1970 1 25.770606874039334 3.517934075368249 5.5483406756896665 0 1 1
3584 1 27.83076147386741 4.586678503394453 3.911295087453659 0 1 1
1372 1 18.57332472146435 0.983363007300829 25.90238554912695 0 1 0
3504 1 7.063196301475768 0.20565649754844648 6.863928394481054 1 1 0
2763 1 1.2629889101546339 0.706762012727005 15.376898768852394 1 0 0
2821 1 5.682003701463674 5.964831923617771 2.1393870644407005 1 0 0
2218 1 3.9906778303225163 6.121408834998939 8.139338742004524 1 0 0
208 1 7.677012079630161 7.852223450935621 6.219768797258976 0 0 1
2812 1 8.222798933438943 5.34003988470177 6.5714059677489844 1 0 0
4057 1 15.438721971261437 4.149514931990152 1.4272526833040935 0 1 0
553 1 19.00214816711513 5.056792985638858 5.460652755092674 0 0 0
534 1 20.982122546545906 3.3335832246189376 5.232022841654288 0 0 0
981 1 23.313600316683317 4.543110291395427 4.26797207936461 0 0 1
115 1 30.245888803005116 3.4729436610643836 6.010194475587825 0 0 1
336 1 29.674325690986525 2.9971908594611576 1.7222228958015957 0 0 0
278 1 28.945697509066758 7.203521516344767 6.3474833793525 0 0 0
2697 1 2.440781143814432 4.903243435198424 4.265774256323492 1 0 1
2804 1 0.835299403314145 11.626182453543453 5.3276033201194055 1 0 1
2013 1 7.327191740192353 9.007965824191134 3.1693685485907497 0 1 0
469 1 11.414618769014924 9.73769713384116 4.153670310532906 0 0 1
1816 1 11.284124782815539 7.327115595069996 3.1024268121710223 0 1 0
1330 1 12.457541036332904 6.195006163884229 5.385040789427125 0 1 0
205 1 15.158119833018361 6.9530591101412895 5.530260176334173 0 0 1
2010 1 19.18013459740365 9.614621222316144 4.143750062445762 0 1 0
19 1 21.80020470348074 7.919167697209714 2.5550721187893526 0 0 0
1050 1 26.61287705521628 7.241345414497489 3.5006360958912413 0 0 0
1231 1 25.226302811914824 8.763032444179817 5.276975041050758 0 0 1
2354 1 30.07037212556804 7.471684609681876 3.618507303612492 0 0 1
2488 1 31.07189478051281 4.684087456292906 3.7485301133746542 0 0 -1
2484 1 33.938952210438686 5.860491720670223 4.376402631397916 0 0 1
138 1 32.55430517687304 8.271665116645638 4.133982727894017 0 0 0
3418 1 3.4539440759423337 11.214738534060166 4.439363071036055 1 1 0
2521 1 6.480438869203187 12.352426575066046 5.810410107848742 1 0 0
5 1 8.608963922211345 15.31567049094094 5.557174193313192 0 0 0
447 1 11.400237464986677 11.848018744600108 2.223905900572468 0 0 0
1316 1 10.131530915114318 9.938821752723195 7.349074749699691 0 1 1
320 1 15.455682442536046 16.490429708420727 5.850302606682595 0 0 1
493 1 19.644127574079768 12.220361068430089 3.1690421880110873 0 0 0
663 1 24.379559528651274 11.798506566429904 4.293864786856612 0 0 0
426 1 26.92732875771387 15.142103730194561 5.289238159333431 0 0 0
112 1 30.449474556097346 10.926716958338366 8.586986167850473 0 0 0
361 1 28.495108574819422 12.067371912404841 6.612624783101359 0 0 0
321 1 31.72914801122131 9.273142875699408 6.768569636310644 0 0 1
3393 1 1.667607937826279 10.09020388257406 9.99879167307295 1 1 0
531 1 0.24958926623133249 14.497015287059366 0.45164221235442537 0 0 1
610 1 2.9520643750773554 12.825091347104538 8.084929139327834 0 0 1
3050 1 6.535669161988415 15.68883583287663 8.854622117910484 1 0 1
566 1 10.596914712994199 17.22196763422593 5.63096057980379 0 0 0
496 1 12.692662934125778 16.611215975161336 3.568613504298019 0 0 0
574 1 15.093686544043939 17.983053394144058 3.0521812561173585 0 0 0
480 1 16.889116401081406 15.065264077334396 3.8022514504352665 0 0 1
514 1 17.649404209822176 9.909340321865187 6.546470106710005 0 0 0
389 1 21.490484354596507 15.50048826092835 4.816680048602544 0 0 0
1215 1 24.36303371737386 14.661721891404282 4.273558040213588 0 0 1
2591 1 30.731805167642886 13.922048289911348 5.4319094062001225 0 0 0
829 1 29.40802960253494 15.55105277007332 3.254549240804041 0 0 0
3473 1 2.1176226601734616 20.743777215743243 3.5293588640807156 1 1 0
556 1 6.243670611525148 18.62709635568966 4.106259715375428 0 0 0
1200 1 8.924031585854625 18.611177775531743 3.6706303771876394 0 0 1
2712 1 10.400804374601455 21.047841473322755 3.3707442562198935 1 0 0
750 1 15.68337106555449 19.616528623915844 5.4115126539470335 0 0 0
1080 1 14.979776794551897 22.315764435277327 3.9426088413685005 0 0 0
424 1 17.675660048311208 21.115958819509004 3.8676400070666284 0 0 0
458 1 26.45609814389422 21.054053344739586 3.2763801894636697 0 0 0
842 1 23.827894428126783 17.83929437709547 4.550728062238147 0 0 1
410 1 26.514685881406418 17.87521363136627 6.034822327670506 0 0 0
273 1 30.722494345670206 19.722494171124033 3.8397603310602113 0 0 0
394 1 33.83121570782122 17.24381546253657 4.567239301313357 0 0 0
2494 1 4.393076086729511 8.781983894714363 3.008682907783133 1 0 1
2936 1 4.556614277990047 20.87410001444999 4.856048417716668 1 0 0
303 1 33.66705197544099 3.526248932798941 2.3957765811902547 0 0 0
504 1 13.050007662900336 0.06281665691704191 21.355947365580914 0 0 0
1183 1 21.808260925410767 21.171707643788242 3.340351097387051 0 0 0
1238 1 28.22237306345406 18.703794582292247 3.659071543856282 0 0 0
604 1 33.267818047291975 18.97022837424185 2.5272669823626916 0 0 0
2718 1 4.166476375585276 0.524593153194971 6.850797790816039 1 0 1
2355 1 3.690136696371969 2.510222059961024 8.66236000312369 1 0 0
71 1 6.098489738636324 0.837359732904155 10.79607289042964 0 0 0
1749 1 7.532824659240979 1.9314551274386775 8.758315538472946 0 1 0
677 1 14.711064394661426 1.4731583299214417 7.84127044276978 0 0 0
1359 1 16.662545497557886 4.024408749628458 6.667725249914446 0 1 0
539 1 20.360449199097733 2.7565016110733263 9.719436921953392 0 0 0
143 1 22.525444880381603 3.9279838444757833 8.466526779902543 0 0 -1
3474 1 28.955077613313545 1.7982569181999888 9.240126791188235 0 1 0
684 1 34.53517542084297 12.389492372263247 4.39530984236089 0 0 0
89 1 0.33601366094785223 4.86338766203335 10.616683621253275 0 0 0
3 1 5.725970024801432 8.188714873885518 8.324357205068207 0 0 0
665 1 10.605048148625439 4.889475949618298 7.813964848078222 0 0 0
44 1 11.829034485332706 7.557579530741652 8.088964250729726 0 0 0
596 1 16.149219234660254 6.4153393552968625 8.166988966499183 0 0 0
629 1 13.039936273587088 6.870076890282698 12.259182131730611 0 0 0
435 1 14.272203533503268 8.75181374396846 8.481547485870369 0 0 0
405 1 23.400680535345817 9.132043323016626 9.29657808369865 0 0 1
1366 1 21.893841487942552 6.894047084434912 8.414611070134022 0 1 0
433 1 23.755025768823952 6.430730735298357 6.281355513752959 0 0 1
525 1 27.270356410353184 7.034854695313887 11.91757999245979 0 0 1
87 1 32.93311714485365 2.4748637651201024 6.747576353676573 0 0 0
2066 1 32.491974299898516 5.264013281664955 9.718812745018768 0 0 0
2542 1 33.893196360800744 5.26597719218005 7.047511554767713 0 0 0
3337 1 1.9915022423962996 9.633974607932158 7.080648870293307 1 1 0
2721 1 4.357771189266286 10.866290529837393 10.344432910604807 1 0 0
84 1 8.662422775059166 10.741416361494695 4.886511980272963 0 0 0
1522 1 11.017197052373664 6.878226026218403 10.600506898547172 0 1 0
2363 1 14.992396496872011 10.04296187142428 6.116306457519349 1 0 0
267 1 18.31566328014208 8.121244249745311 8.94154311778739 0 0 0
347 1 20.08423667339504 7.480231891209301 6.530918145340557 0 0 1
487 1 27.172949922927142 9.258685990935883 7.013351267079719 0 0 0
251 1 30.789219316325234 7.133941709331212 8.63456401951345 0 0 0
275 1 28.649329454615483 4.647796972671901 7.899999015470214 0 0 0
738 1 34.05752567675219 8.108256063736528 8.653521852813531 0 0 0
1312 1 3.237879870279012 13.489293692384928 11.205611869497721 0 1 0
3736 1 4.717114849950696 10.583425114018617 7.1181803841614935 1 1 0
899 1 8.385074610998235 9.055111273349931 9.449780498281271 0 0 0
1994 1 7.03179851709866 11.597775919474245 9.646070282961007 0 1 1
685 1 11.738235846376213 12.021546057881396 8.247031592185737 0 0 0
287 1 13.68968453516106 12.656580496133445 6.300278046443974 0 0 1
711 1 15.520670621292242 14.01092848269509 7.431525966716048 0 0 0
197 1 21.988987506816624 9.171295553146589 5.086758945600461 0 0 1
465 1 20.735390367906433 12.864319205225986 7.967259300600177 0 0 1
735 1 23.17309995101066 11.186812066815133 6.966364270607004 0 0 0
96 1 22.18532522913363 11.802812023014797 10.336057754032318 0 0 0
154 1 26.837527566394836 13.75610544001484 8.23635686995126 0 0 0
385 1 29.168926238321443 9.037709804648047 10.267692063672841 0 0 0
2358 1 23.286212556195597 22.61056367806937 5.709381908567168 0 0 0
2893 1 1.514588827584181 10.436200538976115 0.07780464986295581 1 0 1
537 1 1.9836583768936324 14.879712513272544 5.863011303385283 0 0 0
1463 1 7.741833702696206 13.735354530648642 7.640107830886886 0 1 0
401 1 13.182121987095227 17.738640629525264 6.950258198569702 0 0 1
761 1 10.54063075900668 14.35789300164436 9.090742722614594 0 0 1
2987 1 13.112936674952755 15.579505515192084 8.729389079587069 1 0 0
644 1 18.107673357892093 12.328683351842995 7.28583363475609 0 0 0
312 1 17.74676698976138 16.54325091215926 7.944882282622461 0 0 0
1051 1 20.71139473820416 15.328916514162776 7.840100375963609 0 0 1
131 1 23.946434212247574 14.299597314656385 7.419153610919546 0 0 1
2693 1 24.161345819853896 16.454040493215548 8.814251728491467 0 0 0
134 1 30.47001251794033 15.840371080865644 7.1646815204589425 0 0 1
2715 1 32.478900307269434 12.583370406037202 9.347677384336858 0 0 1
256 1 3.0502394109512174 17.165057637567745 7.218812608219455 0 0 0
3078 1 3.787479033810587 15.85196098384448 9.454584179039038 1 0 1
2831 1 5.856187121462349 16.6151539413536 5.697735001648166 1 0 0
948 1 6.030036686453969 19.77312402803 8.811589851302616 0 0 0
720 1 10.168152933407825 19.4445306581177 7.482367529719333 0 0 0
2809 1 9.48975721490729 21.839834002692402 5.90557758302969 1 0 0
869 1 18.16158449208219 18.952884158208512 6.698262542012359 0 0 0
984 1 19.989153486631327 17.949493716230442 4.802156016444349 0 0 0
30 1 24.193950819314054 19.088877116972828 7.61367851118784 0 0 0
2838 1 28.16185933853876 16.80078788486925 8.299262449204242 0 0 0
756 1 31.665489136946775 18.075810721598156 6.11785834872195 0 0 0
626 1 32.48398025726568 19.137317958998846 8.707129353015114 0 0 0
3408 1 33.463066534703145 2.269558502191062 14.65108394060208 0 1 0
395 1 2.636767514921611 21.642240488006763 9.656677334676026 0 0 0
2509 1 3.7581722846709877 19.892920599198856 7.471418355216014 1 0 0
849 1 6.9150778744315815 22.507735572092237 5.577267110097739 0 0 0
1246 1 6.884372039249644 22.49857104263258 8.388389262886202 0 1 -1
548 1 12.156258752627567 20.012868112774168 9.149963960300962 0 0 1
133 1 11.768176893779545 22.55196793136175 9.822038123887024 0 0 0
364 1 14.51779354940576 20.56154404508783 7.791745383753658 0 0 0
694 1 8.960305828137248 23.00349316480774 10.303433386573253 0 0 0
661 1 19.326066764006036 21.1939009895813 7.7284155279917615 0 0 0
1469 1 6.246700354905608 1.5323142407405506 4.2345357308625715 0 1 0
177 1 21.62692215030139 19.832732470858218 5.940815592320515 0 0 0
2519 1 0.8509670348125861 5.469641957016783 2.11812892679124 1 0 0
639 1 26.021413483128146 22.655450485531013 5.234037551144818 0 0 0
740 1 12.424027677862084 23.12748896898122 24.42758620493397 0 0 -1
2382 1 0.2411984629291189 14.334895747767131 3.5739506894269866 1 0 1
1703 1 5.231668124657036 3.5370628488368356 11.325519523406276 0 1 0
3788 1 9.939264037547675 4.213680819122999 10.736740186743985 1 1 0
2187 1 4.543511468616246 3.862559460596056 17.740636116054244 1 0 0
4044 1 1.8360402834436989 0.25935891725976495 20.21234239763725 1 1 0
317 1 12.250753286552612 0.9382713614599921 11.725531799018425 0 0 0
1817 1 17.616921053750186 2.915832252063613 9.327602310579005 0 1 0
92 1 21.27803214966627 1.8191881685125324 12.298198207089689 0 0 0
85 1 23.489004713716806 3.8253078479414495 12.582316200454642 0 0 0
181 1 24.672253614239267 4.566675044923925 9.923675248832058 0 0 0
125 1 27.650247348488985 2.8044522028813343 11.612366279926665 0 0 1
638 1 1.1691668576257406 0.7775549402770796 23.34370805013953 0 0 -1
285 1 17.11183252496373 20.44212801533046 28.27759795914202 0 0 0
1559 1 3.4397456559069095 5.399255285423376 10.743314171492317 0 1 0
1417 1 15.949747380307636 1.4727270532632595 26.354184068671515 0 1 -1
1294 1 7.558281198681799 5.265281801220384 11.644264730812932 0 1 0
1247 1 11.25410148068766 3.3785903668223147 13.335037388431811 0 1 0
578 1 10.518768713374111 9.771555937320702 11.478513919757393 0 0 -1
621 1 14.401457885427796 2.6884110958084393 10.31500863519485 0 0 1
2117 1 12.74262372928243 5.373809135881693 14.4024237757949 1 0 0
669 1 14.720527539101141 5.456231286919139 10.316006629144514 0 0 0
430 1 16.866672014149113 5.700782254438831 12.05258383629837 0 0 0
1987 1 19.408263542414808 6.093044657285012 10.202642175191057 0 1 0
3714 1 23.58159767814991 6.945243256292333 11.36449575926009 0 1 0
293 1 31.57734700170266 2.5861524796594337 9.307027679176317 0 0 0
170 1 25.909265428010574 5.902882216960936 7.6173922937364855 0 0 0
2511 1 34.11834365170463 5.618903449197981 11.74430811729878 0 0 0
1603 1 23.029480292886777 0.563413701671328 9.832468523146872 0 1 0
2250 1 4.873103819894635 8.23670623412512 10.824501197452214 1 0 0
2306 1 7.961641259211431 8.75632050480179 14.676333207753817 1 0 -1
731 1 7.445450799157663 8.041849996578991 12.001050993052427 0 0 -1
3765 1 7.755512581759208 5.359214893558915 15.877042671497527 1 1 0
13 1 14.76075730985786 12.941762289027803 10.201588317093378 0 0 0
2388 1 13.171198072439639 10.660089745160612 10.396669860600737 1 0 0
334 1 13.712084602670098 9.397021539601038 12.901495309321854 0 0 0
540 1 16.613265936362588 8.4702473155623 12.605606031904664 0 0 0
1427 1 20.828769218621527 9.882351680296061 11.97570161347997 0 1 0
2337 1 26.239494039669058 8.499856566275252 9.380929457591753 0 0 0
236 1 29.239120087172036 5.170219069318952 10.750913376773036 0 0 0
20 1 33.58658827221524 9.122896967057198 11.232647746919644 0 0 0
2744 1 31.86057242451778 0.7762375225672281 11.752635339178013 0 0 0
837 1 31.551191218310027 17.514344620715246 27.516501321984748 0 0 0
2593 1 5.459504812252402 12.023886967391704 13.045037301828899 1 0 0
2706 1 10.70158675782047 12.025382893673456 15.247419002991126 1 0 0
58 1 12.130134174298236 13.280738555053755 13.03357283393768 0 0 0
339 1 14.618908875690702 14.538921556352873 12.733239156719012 0 0 0
241 1 18.21875189814476 10.004244669173268 11.018732529531542 0 0 0
471 1 17.53250518275553 12.680667082394049 9.766615472960602 0 0 0
737 1 20.666025551139498 13.850646277355516 12.594581616051403 0 0 0
856 1 24.45869348902415 12.383227395489037 11.627805947631302 0 0 1
630 1 25.0887329078573 14.632129031962755 12.881437895834601 0 0 0
552 1 26.612480148541596 11.298436887341909 10.060249530188315 0 0 0
647 1 28.73009869197814 11.717098555907935 11.84577475091149 0 0 0
62 1 31.73434151095914 11.221553460358956 11.832967199566639 0 0 0
2829 1 0.7699928083411917 14.970704209567998 11.466488071638473 1 0 1
2040 1 4.8489947919783205 17.272373091552474 13.871560851526981 1 0 0
468 1 8.738949959708702 12.199458780877114 11.880402048777016 0 0 1
821 1 7.09920319266796 15.663753039148139 11.74307543728495 0 0 0
1203 1 9.726077970216984 14.856973321104249 11.768370902786026 0 0 1
348 1 19.097591130341 14.838426577999806 10.470602231692217 0 0 0
358 1 22.52261423524634 15.883291844627895 12.761011760266907 0 0 0
1137 1 26.305263483648474 16.42974213056855 10.588597109960512 0 0 0
388 1 28.894544283430033 14.245929367910653 10.732599849134953 0 0 0
291 1 31.49190226048472 15.210951718726529 9.66434877729382 0 0 0
318 1 33.96066901475075 16.072127299723938 11.02740907913433 0 0 0
448 1 3.9069392791576845 18.044271218969293 11.371827815469034 0 0 0
705 1 8.20115744432268 18.09296825963106 8.90802058928385 0 0 0
311 1 8.89034875159542 17.992963057135245 11.55974421734422 0 0 0
345 1 11.763644759691989 18.677261486233334 11.557755442863208 0 0 0
137 1 13.87728850264954 16.963904614953663 11.067385076957766 0 0 0
555 1 16.47114704224003 17.811959999839743 10.120546213209485 0 0 1
162 1 16.553293135954277 20.570752638235348 9.628096768465099 0 0 0
570 1 21.87013163919087 16.840165056487965 10.252174549406181 0 0 0
495 1 20.005704994280652 18.862409160841437 11.47061925613651 0 0 0
486 1 22.80680650320485 19.6905417364176 10.058778964259336 0 0 0
2054 1 26.85107622969081 19.25666285321945 11.358331144191348 0 0 0
1058 1 28.952509655234753 19.473898566033434 9.138152041417428 0 0 0
2415 1 30.94203739457209 17.868710159285087 10.826471451294095 0 0 0
86 1 5.185269718024925 20.65577559091043 11.334523079790463 0 0 0
1099 1 1.8322602394675946 21.525817591155818 12.424492200466863 0 0 0
3613 1 16.967253129281307 0.2065253275058935 8.615713197124059 1 1 0
91 1 13.066787661974551 22.899144835972397 11.925612866965364 0 0 0
316 1 15.228349779613183 21.680366570658332 11.773852084093981 0 0 0
2749 1 1.0674595279530201 12.436771197391653 24.19047479345012 1 0 -1
418 1 19.11065763317099 21.323249706754083 10.56432873049016 0 0 0
3136 1 1.0712714802686962 2.7408510822612215 5.54046246508053 1 0 1
564 1 26.547016040257127 20.908712196593434 7.545139610978292 0 0 0
2534 1 4.082266032558225 3.38747161399131 13.948741821407248 1 0 0
1315 1 8.587783191483032 3.5705951433094287 14.093512566227856 0 1 0
3343 1 6.059647759722793 1.473290050905292 17.37344966526551 1 1 0
2366 1 19.028997632165197 1.3244353460917764 23.14976766332433 0 0 0
1281 1 7.7735717895811804 1.0248567162265276 13.135279813815375 0 1 0
1871 1 20.417455226684073 0.4262807396042529 8.231935340514141 0 1 0
505 1 5.948211020418238 22.233762525353338 21.83768410294442 0 0 0
1868 1 16.419936934686834 2.1225150186103185 14.46244146099346 0 1 0
126 1 19.871001114957817 2.0057990807247217 15.737487533402295 0 0 0
709 1 19.040947865886423 3.3229345435462307 13.376797894569206 0 0 0
479 1 25.255353690435523 2.1459841279646192 14.641915718592013 0 0 0
272 1 28.253396615785555 1.5514010833065404 5.213146667401001 0 0 0
2698 1 1.88916858825857 7.994221573572988 3.4392635131664213 1 0 0
224 1 30.94007261613793 2.598444770544037 13.77052160920084 0 0 0
18 1 5.094802040890163 5.703000170177149 15.591957034049791 0 0 0
1561 1 1.5466007184058843 4.509992488681614 14.634082454588327 0 1 0
1308 1 11.705005016662199 1.4502944137520075 15.358771813012583 0 1 0
1224 1 5.4394127143675215 0.8683722806752482 14.672881573090491 0 0 0
1873 1 14.023341152860604 0.4496258188911834 14.252510010804148 0 1 0
582 1 15.502675935758406 4.859799969691463 14.443248473261749 0 0 0
1736 1 20.277084968381267 5.629288583004228 14.352451780906028 0 1 0
82 1 21.086804295518558 7.064647535688631 12.066195462974076 0 0 0
910 1 27.578201917895797 3.8636214060468212 14.400577396803367 0 0 0
228 1 29.408372014293658 2.832810525593491 16.20610076943791 0 0 0
3987 1 31.425129942030416 5.146630705740316 12.807540686378657 0 1 0
102 1 3.528894308374055 11.020077206182387 14.757725997485082 0 0 0
439 1 34.608484308935004 11.2946478630113 20.55534988035433 0 0 0
201 1 4.836085996700997 8.529241471341384 15.785593152008232 0 0 0
559 1 11.92211953027125 7.280142799035153 16.11304743561448 0 0 0
1038 1 10.935460399165882 9.198680439444775 14.429866807469534 0 0 0
284 1 13.631801929320819 10.549456532697517 15.799860366149748 0 0 1
16 1 18.168249637084788 9.560624857968259 14.894805475542325 0 0 -1
2 1 23.50700296793773 10.242789728338092 13.395526418104915 0 0 0
1283 1 30.92938021531726 8.04438014761868 12.105739209968227 0 1 0
127 1 29.765068356057817 8.454860137205475 14.625837274868378 0 0 0
2119 1 32.78934163709078 6.304461274118107 15.046983941561187 0 0 0
1652 1 31.755236638933464 0.8666915106750106 17.721097407868832 0 1 0
729 1 2.14505016975494 11.17434130703404 19.08039296364146 0 0 0
42 1 3.1801934218964076 12.611599527328693 16.91359654383652 0 0 0
200 1 7.893350030378523 11.693541680166835 14.530967344573329 0 0 0
2424 1 6.717339712791336 9.992087203770621 17.165148643654963 1 0 0
1771 1 13.255238567875317 13.193574642696476 16.783077760953372 0 1 0
1370 1 16.463239962895695 11.510919284570116 16.168263891720937 0 1 1
688 1 18.739746530175026 15.023437063288924 14.501747476696641 0 0 0
546 1 20.404641110806622 11.46585510409971 14.377263607198712 0 0 0
715 1 22.52474371689532 10.816501231497119 16.269978069463242 0 0 0
585 1 25.722227933647986 10.47462306969434 15.813879008443518 0 0 0
576 1 28.53896090703099 10.641712168178694 14.639605330066546 0 0 0
302 1 29.95422141426873 12.382183300573283 16.485946989996123 0 0 0
653 1 32.77302813216421 12.661828208763621 13.711368283044061 0 0 0
313 1 13.620936535854149 20.701754746265703 25.3439782576325 0 0 -1
2432 1 3.463380832149397 14.435969282499476 13.966053670402363 1 0 0
2728 1 6.59409884589162 14.88958255960962 14.325212120626686 1 0 0
499 1 9.013679099320552 14.897494059875868 16.169727309841697 0 0 0
528 1 16.072376587513755 14.082509584294371 15.070089254189805 0 0 0
192 1 13.868429476437514 16.974425498273963 14.429593789471838 0 0 0
575 1 10.904015090098937 16.177536813741817 14.331870273496936 0 0 0
2546 1 14.041799685195357 15.985944624980199 16.994678980173656 1 0 0
51 1 19.91053828203999 16.905245517822767 16.43803709974614 0 0 0
429 1 22.290208726798433 17.59351418382576 14.829443789547666 0 0 0
759 1 25.74751716237357 13.301305357297283 15.603090318310736 0 0 0
704 1 28.03488902216688 15.784749600943776 12.971825635972353 0 0 1
678 1 28.129692331900436 14.834799806856937 16.33869253615518 0 0 1
723 1 30.34426223098066 13.967641930248964 14.050294309270956 0 0 0
526 1 31.559057762929875 16.303459672845253 15.096585724951435 0 0 0
146 1 6.03251276718026 20.150870552128026 14.980242851272669 0 0 1
182 1 8.044254089042914 20.545609397573408 11.636984422753207 0 0 0
581 1 13.412969086689278 19.778776129088644 15.27938998614795 0 0 0
765 1 16.74425629482041 17.76990504664552 14.346413802621155 0 0 0
356 1 18.220739536908273 16.764968639288192 12.05345872229004 0 0 0
1684 1 24.253554657558766 19.557548054291242 12.316147103963313 0 1 0
1324 1 21.1536525123509 19.775641021099666 13.958513699759864 0 1 0
1095 1 33.266256261675615 17.62978105840224 13.251311251128744 0 0 0
628 1 27.743858119606706 18.49207943629355 14.094641092096118 0 0 0
1547 1 23.870252037969593 0.4711200716321961 26.613589682002054 0 1 -1
2711 1 1.463513539823196 10.070221074738868 26.47562356782032 1 0 0
370 1 7.248696069469046 21.1912256438921 27.622357036900674 0 0 -1
1401 1 21.32187182223783 0.3194476573524683 5.328560689239773 0 1 0
2535 1 4.170005134432828 22.01104346162376 13.866963445166196 1 0 0
494 1 6.649332455872964 22.585886952844014 16.70271843758203 0 0 0
1146 1 11.718129946829858 20.74124745664384 13.449911358935548 0 0 0
991 1 8.974018838597692 20.9894621706441 14.45778606279143 0 0 0
1150 1 15.887313618568742 20.62197223938535 14.405955260547776 0 0 0
491 1 18.828462292283668 19.918746231864166 15.594305752514078 0 0 0
2607 1 34.78202241627104 7.789059546755815 13.504988351085064 0 0 0
512 1 26.565749575020078 22.299423136544597 11.946264824040712 0 0 0
670 1 27.536666382868475 21.37679132130241 14.593759804469535 0 0 0
252 1 0.6832091519177964 15.664753587461094 19.190809188897735 0 0 0
178 1 4.601487704344024 6.192310048232743 19.5815896879202 0 0 -1
222 1 15.571924883661072 21.941694611727666 23.313165891256638 0 0 0
2208 1 0.98809280386067 22.927612651766555 24.062127612074207 1 0 0
338 1 9.571716688154318 0.20033505901803905 18.92244646878861 0 0 -1
3660 1 32.61342804912678 1.2274445551274231 3.91798180860686 0 1 1