LAMMPS data file via write_data, version 29 Oct 2020, timestep = 2500000

4096 atoms
1 atom types

-0.07828313800528974 70.07828313800607 xlo xhi
-0.07828313800528974 70.07828313800607 ylo yhi
-0.03276708490798974 29.332767084907907 zlo zhi

Masses

1 18.015

Atoms # atomic

2083 1 15.639504823129412 0.08410633214121561 26.056140260998678 1 1 1
1488 1 0.6980566624772194 1.5932910030796779 13.544282416087782 0 0 1
1213 1 5.7664883630402946 0.00605627197628153 2.797229329759946 0 1 0
2952 1 7.388021218139168 0.20371219779868102 0.35869770947922025 1 0 -1
3801 1 33.95875783133639 8.076587095570238 1.4818338800650912 1 1 3
176 1 11.122873145828194 1.5752062042610904 0.6107637361392281 0 0 3
2932 1 0.14850779206544262 8.814853493817818 20.08616104003165 1 0 -1
2741 1 22.602598082489155 2.135892196423477 1.7461466034477802 1 0 3
3304 1 34.023189105103754 0.21748180279490315 23.155922573532244 1 0 -2
991 1 29.736499358982773 2.4817538937045516 29.25610557881484 0 1 -3
151 1 33.526795195566116 1.2738699447669724 2.391996909361525 0 0 1
1369 1 33.45247351886118 2.1096515185569262 28.939339434717553 0 1 2
2313 1 1.504220883244929 6.191272965871041 29.06479475370771 1 0 -1
536 1 5.681715809360583 4.464652583217575 2.7579819942878316 0 0 0
751 1 3.265631779484393 4.261362400165377 0.9417609474322722 0 0 0
454 1 6.4327809593062035 6.956972401349631 2.7614261549939454 0 0 0
2987 1 8.636389467055913 4.0502882934882845 2.622839477391984 1 0 -1
1751 1 10.534695927298529 5.489408020179122 0.47639159878668375 0 1 2
179 1 13.51668033558869 3.0198749553795396 1.855009855242941 0 0 0
1909 1 16.56592143079696 3.497213500996256 2.4408109326212677 1 1 0
1637 1 16.97825737931018 6.0484323662426815 1.0984848232135098 0 0 2
602 1 19.346596021417596 6.82379444813913 5.031339407217002 0 0 -1
2034 1 18.95879840394368 2.030192614731048 1.161439197968678 1 -1 0
1656 1 23.669122846412623 4.588465848522797 2.716932899538162 0 1 0
62 1 22.465569912136306 3.939210411252471 5.160383479235449 0 0 2
2470 1 26.134792294405393 5.7866315378083995 2.84737050738687 1 0 0
2104 1 27.74719184355807 3.479334621884865 1.9134168692630134 1 0 0
106 1 29.20012234137701 6.180048404725759 2.1308286742178137 0 0 3
322 1 1.87387687439082 0.8290529525194975 23.060806033594265 1 0 0
3581 1 1.1572589252263075 8.794260323186966 0.9685284694080661 1 1 0
2771 1 9.009846942169546 8.96463851105499 1.15104210831064 1 0 1
2788 1 6.227278985527996 7.058576387434303 29.283991637173436 0 0 -1
865 1 12.174407631699864 8.190662597736278 1.2084645888888605 0 1 2
2461 1 15.386987638941118 10.07156504651261 0.7452220101701011 1 0 1
4023 1 19.727769234425992 8.988815850911411 29.312075042097412 1 0 0
1167 1 20.36280091750442 8.041316635064526 2.5741141251136033 0 0 1
2899 1 22.416286244765857 6.683873770079011 1.2803437696166347 1 0 1
3999 1 26.615607289962217 7.56559215839674 0.6326678216367406 1 0 2
3067 1 29.203924118516227 8.66565162510257 0.24398234151782003 1 1 2
678 1 8.959051747619176 22.572645836472134 10.39952601032329 1 0 2
3745 1 3.1552536941013 9.929563343968262 2.2524564942174243 1 1 1
1588 1 5.044607801874894 10.958831473736256 0.6321632691693022 1 1 1
2390 1 3.248334715812446 12.002207920839451 4.0220242903041274 1 1 2
2056 1 7.467480391340742 11.236053633386888 1.7828121034671471 1 -1 2
3689 1 9.27403072064047 13.699363449005514 2.8399766142917384 1 1 1
1075 1 12.477059702906649 10.403476811784891 28.821544584513408 0 0 -2
2339 1 17.522320899770097 10.23834263593555 28.401876656368376 1 0 0
3986 1 17.6334767122076 9.820007706333511 2.4346045814718984 1 1 0
806 1 25.894478282900018 11.049064447866092 1.6815615530189207 0 0 1
1157 1 24.140554919415067 13.45913037362085 1.5484286296153904 0 0 0
519 1 28.250957475624126 13.424445860933707 2.3238567694915226 0 0 0
972 1 30.773152450729796 11.929768898561287 1.3425319651900969 0 1 0
576 1 22.57163078444554 21.29325070454109 26.165426001302325 0 0 0
1639 1 2.737249043978722 14.308748824094112 2.274487296465015 0 1 0
2706 1 20.641828764728494 0.48060986050483323 2.5872253921350326 1 0 -1
55 1 6.459233799685473 16.11480349216504 2.9348959148606792 -1 0 2
3186 1 6.695396243229435 15.275796484599038 0.28701852738772576 1 1 1
944 1 9.996341872550262 15.970837220341036 3.9071410310489583 1 0 -1
2681 1 13.658764313818086 12.583753030739013 1.055191503177116 1 0 3
545 1 16.901041481892495 14.715800675257423 2.7387815946327705 0 0 2
83 1 15.993253497870557 13.873260473727692 0.2778135468548975 0 0 0
3944 1 19.401713887441318 12.427151467303052 1.8026384171501657 1 1 2
1839 1 26.271423489268315 15.586281141931597 1.3228392897668204 0 1 0
2138 1 29.391183434109713 14.975213995517569 4.591555671932329 1 0 -1
3254 1 34.86779463457733 16.07025912673063 3.0537242384263124 1 0 0
1822 1 33.94300996036776 11.88276711012369 0.5705312899868953 -1 1 0
2785 1 33.04607435598308 14.645515014708433 1.4148444116631258 1 0 0
2072 1 34.26592076105413 18.043809801081206 16.399582609231196 2 1 -1
698 1 3.3259673134573147 19.982824979724057 2.4344471150068667 0 -1 -1
1244 1 7.212817049066579 19.19038577790835 1.5779962279816466 1 0 -1
688 1 11.310955625725706 16.819642637545925 1.7379093085027062 0 0 1
3905 1 9.98691485564446 18.896001778028445 0.7306519737620538 1 0 1
3549 1 14.106449367581988 17.312147250423042 2.1582903376128706 1 1 -1
156 1 14.245319413421498 20.07078622427696 2.380372681560602 0 0 0
3098 1 18.3083455713381 17.25916479646909 4.01293282147538 1 0 0
3310 1 20.142703348189716 15.122235302846253 2.8593903180740456 1 1 1
3389 1 21.457194666564725 19.65683446862907 0.9931741091708555 1 1 0
1221 1 26.106273671321933 18.848132121433892 27.939057477338675 0 1 0
1238 1 29.954311366462925 17.32332761198654 28.03877723308755 0 1 -1
302 1 34.85747000716283 18.743793392359102 2.4018656985871236 0 0 1
1602 1 5.139876301471959 22.250824578563396 4.6739842547760855 0 0 1
2670 1 30.008745898895516 0.6101407526909833 20.864568090764806 0 0 2
1123 1 11.43438563769439 20.479542666526882 2.617627200429904 0 0 1
3165 1 0.519731924793479 20.230960476517765 3.6839885916578203 1 0 0
3730 1 18.556992017362663 0.635367915396821 20.344491966791495 1 1 -1
562 1 22.76865035742702 20.414963549599374 3.4535612765386112 0 0 2
3551 1 23.696409177221 19.97839514594326 28.656150362736334 1 1 0
3160 1 25.685424257157436 21.24244130953778 1.0025222327944951 1 1 -1
506 1 30.384665105694918 20.920201706786752 1.9225828141666432 0 0 1
2765 1 1.7930042407371238 2.954944430790715 5.494561140313686 1 0 -2
2990 1 2.6557314865650263 0.5617164767248046 9.003520600628777 1 0 2
1114 1 6.473667020157354 1.6225505478681057 4.858469012844122 0 1 1
1646 1 9.04958604604151 1.730999970436995 4.0718531248696275 0 1 0
1204 1 11.622343189566658 1.0757449819604956 5.272203654249779 0 1 0
2086 1 14.234516691530944 0.3881550476370214 1.2011617147797435 0 0 1
3799 1 17.592972696629204 0.60138332775641 3.623468082437549 1 1 2
1138 1 15.516842517280137 2.1536823880730305 5.2678961738593735 0 1 1
3009 1 20.317404066943 2.4624213484587054 4.978239511928116 0 0 0
2070 1 24.47061305443054 0.8872634090931774 3.362884149403699 1 0 0
1245 1 23.66819746192157 0.2596955079658578 6.191233475966608 0 1 1
3414 1 26.89764885679335 0.6261807932184119 2.3647790591165796 0 1 -1
760 1 32.06685836875764 2.3278720626817253 4.620069705593594 0 0 2
2338 1 1.5539257117015863 4.549734635868597 3.231891585142463 1 0 2
3342 1 9.482503447146994 5.688599606107353 5.033137493236211 1 1 1
2216 1 8.380637819972556 5.478159746468538 7.533746528055373 1 0 1
97 1 12.150129014114079 5.729299050868412 5.23077470390095 0 0 2
2568 1 13.199356784713114 3.2318883705882495 4.443437650916122 1 0 -1
148 1 18.415010674404122 4.163963309575629 4.51614471631395 0 0 1
3247 1 22.694137080127422 6.679870520200871 5.779860610074973 0 0 2
713 1 25.655848020836824 6.146795156216006 5.576911665735944 0 0 -1
2326 1 29.374702201218444 2.5895298449179194 4.195349104186861 1 0 1
354 1 29.507289268030387 4.435923762593428 6.657499531031493 1 0 -2
78 1 31.527031752720173 6.873224533310771 3.689807760904753 0 0 0
2230 1 33.412146787082705 4.55568059006695 4.920426617202054 0 0 0
1134 1 1.5199812553179348 7.186036266813886 3.909528684028664 0 -1 3
2406 1 0.19305709292245643 7.420882282365819 6.400945843166758 2 0 2
2998 1 4.133518340722116 7.923259536497882 3.9001059970340917 1 0 1
3850 1 8.753625518002181 8.164430078941212 4.1203907599885605 1 1 1
4069 1 11.37443592836673 9.444308913947145 3.651117973490785 1 0 2
2126 1 14.171666184453766 8.802932362845974 3.9600999848699296 1 0 0
1809 1 16.76697845152192 7.659263245910795 3.3420411863373003 1 1 0
480 1 17.98193883250843 9.59630226053811 5.80028520863188 0 0 0
288 1 22.230839645320874 9.49396096846174 4.076810434145558 1 0 1
2127 1 28.719782285467673 6.930040912684991 5.18557114237491 1 0 -1
1841 1 27.028671744013888 11.481935608612504 4.3987021507595685 0 1 1
905 1 29.2208949264789 9.449534576005851 4.93267544886634 0 1 1
705 1 5.941212816733219 11.86267859636697 4.38691544813504 0 0 0
1630 1 7.539588191108172 9.775269205893593 5.821453786614829 0 1 0
392 1 11.103024584241648 12.159429499695012 4.025938831800695 0 0 2
755 1 15.233704233778523 11.255598898201871 5.16223191866366 0 0 0
3755 1 17.806334117857038 12.428059301683707 4.10652988540245 1 0 0
15 1 22.071487625875648 11.51973881905846 2.4010492840445115 0 0 0
344 1 20.013072441730046 12.991674744365652 5.504433197573937 0 0 1
548 1 24.605690250386484 10.377644131100112 5.6749423768310905 0 0 2
714 1 32.62459721036506 12.65495253057468 3.687162321234824 0 0 2
2316 1 31.893668260069347 10.686558058524387 5.545658744435216 1 0 1
2815 1 1.2739162395555692 16.183605483551265 4.339665901326639 1 -1 1
2145 1 1.5810834827523774 17.372153778881945 7.012026379099074 1 0 0
2235 1 1.9908950885381584 13.971315441071997 6.148579724563494 1 0 -1
3715 1 7.181102241102131 14.399851915801728 4.910021148577223 0 0 0
2924 1 12.149797556127242 16.3150895264546 6.033027335615892 1 0 1
1423 1 13.750536967784955 13.099902922605512 3.8232351686681043 0 1 1
3275 1 14.596279751602683 15.74336057357382 4.374004932846078 1 0 2
1405 1 17.32753947104954 15.90770889190292 8.35603773250472 0 0 0
332 1 22.620748211140494 13.374740529163894 4.344578246323321 0 0 -2
3926 1 20.15874697204483 14.980826661948774 7.347568064541087 1 1 -2
87 1 29.367251132441545 12.545467639090356 6.155850200993993 0 0 -1
3305 1 26.620646645940194 15.360136239999536 5.852027360223062 0 0 1
1562 1 27.675442234285324 17.66352787694535 0.4461669744114852 0 0 1
2077 1 31.866587204462853 14.26772751475168 6.398941905817727 0 0 -1
2095 1 21.345130215439937 0.5073186202877973 20.148046249068756 1 0 0
621 1 3.938116213505618 16.932332601051982 2.970668271782715 1 0 2
1082 1 4.341652188348622 17.536532009298114 5.960191779244084 0 0 -1
14 1 7.034353254326872 17.279837787687825 6.66497321100141 1 0 0
1342 1 8.35659125527512 18.352793213396925 4.118409024743285 0 0 0
1504 1 11.115671086385161 19.097846064794854 4.972320200181199 1 1 1
3191 1 16.58173165963808 16.82964121338901 6.0122807940228595 0 1 -1
658 1 15.916199460209464 19.43155808325068 6.9682464745505825 1 0 -1
3854 1 22.81401708142549 16.062441539331527 4.336837162612943 2 1 0
1873 1 25.354384089375937 16.895494788483887 3.5855060743403824 0 1 1
2714 1 32.73370345293057 16.380475865491782 4.824612722799429 0 0 2
2012 1 31.10891361351718 17.37593934557693 2.719990534651312 0 1 -1
3357 1 33.79497782018251 18.645921740840144 6.024834818616005 0 1 1
1089 1 18.595355191450203 0.8577662446574666 11.009067581807896 0 0 0
127 1 2.4926316862105926 21.585421481540823 5.3542508532637525 1 -1 -2
3778 1 3.5496679897286962 19.985104702991173 7.4864093986779645 1 1 -1
3262 1 7.256212759675882 20.39539792333597 5.783625165739197 1 0 -1
2620 1 9.572249012021258 22.0895531837252 5.848791317800434 1 0 2
2315 1 13.932058346113655 20.590124971947112 5.147597160270342 1 0 2
2966 1 0.7440999167648931 12.935485271956924 0.5245375141692299 2 0 1
2491 1 17.056174238241315 19.865573644407256 2.9196837020619215 1 0 3
691 1 17.652015410005493 20.85244507347824 5.42016696248377 0 0 0
3431 1 21.015805748874232 18.095994153197335 4.108802381754679 1 1 1
1612 1 20.99161315925613 21.954903135371126 5.385702913957279 0 1 0
1522 1 26.292782428003516 19.589262996430772 3.081780576993023 -1 1 2
2163 1 29.052529066189603 18.994380697961386 3.3905520265617004 1 0 0
1339 1 2.9268705754028312 4.405261403250689 7.978274467036426 0 0 2
1102 1 6.0789682047724005 0.04154406817172662 7.10745089475337 0 0 1
2384 1 4.458440908528297 3.689857287070947 5.084903180127819 1 1 1
2811 1 4.901825899169926 2.3928858978726972 8.786949302140046 1 0 2
1792 1 5.092855052322646 22.538015771569107 7.82355035228207 0 0 1
3228 1 33.979059873205124 10.52348534902134 16.92023419278734 0 0 0
335 1 11.242344048391306 0.7007450691176759 8.119566022682806 0 0 1
191 1 14.189398115091846 0.26078273732571816 9.101979871663012 0 0 3
848 1 14.697390521479168 3.1242354244033996 9.051349049007676 0 1 1
3148 1 19.5252591454806 0.9848596642285857 7.335678915537663 1 0 1
2267 1 27.87284721179655 1.3447892896634392 6.3556285459078 0 0 -1
1731 1 32.27925401379839 1.6630921131686582 7.258060903043113 0 0 1
3130 1 3.054849346296216 6.508213541035269 9.923374340186937 1 0 1
323 1 5.605221136340441 5.577153555510394 7.063863451483179 0 0 1
2108 1 10.273111071535265 3.3718081809252696 8.510076208873617 1 0 0
1338 1 12.878740714570377 4.736180988597807 7.690121022214414 1 0 0
3508 1 16.713785025355968 3.9965450895286967 7.192664848820699 1 0 2
926 1 16.71547255375108 6.652510082822902 6.473652933589922 0 0 -1
3779 1 20.66274964473962 4.13470536193583 8.912783934683006 1 1 1
299 1 20.77423068700545 6.591999031490845 7.832448430439792 0 0 -1
2393 1 22.782415203028993 2.750106521033825 7.928037511442934 1 0 2
483 1 26.503098505324694 3.8691594309070663 6.954329197221889 1 0 1
3096 1 27.493718876637644 5.5712427277544405 9.168690711602487 1 1 1
1547 1 32.14222133338996 5.870835469536416 7.115041038842586 0 2 -1
1224 1 2.657458944855066 8.672622184289427 7.875307526146196 0 0 1
35 1 4.915853914913256 8.33170767912571 6.576331979978589 0 0 0
3223 1 4.011866256429283 11.019877693480566 8.810639521241312 1 0 0
3935 1 6.857124825501871 9.336442658854612 8.84891075000882 1 0 1
3010 1 10.942016485941416 9.066471498558531 6.608194361304794 1 0 1
3233 1 9.289573047831766 7.961858007235242 8.495490134488552 1 0 -2
787 1 14.143249061653897 7.638188287387778 6.290745892003949 0 1 0
837 1 20.613719994742915 10.411263979955752 6.409259282009944 1 0 1
142 1 25.71363341359347 8.364687867658903 7.2996247307169275 0 0 1
3298 1 29.707070234060424 7.47990017644475 8.195580731088869 1 0 0
1179 1 34.53261340222766 7.342863522743687 7.011901163369159 0 1 0
1607 1 21.560690875009325 22.58807415855363 9.187023845662296 1 1 2
66 1 1.9746087575779583 13.942183766764646 8.913425172516835 1 0 -2
2970 1 4.851683936115244 14.48652534476937 6.4466389555719505 1 1 -1
4078 1 5.944816546515272 13.290115490546771 8.621142096489844 1 1 -2
1642 1 8.310756335036658 11.645950265590306 9.391691196097039 0 1 1
1728 1 9.536810863732757 11.356382209496424 7.012150188161346 1 1 -1
3309 1 13.791736710943013 12.426602853198327 7.493129775463456 1 0 -1
2743 1 12.952166216386827 10.007193972274457 8.588652579462108 0 0 -1
3699 1 15.93746381012808 9.91212399556026 7.9355461814926205 1 0 1
1739 1 17.326649797728432 11.930566117405641 9.862358696270832 0 1 1
116 1 21.61797013490021 11.28829618902877 8.787835489882854 0 0 -1
2799 1 25.10253806307609 10.30233581255119 10.291098942705371 1 1 0
1532 1 24.02253542004673 11.954753750323952 8.184504629962136 0 1 1
463 1 28.054382862890304 9.855204668624573 7.619977690823869 0 0 0
2988 1 28.103755054017967 11.516199156002296 10.115167690534072 1 0 0
596 1 32.993134407498935 11.26441331728729 8.002854470529568 0 0 1
3409 1 2.0434965278909853 16.769517621627788 9.62450686431067 1 0 0
3312 1 4.184846349796984 14.254515356586916 10.523502093724254 1 0 -1
1266 1 7.728741450564069 15.36886327444299 8.71364276717126 0 0 1
556 1 11.35189336655976 13.47067538873547 7.040076864442701 0 0 1
1337 1 10.275864896342243 14.532831906861807 9.328751254837613 0 1 -1
2863 1 15.471367359479393 13.895151334435218 9.026619056793093 1 0 0
1554 1 20.368558456012867 16.306571982413555 10.091875792472386 0 0 -1
3567 1 19.908328027678767 13.101967169528718 9.576544101024847 1 0 2
1442 1 24.606831265018393 14.515387152034776 8.020624297977477 0 1 -1
553 1 32.29409558128816 15.946055131773562 8.651830609935988 0 0 0
1411 1 29.458143103909787 16.311365837723557 9.364893807953992 0 1 -1
2778 1 0.520380184394029 10.777690115361631 9.040615017887003 1 0 1
173 1 1.2421158396837777 0.35101471907278875 6.686522991813016 0 0 1
3390 1 9.60686003640899 18.82653297158982 7.7412630777936435 1 1 -1
558 1 11.321552337344805 16.85027911186207 8.678315788724946 0 0 1
2619 1 13.880825195374525 19.555767302977053 8.887045039990566 0 0 1
2334 1 13.219074662818665 17.55135807473173 10.459705634133144 1 0 0
22 1 18.12052267993651 18.955369537002966 8.76529530648569 1 0 3
531 1 22.5628158711865 16.07203487309011 6.891119728636225 0 0 2
2217 1 23.242135115648896 18.933808379270847 7.358263553660172 1 0 -1
3207 1 27.926589076516546 17.259161884394516 7.160891834837222 1 0 2
706 1 25.708638480094944 18.20101207432144 8.812212681834312 0 0 0
3057 1 0.9958824495439326 20.564313225067163 8.551685497209467 1 0 -1
626 1 25.976343051426888 -0.0024359331657999644 12.676956736199443 0 0 -1
3219 1 7.490248465899648 20.798009542412974 8.773674997278773 1 0 0
1301 1 1.2143883736330157 11.08500909361179 6.238694793374851 1 1 -2
2508 1 11.719911450943505 20.9702329093518 7.53388720299504 0 0 0
3320 1 15.29654066707966 21.635308604609897 9.941864195413046 1 0 1
4080 1 20.055491846199608 19.368232386582882 6.532032483166312 1 0 0
3609 1 17.2326202264565 20.384984044151672 11.037210731330797 1 0 0
2201 1 21.055437398904218 19.85002865472495 9.252788494993446 1 0 -1
1446 1 24.851585748185432 20.08908085139893 5.434079806331173 0 0 1
3259 1 27.028861080714908 20.708081545764117 7.01706795707029 1 0 -1
126 1 29.281512354486807 19.384720088200627 6.0875923733534805 0 0 0
2380 1 31.60873781355497 19.78896625809048 7.594809848999856 1 0 1
2097 1 0.573995839800063 0.6026584856987395 10.77926478775639 1 0 -1
695 1 6.173414868733833 2.6455598570377368 11.243200745504838 0 0 0
408 1 8.811670577701614 1.9955982547003468 10.421062349091994 1 0 0
253 1 18.487040220087536 2.9218946325749435 9.117206635636592 0 0 0
3908 1 21.380013102875605 1.2975371403014653 10.579716858600536 1 0 2
3082 1 25.047349936776378 3.480522543445992 9.742311473696486 1 0 -1
2852 1 26.020212600772314 0.8007343726973453 9.937131793963337 1 1 2
1216 1 28.615260565876248 0.7767567470676287 10.70531566200829 0 1 0
3906 1 32.11892736387148 0.4331588080396453 11.523357609367597 1 1 1
3836 1 30.134413253811452 3.0540871722784693 11.59508710725741 0 1 -2
1173 1 24.41551605835614 21.765632060190217 24.32944288286888 0 0 2
3723 1 34.57532486239107 2.032045572358757 10.725711607095956 0 1 0
1718 1 2.543221003871842 5.415951632456545 12.381439149440258 0 1 0
2499 1 6.010004709005367 5.21074812521561 9.946278317397452 1 0 1
3907 1 8.82986691700105 4.47250875440085 12.518368627997608 1 0 2
2272 1 11.171617181563342 4.6580233267301665 11.087515175066342 1 0 0
3826 1 15.30867344625955 4.43914934690095 11.535644251013924 1 1 -1
3455 1 17.458947172624406 2.7894428756336036 12.708763208297427 1 1 -1
2942 1 22.48944501761285 3.916367407631462 11.265580512193614 1 1 -1
2189 1 22.411682896269955 7.283269373402029 12.791847923244589 0 0 1
3434 1 26.317854926574224 4.8723672728877805 12.01540203000294 1 1 0
3741 1 30.293587192705957 4.976633241418676 9.979386168403884 1 1 1
552 1 32.74620273857852 3.790651527004126 9.19894637644247 0 -1 0
2213 1 3.468875602278997 8.69144027603584 12.532166842306035 0 0 1
2228 1 5.945668738584964 7.674948366138768 11.200397134193068 1 0 -1
3740 1 10.9155910778486 7.3132572405394765 10.731511349373463 1 0 0
1012 1 13.396061351200107 7.278578276461507 9.332073507761567 0 1 1
2078 1 15.882012467380187 7.102298555333092 10.789934537201175 1 0 1
1778 1 18.072828833040358 7.674839204390325 8.717345428858074 0 1 -2
1449 1 22.31421498281373 6.768206478899292 10.068295100354494 0 1 0
310 1 25.188000805653957 7.377299373502715 9.810962677996956 0 0 1
4037 1 27.09323637368333 7.801531675534634 11.948855573507744 1 1 1
1022 1 29.78089835534733 9.249792251304957 10.360438811391852 0 1 0
2846 1 30.960173064116557 7.093835220426063 11.508424431964096 0 0 1
1927 1 33.64651481005816 8.14144832727142 11.121417400846642 0 1 -1
919 1 18.482510578944517 20.114877959764787 0.41700717748938404 0 0 2
1189 1 2.3104936502734112 10.656239826518489 11.23725805393525 1 0 0
2756 1 0.21819945417017655 12.851057620173496 13.215992179376778 1 0 -1
270 1 9.904518054367058 11.66002542159439 11.838591247273726 1 0 -1
2141 1 13.528046610858757 11.29274611831836 11.104641397399204 1 0 1
3362 1 18.117250129488596 9.479399839784902 10.871402777630665 1 1 -1
162 1 21.149295055796404 9.456680676695855 10.751103802081225 0 0 -2
2976 1 21.87774629284775 11.46485187446382 12.879622018003442 1 0 1
445 1 24.699101006200458 11.199417057490367 12.80098089204771 0 0 0
3913 1 29.010110418278256 9.814813833424276 13.158385317869625 1 1 1
1083 1 31.632516320837006 11.81253621381968 10.27632773917479 0 0 1
2423 1 32.92465343311537 10.481702782528755 12.176979989274372 0 0 1
2413 1 9.310938776971813 0.07006788479173047 2.1217630620324957 1 0 2
2671 1 7.39436822480912 16.72947699344684 10.939135230576166 1 -1 2
3917 1 11.663560197221013 13.799004891958493 11.724503023906577 0 1 -1
2452 1 10.976954013950335 15.728674664689054 13.262675184971831 1 0 -1
397 1 14.226091130637409 14.910515899488093 10.914431041520185 0 0 -1
3179 1 15.873300084848946 15.226467721766094 13.168758783962215 1 1 0
123 1 15.910938224804305 12.481856171291136 12.32193200528395 0 0 0
4081 1 20.679354329879363 14.135026805701633 12.286770407040708 1 0 0
943 1 23.933900937585022 14.238691762813193 12.893348436969717 0 0 0
2473 1 28.03166767090069 13.807603468976815 8.260372661235351 1 0 0
2569 1 27.99209413795385 14.925697035572155 11.670295561190402 1 0 -1
3428 1 30.563000683556478 13.673247525229833 12.600405717692134 1 1 1
3707 1 33.53230983981809 14.006201320257976 10.827844678819593 0 1 -1
1184 1 32.619732546730326 15.942388962060763 12.78895969491303 0 1 -1
1106 1 20.647699336968024 21.96239972457928 28.474877099164775 0 0 1
3077 1 4.605524023777391 17.251169094509642 11.060256617060446 1 1 0
2052 1 8.73769427975045 19.11810979965125 10.740573631234518 0 0 -1
3153 1 6.617996795648503 19.744810163025797 12.945323162284744 1 0 1
2005 1 11.06528781032686 18.17153775410156 11.985080228238775 0 0 2
2748 1 15.232237854887085 18.547385162356342 12.0963924936488 1 0 0
3936 1 17.79235522317132 16.846236940762772 11.156350133157515 1 1 0
1920 1 21.810570281263164 16.96771367086824 13.112859973488005 0 1 -1
538 1 18.940456953467514 17.66036442759612 13.413191705069696 0 0 -1
3988 1 25.086221529344616 15.50241579077505 10.727289241968998 1 1 1
2090 1 23.10337274719687 17.423513243975968 10.655155483639076 1 0 -1
1128 1 30.517690074896397 18.822546994709462 9.917341367862322 0 1 0
2399 1 33.021083227718066 18.64631231163763 11.553916844593651 1 0 -1
1410 1 1.071157960891463 21.636337682527586 11.27473247978072 0 0 0
2865 1 5.143900693314147 20.097442249543995 10.418110518644122 1 1 0
2638 1 3.5565462036677187 22.11112865672878 12.132934379805677 1 0 -1
785 1 8.938805543207017 21.668304411155177 13.006731043356769 1 1 0
2575 1 11.417364239490336 20.67615541190841 13.180628003226836 1 0 0
800 1 13.26356483136658 22.375884398253707 11.819421005605674 0 0 1
1635 1 14.032137088353313 22.405662459773506 15.047369852992434 0 0 1
2503 1 16.30237861718489 22.306684740969114 13.531188419546195 1 0 -1
453 1 19.307734072155004 20.70702468366848 12.889285262079472 1 0 -1
1028 1 23.644354560559528 23.05322787137197 2.294376082825542 0 0 -1
2675 1 24.70376495732435 19.3223837924895 12.15379267240424 1 0 1
1585 1 26.3199056924677 20.62665387333731 9.931109749349975 0 0 0
1946 1 29.02576084148135 20.94830747727392 11.248850439637648 0 1 0
2783 1 3.555446723272307 1.8273945018936424 14.407899946728405 1 0 -1
2026 1 17.735369264431853 17.182507749601427 1.0485103613712818 1 0 1
3291 1 6.2033886750976075 0.11314428222179049 12.630022559974783 1 0 0
502 1 10.4256461147846 0.952012656168681 12.586068939404777 1 0 1
2421 1 9.684504483290592 3.0246844412130476 14.887610475566147 1 0 1
3865 1 12.46094126840682 2.182596900736502 14.48097513651474 1 1 0
750 1 15.334688248128648 0.9246873822374057 13.734791099719148 0 0 0
2814 1 25.74300044895133 1.650389200773107 15.19669511926322 0 -1 0
2666 1 28.391380743872784 2.730414339888404 16.09086081820482 0 0 1
676 1 32.06047676310584 2.9481408466356926 13.756403908757434 0 0 1
3101 1 34.61433260224938 1.4011819181668375 13.518854039920104 1 0 1
3078 1 0.07900069264819001 4.415234604000363 13.071068391704474 1 0 1
1422 1 4.6618709990722795 3.985165181690544 13.33671800484569 0 0 -1
1941 1 6.80023855375268 4.283000326907457 14.953354005685192 1 1 -1
2961 1 11.165098944630175 5.6750773942402 15.573427522619944 1 0 1
1700 1 13.137258303792963 4.894426489324667 13.373331598856874 0 1 1
914 1 14.996016619320196 6.13036347005974 15.084046585432402 0 1 0
623 1 17.31709629043914 4.245694000906909 15.892833703441635 0 0 0
2579 1 19.301193476007068 4.256647685744537 14.101540988609695 0 0 -1
2800 1 21.9829776647263 3.2572584555739073 15.90785953838548 1 0 0
251 1 23.505564529520804 4.719186569093294 13.94304979943799 1 0 0
100 1 25.64331987529005 6.19612494847302 14.818897555458232 0 0 -1
3652 1 28.419528494245125 3.8750753260452377 13.443236318095865 0 1 0
3767 1 32.32809683053216 5.737798663743445 13.918820978585279 0 0 0
2015 1 4.299956652557758 0.9540033220743327 21.42324400716889 0 1 0
1166 1 1.0995291315494857 7.633857453992786 14.240206269175362 1 1 -1
2482 1 1.1735430137619463 8.708154996074468 16.62663240706126 1 0 -1
1576 1 5.2064174476044505 9.12642357181126 14.747763776988831 0 1 1
954 1 6.990056723573494 6.9595701842231446 15.274989765978846 1 1 -1
1443 1 8.25259901873511 7.161221383559535 12.491405233491376 1 1 -2
2362 1 10.578566778917345 9.1601402533241 13.164557366870973 1 0 1
3994 1 9.44389122821449 7.955928521364602 15.557422444448232 1 1 0
1626 1 15.434525196714937 8.213223475452752 13.386111756828402 0 1 0
2353 1 18.076311772672778 9.167678924079375 13.549425380513853 1 0 -1
3828 1 19.959248398246054 7.272780606371117 14.21352174892147 0 1 0
2047 1 24.674847467255955 8.520497929317735 14.017576891876319 1 0 1
3832 1 29.419070455049056 6.45061156635479 13.756573419406566 1 0 0
1697 1 31.740653179221198 11.820700848674331 16.578569080549798 0 1 -1
3863 1 13.979201079361225 20.76612949655559 28.955442674376254 1 1 0
1240 1 17.00555390273842 0.07451351498076761 0.8011008912293476 0 0 -1
2921 1 5.54573883793957 11.798317609178058 14.220760993722445 1 0 -1
781 1 8.027922043269552 12.7204019760868 13.781337509254593 0 0 1
1530 1 9.984473071980212 12.428112556336542 15.664865103500096 0 1 0
1641 1 13.3449245304663 10.13103387535026 13.533751969561324 1 0 -1
1208 1 12.986219879739743 11.516264165768373 15.866561749556345 0 0 -1
569 1 15.426218503523877 11.469848016863036 16.780460850199205 0 0 1
1850 1 17.480461849962065 11.660811919999237 14.641770322079768 0 1 1
1779 1 21.265125133270267 11.115944405115567 15.346558861066484 0 1 3
1918 1 23.404436755064964 9.693773349944522 16.498043899495524 0 0 1
1935 1 25.73647096412481 11.5688215801026 15.74194199195495 0 1 -1
514 1 27.597531119684742 12.340035389616007 13.069525865882095 0 0 0
3632 1 27.23770088520156 9.143833597316886 15.451409216331687 1 1 1
3956 1 31.56482969282078 10.218676118697056 14.459233986316558 1 1 0
2734 1 3.4387172213852235 12.638988399456101 12.856113252866285 1 0 -1
2058 1 3.945619568004825 14.940111894709466 14.746592306625397 1 0 0
2524 1 8.093564945674155 15.610875632226017 13.203111048908404 1 1 0
3818 1 11.721602068620964 16.141878596204787 16.016868951024062 1 0 1
3561 1 14.124209308542467 14.316113654097423 15.588046459307664 1 1 0
792 1 18.71201311991954 14.263591152473772 14.323093171813204 0 0 1
3171 1 22.496246458207025 15.225224875544617 15.33527516041639 1 0 0
1707 1 25.23153116290738 14.392623257272655 16.045505129343304 0 1 1
2308 1 29.963752330466487 13.479541370933369 15.161671474564164 1 0 1
4017 1 34.017561473387374 15.679092572815476 15.022786829446765 0 1 -1
2484 1 6.160750119713114 16.166338568893696 16.40947672380179 1 0 1
3959 1 3.304358890566406 17.33050718687762 13.490913477110675 1 1 -1
2986 1 3.2902628034299664 19.236664343348018 15.63608400757268 1 1 1
2414 1 7.700876734842086 17.736625343592287 14.78018616976495 1 0 2
2121 1 9.962047087625626 18.503238122103152 16.10403836768833 1 0 0
2174 1 15.593257903765979 17.715080229166627 14.7671911192871 1 0 2
1634 1 13.594440698537657 18.364208592302877 17.077572312829034 1 1 1
3103 1 17.771979672720484 16.263008330469685 16.07962785821807 1 0 2
3314 1 25.18869826172761 16.96215068149008 13.693185601087386 1 1 -1
1999 1 24.24822238172719 17.928128359476556 16.354346492877756 0 1 0
2656 1 27.871685227464376 16.958375529948874 13.463996850999933 1 0 0
796 1 30.671882332287435 17.63104009027352 14.027545827471803 0 0 2
1047 1 1.0135044189956208 20.609033385028702 16.625037192535004 0 1 -1
2059 1 4.779388008505264 21.112815641451228 14.315085848840658 1 0 -1
3644 1 6.1719675221718715 22.661690287691975 16.318424957710533 1 0 1
3553 1 16.336545846039304 20.22668329599678 27.698635233889263 1 0 0
2695 1 11.949313261212849 20.351723846397935 15.769514172752263 2 0 0
1177 1 0.09647687990491738 20.907539291678944 28.98958686207725 0 0 -3
3277 1 17.725258705356545 20.175608479368787 15.266260690889775 1 0 -1
3517 1 23.320438644342445 21.317420751567187 13.584517363367647 1 1 1
3946 1 23.021438241907166 20.4280134180706 16.163044679171723 1 1 0