LAMMPS data file via write_data, version 29 Oct 2020, timestep = 50668

4096 atoms
1 atom types

-0.07828313800528974 70.07828313800607 xlo xhi
-0.07828313800528974 70.07828313800607 ylo yhi
-0.03276708490798974 29.332767084907907 zlo zhi

Masses

1 18.015

Atoms # atomic

1261 1 22.182523249191043 0.7525475105492948 10.662974566682129 0 1 0
1451 1 22.37188296712647 1.2755748594291156 3.527277510153503 0 1 1
656 1 25.862985217408134 1.1884560297643314 7.363248965069873 0 0 0
3668 1 14.349873510282077 2.4993484806682122 0.38799702470029906 1 1 0
1411 1 18.136311793019836 2.22756128105377 2.872241951843713 0 1 0
760 1 9.622568051028397 0.22562655806024157 28.3039175791549 0 0 0
603 1 34.15513951859347 12.385240953960352 25.165022008703083 0 0 -1
1857 1 14.690458757911463 0.35711775499658155 11.523533707072177 0 1 0
748 1 26.81123598659365 2.8819036645885676 0.2897696820283507 0 0 0
2514 1 28.138252013696313 1.8299823673334055 2.5700244286038054 0 0 0
3786 1 32.613809273572336 4.159826986891075 2.3031689471993455 0 1 1
2193 1 5.209545448082677 5.804812863614007 1.4539586584130135 1 0 1
710 1 4.885076041462633 3.7782932638469893 5.4446737061898665 0 0 0
473 1 6.567318501541017 3.4090826455318273 1.2737656669006734 0 0 1
2000 1 9.338531044399545 2.442867941698965 1.0375225280251505 0 1 0
395 1 11.722330637773124 5.573401984776312 29.266947560262437 0 0 0
91 1 15.430187792285658 5.4331349986976 2.682415877068525 0 0 0
1654 1 17.971583343116855 4.813542515164628 1.487812904899358 0 1 0
1565 1 20.318729137653275 6.209365545534279 1.8827334777582594 0 1 1
1547 1 24.715075560488614 4.863757964415492 0.7239005470564238 0 1 0
644 1 21.92223434881768 4.358077238632555 0.38130580717697893 0 0 0
136 1 26.388798904230047 6.168165920909848 27.965422831897072 0 0 -1
291 1 31.31878410894037 5.373886022519516 4.639950726915541 0 0 1
16 1 15.225225641314815 -0.004834668653017515 26.023421258561612 0 0 -1
1291 1 7.157856914246275 7.548307399308708 1.9015962622170601 0 1 1
502 1 6.2995463440304125 9.805330841768995 3.5441554085275158 0 0 1
120 1 10.831557548273754 9.44149458590079 0.42938542469860325 0 0 1
240 1 11.492639505148702 7.9018676895599285 2.5320603775452892 0 0 0
630 1 21.540450052695984 9.917771731673584 1.0224588314025724 0 0 1
964 1 23.963402586424237 8.645850501011148 1.281735902296035 0 0 0
2591 1 21.98194229806054 6.998181828696499 3.879517233235066 0 0 0
1586 1 27.27899484325846 6.232805603747528 2.660486273729804 0 1 0
24 1 30.13384168553318 10.10104988337707 1.461300582065503 0 0 0
2245 1 32.036577840600806 7.9196395806774404 2.8552749266189053 0 0 0
813 1 2.4434753246145857 12.99980216224542 3.978571929537833 0 0 0
651 1 4.0459945588776725 11.682653999103406 0.4455448567551163 0 0 0
2535 1 8.385361668319291 10.75397518213587 0.28712974834232785 1 0 0
466 1 7.974357271453993 13.66548028181392 29.249565814628554 0 0 -1
126 1 15.541717629468398 13.138366314500384 -0.0214744499330917 0 0 0
122 1 16.374286479678478 10.89450971701475 1.6254601405195779 0 0 0
2635 1 20.869903485463652 11.278305041940115 3.2894226768509833 0 0 0
455 1 25.488492723791765 13.14777028334698 2.163529567112403 0 0 0
2164 1 27.534582225925238 13.32954997209721 3.862456325646151 0 0 0
2564 1 29.477383454123103 13.020132310381099 1.4774601529352331 0 0 1
2751 1 34.384029190720604 10.08349892728463 21.56101819201328 0 0 0
2328 1 2.1907095611613316 16.06335621497482 1.033092335073391 1 0 1
494 1 6.274831202378311 16.70951368855223 0.11845415367536369 0 0 1
2713 1 4.817255033942358 14.269765490311675 29.198921478109362 1 0 -1
2102 1 14.803214302902045 15.081679416386061 1.6092842620090122 1 0 0
2078 1 11.894322561555136 13.718731770191019 0.9464699241954712 1 0 1
819 1 17.141009155201882 15.559237991225897 3.106744906706876 0 0 0
134 1 23.384937524963362 14.846269414785466 2.732500255343421 0 0 0
335 1 21.795832053105535 15.911642548000488 5.581938886939354 0 0 0
251 1 24.827249018133834 17.06834881495534 3.5950543837568785 0 0 0
226 1 27.391915045508583 16.772595310285336 2.6317914493611503 0 0 0
4 1 31.107205473135473 15.356481238399654 2.669819655911454 0 0 0
104 1 31.869598185636185 12.269599916647028 3.7307729143350556 0 0 0
658 1 0.7619320250026574 18.07296302099231 1.8647935553508432 0 0 0
1985 1 19.914177227356635 1.0072757421617764 14.073906646740935 0 1 0
1076 1 6.039697180757162 17.852782958067188 2.563911867357432 0 0 0
751 1 9.888042769046058 17.015628390690715 1.8098292879239597 0 0 0
129 1 12.541257727378438 17.23434672356251 1.4796917051537066 0 0 0
79 1 13.22123873872538 20.020731430013697 2.0355377266275565 0 0 0
333 1 13.441926680770605 17.93050549591781 28.09395839456561 0 0 0
669 1 16.005536145927906 19.56884658484687 1.6220747769394381 0 0 0
483 1 20.09831269510525 17.25242640210291 3.2766415707862175 0 0 1
275 1 21.448859253587326 19.238147850210954 2.330597335956078 0 0 0
465 1 23.71082635050155 19.44244466379203 3.9579224003531426 0 0 1
1240 1 22.696511546510646 18.66274755691321 28.91823664274419 0 0 0
2475 1 27.75964848363489 19.720459427139502 3.152433816713809 0 0 1
332 1 28.823411382976552 19.05956765003783 0.3581449144312273 0 0 0
2127 1 32.46217694691763 18.753357600105744 2.4986237392193353 0 0 0
2902 1 0.2291988385851763 21.757209266019 28.83460740656396 1 0 0
1023 1 1.5760214052072388 20.89366197661465 1.8110126782306137 0 0 0
61 1 4.440539449526321 20.223755150485868 2.280243257476704 0 0 0
109 1 9.814994056588183 20.61301655590178 29.108401136496163 0 0 -1
174 1 12.684262009269164 20.78693096412923 28.47348148287538 0 0 -1
211 1 13.960167357268226 22.94998300321807 0.17426246167963977 0 0 1
72 1 18.12965496865036 21.09135138470393 0.46628458460810135 0 0 0
1298 1 0.937723451649036 4.155347659196125 29.27706866644523 0 1 0
310 1 19.945812789113663 21.694066427237708 2.8504932483494367 0 0 1
1058 1 25.586118669891743 21.16440357256744 2.996160056909029 0 0 0
1051 1 24.676902738837722 21.207109099094705 0.500952401368677 0 0 1
182 1 31.44436371865482 20.214974980257324 0.022606316254599836 0 0 0
4075 1 0.25366653835685726 3.3667983516052957 4.64285027924383 1 1 1
362 1 3.118031473596708 5.780696257781211 8.979383791675543 0 0 0
2062 1 7.55709099633248 4.247029589600157 5.185169945226666 1 0 1
206 1 5.894785295732597 1.6866317596093174 3.37145357151653 0 0 0
464 1 8.844308096967776 2.0559854695970246 6.764961339671954 0 0 1
1610 1 11.089677008068229 4.876703201432493 2.563172620806438 0 1 0
2801 1 34.19309281894241 3.3500775033565877 11.910987257043217 0 0 0
205 1 16.290894793912692 3.3634905387295877 4.549822456524865 0 0 0
1277 1 14.096496507198207 2.039441652413907 4.728384816238829 0 1 0
4021 1 6.742236694737366 1.5069454440622845 9.004582387068421 1 1 0
552 1 25.045385414247956 3.228631681866288 4.690850852111584 0 0 0
1485 1 25.405383511236902 0.9230913433267285 3.35551607352088 0 1 0
1198 1 12.134181304070442 2.1540163672229156 2.497536768363226 0 1 0
2596 1 30.114433615515285 1.1172594623092826 4.779244516549144 0 0 1
1640 1 1.117424182091424 5.193140890369938 2.684747530922481 0 1 1
803 1 27.040449063610755 20.823048224912828 28.3676400090555 0 0 -1
2753 1 3.64641082088598 5.707097347713749 3.6000045741217015 1 0 0
1954 1 5.94461637572123 8.544611361588451 6.024433456690818 0 1 1
2106 1 8.40517392585652 5.170320096931099 2.98893697414615 1 0 0
1727 1 11.801365262886414 5.603138808474935 5.431338604051905 0 1 0
616 1 15.248081618129365 7.9625473248871526 4.25040445148072 0 0 1
441 1 21.080306316920527 5.445713770686121 6.063651149598807 0 0 0
83 1 20.236262518535653 2.6329244633183144 5.281120447198918 0 0 0
1618 1 22.911083069207603 2.8659592923691446 6.55591392142022 0 1 0
391 1 24.48389507402579 5.860732148323322 3.334429792293001 0 0 1
1603 1 27.466021146553366 3.74737337102354 6.053497237899999 0 1 0
2267 1 28.97134967553874 4.261512869889361 3.595891108242719 0 0 0
96 1 33.06721861757149 7.688726207773648 5.5675094502024125 0 0 0
966 1 3.7959534223309292 8.66241238289967 8.590353203867771 0 0 0
139 1 3.5045697689079924 10.40947862016878 2.9560650558147996 0 0 0
228 1 10.691117621242594 9.918301233152135 4.472969791114272 0 0 1
276 1 9.999356949631983 12.427371694043698 5.905540957131053 0 0 0
1337 1 13.793679013835298 9.672092892068344 2.3001304531368154 0 1 0
1424 1 18.021956132442305 7.302703758744898 3.791949642836896 0 1 1
2 1 18.627856036976343 6.704240199729546 6.473501072602735 0 0 0
1543 1 22.269985163427908 9.478348612697758 4.71821793972757 0 1 1
355 1 24.56070410760336 10.575547780092593 3.789700223429166 0 0 1
2579 1 26.970146066213186 8.8222799277617 4.0863682485399595 0 0 1
125 1 26.87429022910467 8.653455914009127 6.884335364912036 0 0 1
375 1 32.53136305855402 10.511787928743408 5.80513914358224 0 0 0
750 1 6.828126737286858 13.851593483027898 3.7750769851315544 0 0 0
2794 1 9.6279809193367 13.98054717063533 2.556249506526818 1 0 0
2152 1 8.513298189370298 11.08156276526517 2.9970969123836815 1 0 0
2388 1 13.205098643184925 11.19914114914795 4.362512487649189 1 0 0
1777 1 18.368656549276384 10.241970325357986 3.4910638040852113 0 1 0
94 1 17.342240340780886 11.325924105892366 5.770645021655727 0 0 0
3565 1 25.257652067217382 12.98036447223464 5.842843462361715 0 1 0
682 1 22.461350396231698 13.228079420562072 4.593576137026231 0 0 0
2518 1 29.678147327712658 10.612951153154757 6.657921289918577 0 0 0
2508 1 28.68734119102071 10.773485435088437 3.784742996050649 0 0 0
1999 1 0.13783583497268243 22.081021964153813 4.333656442513598 0 1 0
380 1 7.384858039215746 12.828518547542563 6.349322567028623 0 0 0
18 1 7.635653286704043 16.540752203078082 4.352052485028241 0 0 1
30 1 10.581729331309955 16.960633834768174 5.144996571911068 0 0 0
199 1 14.011076395164313 13.801003067467986 4.074147195857497 0 0 0
741 1 17.679885233666553 14.289266842083498 5.414531368837273 0 0 0
576 1 19.5155282904478 15.425757450079853 7.130118264425239 0 0 0
1130 1 19.17735295150958 17.94452446644341 7.732099875538321 0 0 0
514 1 21.92037258682837 12.955185420695056 7.347942065136012 0 0 0
1087 1 26.286113567392384 17.371426571879212 6.192362024064801 0 0 1
984 1 27.794574622911686 15.49659876843829 7.54054263860956 0 0 0
77 1 29.049121042395495 15.633761081619298 4.706350539784807 0 0 0
64 1 33.62689090973156 16.183902280669574 4.38382961626513 0 0 1
752 1 32.08564698932942 14.37456827514956 5.937938175658298 0 0 0
19 1 24.12436575528244 19.670060714987258 26.810803001665143 0 0 -1
657 1 20.66495175760306 1.771675157636958 23.2483158588215 0 0 0
1134 1 0.6884798137323386 16.046940190076498 6.916475028210045 0 0 1
343 1 4.295075684770864 14.78007852661639 2.947723713386836 0 0 0
531 1 13.105887682972236 18.460284643225375 4.545842269053553 0 0 1
830 1 10.012331904889281 19.782215413097845 4.482613992657878 0 0 0
2384 1 12.869272976059978 20.119649223681705 6.884808203899874 1 0 0
599 1 17.001055992246474 18.198644012412156 4.0401071032074585 0 0 1
105 1 23.576712207923052 17.101161923842042 7.45592259421684 0 0 0
358 1 22.412346576456496 19.80872066120709 6.406542697577307 0 0 0
198 1 29.405893201065464 18.50918341839856 5.198126761177447 0 0 0
423 1 33.96560107316766 19.28427346430392 7.49145821204175 0 0 0
435 1 34.84919070496245 6.899469288541047 27.854850615091564 0 0 -1
872 1 9.732626884946525 20.59588833161711 8.62314458213743 0 0 1
2641 1 2.6747232377081076 19.453045669254102 4.272821329421834 1 0 0
194 1 3.8381889723487923 16.757944600391788 4.64114544335397 0 0 0
757 1 8.718970693718623 19.46769509506775 2.2158030659403423 0 0 0
709 1 6.681275410406397 22.163956070078722 3.0473933434343126 0 0 1
445 1 11.456768087183846 22.116363508032368 4.152727672672093 0 0 0
86 1 -0.03009618756058785 22.289380276884742 7.541032337195234 0 0 0
574 1 19.38094138237498 19.606331732577335 5.3022205186721365 0 0 0
899 1 17.633309584257674 21.853331775292308 5.95583757457079 0 0 0
66 1 24.56979870814886 21.912411689383802 6.698540499877316 0 0 0
907 1 -0.04531764479193612 14.480602058958306 11.56746285513482 0 0 0
2780 1 32.24981709322172 18.554956764830454 5.185818245922714 0 0 1
128 1 34.68844098350686 8.112155774034408 1.3129245301890187 0 0 0
272 1 0.03854699260910771 13.555847673213435 5.414380585310158 0 0 1
458 1 34.95513449356085 19.080903530492673 25.623018535874756 0 0 -1
3705 1 4.967903361696909 3.5488612935405905 8.331158094672999 0 1 0
1885 1 11.364986282263843 3.625612723835325 7.396161206166977 0 1 0
695 1 14.046341609605944 22.71123968593047 2.873316783972261 0 0 0
1718 1 13.426834148511078 1.733337143702891 7.2986061044604735 0 1 0
57 1 14.75825659605351 3.427365773775066 8.825980794415914 0 0 0
143 1 16.47793921667422 4.631651117126921 6.896311447940852 0 0 0
1269 1 18.554282780548355 2.912208845109215 7.8055058269987425 0 1 0
463 1 0.37868437770809404 6.499256819752442 8.266031940283447 0 0 0
604 1 21.122306408743462 21.89527036228387 19.584345574828774 0 0 0
3195 1 0.44523692799611103 20.347993722911987 11.835117819435338 1 0 0
442 1 28.90829232500414 1.6885736273740999 7.26029697811263 0 0 0
2192 1 30.049860507282734 2.9706499151577015 9.28786893938255 0 0 0
2662 1 32.33435147228229 2.7438220422057884 5.141239280294909 0 0 0
2240 1 3.5022031528609996 7.994319178133965 4.868969601843965 1 0 0
2501 1 1.665494000674887 4.3142152180980275 11.207923658752211 1 0 0
3432 1 7.921780402365265 6.575112136492267 6.50066799911572 1 1 0
2054 1 10.407218137083031 7.81262114388689 6.436894018435894 1 0 1
1545 1 13.999455775091912 6.954617326324754 6.634795285024047 0 1 0
285 1 23.64515604409529 4.159230070913849 9.005837956919 0 0 1
666 1 20.80547415962867 4.020580656868649 9.20481367701557 0 0 0
3886 1 24.863876493177848 2.3516358378107545 11.070562294403562 0 1 0
3407 1 25.0408878123694 6.453750193768399 9.538191625807883 0 1 0
224 1 29.500526037478533 5.647765561475662 9.231007857627512 0 0 0
3852 1 33.2103321773887 4.072256878865214 7.653435335672653 0 1 0
4010 1 31.81542464891609 6.38383339641979 7.942114689505409 0 1 1
2040 1 1.123028615010534 8.166815287965873 6.243152726366193 1 0 0
2206 1 6.288014709497707 10.751536436613712 7.568468302729628 1 0 -1
1848 1 6.056249435374335 7.414006666873797 10.424013128688166 0 1 0
618 1 11.818603238704268 8.00397223197401 8.964326761811408 0 0 0
1526 1 10.364707020410844 10.274471978697232 9.477854447557958 0 1 0
654 1 14.640132481262246 10.761302705788916 6.493194740535696 0 0 1
1856 1 14.833596372313622 8.955337340060652 8.491746711771997 0 1 0
9 1 22.96562891741021 8.346847024506777 9.697149660051414 0 0 0
2275 1 20.794860194230566 6.791504416167664 8.643830345139694 0 0 1
533 1 27.200077629513522 6.0003560319753815 7.800479624959389 0 0 0
2265 1 33.46152403701206 7.368675847093276 9.995914575665655 0 0 0
178 1 2.0153813063341754 10.390634668556297 7.75917567077583 0 0 0
2824 1 3.791816067530455 12.335107090725264 6.4856924616180915 1 0 0
602 1 11.351039076211986 13.350421094519 8.134416336327055 0 0 0
1615 1 11.317129163435855 14.214231985472033 4.6843988608219025 0 1 0
634 1 14.370598849343581 12.922876759865062 8.033426626961006 0 0 0
2165 1 10.051897461333603 13.16050539424496 10.446470622326991 1 0 0
227 1 16.83594681669392 12.689067168827973 9.480018142914753 0 0 0
519 1 19.126381624108586 11.47581916585406 7.9399477372464595 0 0 0
1359 1 22.137211239150904 10.125889681404818 7.422445147224902 0 1 0
468 1 20.91494936398354 11.530065740920373 10.146952627294644 0 0 0
3938 1 24.803775686666288 10.433638936649945 7.100076653252908 0 1 1
379 1 26.358120569740247 11.706563868393706 10.263906642542608 0 0 0
322 1 28.32790089248709 9.932412777472267 9.068374845593839 0 0 0
2838 1 29.903685793268416 13.363161218787079 9.489942202167228 0 0 0
3266 1 32.69430640240498 12.759718824663361 9.905743927714207 0 0 0
2306 1 3.4260447876558784 15.240070488676698 6.940575497511435 1 0 0
1003 1 4.338783290413003 15.795939440550972 9.31470001080461 0 0 0
1142 1 7.175661925986261 15.19617484062473 8.268932705353697 0 0 0
725 1 15.264594778336841 15.041039820570345 6.265364890639714 0 0 0
367 1 15.390911528751541 17.961226545593046 6.340740493590709 0 0 0
347 1 16.52181114087211 17.36397642483734 8.818862239074539 0 0 1
542 1 23.339074701513002 14.75555776573111 9.309504850657738 0 0 0
915 1 25.97082492227102 13.484445471899676 8.409402603502585 0 0 0
2313 1 29.594737110720693 13.331230592324587 6.6697883013627255 0 0 0
696 1 32.58548772446651 16.670753683641703 7.857730770401676 0 0 0
107 1 4.569415672902307 23.186008814278264 7.737121787762297 0 0 0
151 1 3.2403264920470076 18.272246669637255 9.199398268641197 0 0 0
2024 1 6.056038831428694 17.380329072377936 6.643731075704955 1 0 0
283 1 11.212038634182282 16.061151293048567 8.011393301281732 0 0 0
313 1 22.861924575440593 17.840860630832992 10.231987706821412 0 0 0
1196 1 20.8688580440193 19.543945545898424 9.04039058704305 0 0 0
645 1 26.000743318917387 19.733601883535385 7.650316744198222 0 0 0
376 1 28.866194602041123 19.57861966362375 7.742198295429709 0 0 0
152 1 28.253028122566125 17.35516285420136 9.404404715856328 0 0 0
36 1 30.624408669257598 16.257691006075078 10.114852627599248 0 0 0
176 1 2.3400762649169327 21.41649120613093 6.492429804343332 0 0 1
675 1 5.241886986508487 19.95383132719332 8.078328301859804 0 0 0
366 1 7.012672499638248 22.450300832750763 5.8852428998544735 0 0 0
166 1 7.959677846390768 19.94881592281196 6.424062953212663 0 0 0
2637 1 12.354691286061817 18.644100548249934 9.093135786752402 1 0 1
208 1 15.405445423746928 21.32167852468803 7.30182638080435 0 0 1
202 1 0.7217978822664468 16.80503609486972 24.05245010581538 0 0 -1
1871 1 30.169984938599413 21.14454991904807 10.001933471704218 0 1 0
2129 1 32.12246137803386 19.257414964793213 9.831498087923418 0 0 1
317 1 6.047689716376292 0.2920767910511378 17.317787896817464 0 0 0
295 1 6.301713929471415 3.4383333442552515 13.085629398488878 0 0 0
307 1 8.150532893391775 2.309453056757001 11.350066042888262 0 0 1
3150 1 2.5864554402579008 22.062454419994925 27.14295970722707 1 0 0
252 1 24.584068960246857 0.1294486993372875 14.95917388673392 0 0 0
1542 1 16.623472078387124 2.2581293719134297 10.696672185070238 0 1 0
155 1 0.5945044846178242 8.365617674639923 0.41496282510450705 0 0 1
584 1 20.568515456031623 3.052903365570546 11.851550006774346 0 0 0
2332 1 27.58799997464583 1.7373697364430059 10.680601039682939 0 0 0
2296 1 1.177259645851479 1.4822851011149523 0.1416742915778056 1 0 0
1835 1 32.91147084461111 2.5066631128576615 9.86815438732895 0 1 0
2092 1 0.8248622186924327 5.84429486736817 13.243870717208864 1 0 0
2531 1 3.711198296072475 2.306171945867347 12.272620024126487 1 0 0
2765 1 6.950044966210994 5.358983647790257 8.781557468373087 1 0 0
2161 1 8.865188423314144 5.020360788496738 10.970160160843681 1 0 0
1830 1 11.229878245038236 5.4977273466962195 9.504245876597468 0 1 0
201 1 13.633443943903144 4.971250947310982 11.146299984423829 0 0 0
278 1 14.962286313382911 6.934354040760034 12.621979632369737 0 0 0
186 1 17.60425925334373 6.232227675739369 12.770108021003322 0 0 0
190 1 18.226463418076346 3.6714228860918245 12.45535021698205 0 0 0
1563 1 22.35064873273323 4.840267278387163 13.121888180068005 0 1 0
101 1 28.33950661299857 1.7734262447297025 13.343542509035995 0 0 0
281 1 25.838205368595403 6.7155624494793935 11.989942929724068 0 0 0
497 1 30.984589732478035 6.121844593643829 13.692373302555211 0 0 0
2779 1 33.18856976977182 5.748074293050917 12.257195553355823 0 0 0
1386 1 8.761420657779222 2.2498888025755495 15.924475140141748 0 1 0
247 1 33.90970420437427 5.531894072687579 20.3915455133369 0 0 0
1209 1 4.829167960857301 8.419700008774921 13.590985301556262 0 0 0
3306 1 7.681069449902731 10.130677883743127 10.005439460791182 1 0 0
21 1 4.685378392296923 5.958219113939615 12.46300537685871 0 0 0
1427 1 14.589287176112459 9.318756930975685 11.304925730982287 0 1 0
116 1 17.813433173805326 8.868730109442994 8.240957259423272 0 0 0
728 1 19.073899729016052 10.219850607525485 11.66842711562883 0 0 0
1297 1 19.138674354243534 7.830650960277064 10.912530688397144 0 1 0
937 1 21.75516324129181 7.370237061124222 12.102799545634845 0 0 0
479 1 28.8616503494693 6.67019543077957 11.70926740323489 0 0 0
670 1 29.896879559631998 9.07905300563264 11.335831610206967 0 0 1
745 1 32.420611970134296 9.86946089516268 10.451701923111708 0 0 0
2049 1 3.117834473590815 9.474704435788587 11.309084260926737 1 0 0
2623 1 6.478646852859448 12.377649001090367 12.870186745396435 1 0 0
1861 1 7.035311744419702 9.727081844184495 12.620252931587405 0 1 0
5 1 11.831308068764281 9.675340858153032 12.119523140350424 0 0 0
412 1 11.58401318969068 12.4743991609208 12.641440436007036 0 0 0
360 1 16.494627174519238 11.204097592024853 11.80861129744203 0 0 0
946 1 20.557586549611756 11.382723784288732 13.862537987196847 0 0 0
565 1 23.67540226347097 10.685412553916239 11.007235850710734 0 0 1
324 1 23.026971401947137 12.328956968552703 13.190887121087155 0 0 0
564 1 29.476245628777512 13.030543181308886 14.074045315767286 0 0 0
454 1 33.46328217948915 10.116954237495449 13.169346449006994 0 0 0
1875 1 4.0262771991585415 0.5100617216750252 9.188178649127664 0 1 0
698 1 7.0754140256626705 12.851286062567274 10.222088267079291 0 0 0
342 1 2.7926210089951673 14.803919439640964 11.450159168948497 0 0 0
688 1 8.232813050038029 16.798955712771644 12.836748166334994 0 0 0
1183 1 9.151653264527166 15.829442497954874 10.380185915941372 0 0 0
1124 1 14.02382548602731 15.99049181902863 8.787971702808642 0 0 0
871 1 14.708336747146388 15.938363555270051 11.679262331938988 0 0 0
540 1 17.48743424498971 15.173674517451946 10.54250130786838 0 0 0
566 1 20.245451152592423 14.460914320426463 9.905541344107164 0 0 0
744 1 21.610043854818326 17.17509774439639 12.870945798313011 0 0 0
383 1 22.86113364055212 14.772581777765295 11.986139802368946 0 0 0
271 1 28.038904598292657 13.29877319793008 11.741051219722722 0 0 0
88 1 25.63920176571761 14.769963148533476 12.555703619675695 0 0 0
1625 1 31.587404024164595 14.72550457537034 14.014982183409781 0 1 0
2775 1 33.519834514867306 13.234155703905483 12.72794566510913 0 0 0
470 1 3.0608834309132376 19.320291667764632 11.717399912639328 0 0 0
590 1 6.3018151441333075 18.676505466609115 12.59772211424033 0 0 1
1086 1 12.927838552769558 19.67945801685258 13.659823951085823 0 0 0
505 1 14.18066335352464 18.74328391774415 11.28140187529857 0 0 0
81 1 19.285467444931697 19.094671154736417 13.140497436708566 0 0 -1
78 1 18.802815624280264 20.164520412133136 10.64658720314011 0 0 0
723 1 21.41096240623949 20.590627930140215 14.397053425032125 0 0 0
297 1 23.074813426778626 21.358684492675163 10.049961643188846 0 0 -1
1054 1 25.0442044891864 19.61098022770048 10.266117860685334 0 0 0
238 1 26.72286358934298 17.498491820120385 11.875277040260583 0 0 0
1018 1 31.02130106717441 16.9869721481224 12.634675896049636 0 0 0
2684 1 33.27137893009031 18.722336650568547 12.30136059532268 0 0 0
2375 1 3.8881985850730794 22.190957434797685 10.159070281395463 1 0 0
931 1 7.012545970641263 20.076282295036087 10.58955480270505 0 0 0
2441 1 0.6038665294065066 5.24269480177049 18.432844137245304 1 0 0
836 1 9.854663566737283 18.79939283324332 11.000936676296625 0 0 0
2689 1 33.85847368656608 2.528879055248051 27.487452312780214 0 0 0
459 1 16.121381087792155 20.17547934818182 9.891090316572868 0 0 0
434 1 14.677081360040399 22.141116790205544 12.070283265151293 0 0 -1
1703 1 1.1873648180790186 1.1786938533290678 2.8334148753103734 0 1 0
1045 1 22.30964286161795 22.531011636203527 12.429357209349567 0 0 0
244 1 8.225479981186778 0.46585045980653783 4.565210199420595 0 0 0
420 1 20.052626563861025 19.462676928029982 28.265472469668318 0 0 0
526 1 26.008272767943367 21.244447235449403 12.370827948077764 0 0 0
2471 1 28.43531961345824 20.888295479633353 12.121981481452345 1 0 1
25 1 5.9865121440185085 23.13618309207355 14.175387647487447 0 0 0
1418 1 1.169109001403574 2.6972537061116393 25.319292999692266 0 1 -1
1873 1 0.8036878517481496 21.615166278757137 18.088934118808055 0 1 0
1979 1 5.9775234106682404 2.698142263712054 15.824168907024243 0 1 0
1790 1 10.775808346217111 1.2786266267067865 11.643249194702436 0 1 0
544 1 12.877127992108559 2.530037518341044 12.640726363734423 0 0 0
1988 1 14.48699229391024 1.5488306273975023 14.70606284357034 0 1 0
99 1 18.037073215450423 3.0934845479895974 15.174350050055512 0 0 0
1492 1 0.4052935732061071 15.306425760312866 26.48902754103009 0 1 0
58 1 21.80513516187727 1.1501827621270013 15.637101692531386 0 0 0
110 1 33.78803085071104 11.05374389342633 0.4793446557511847 0 0 0
2094 1 0.1337895914699416 8.477361906095386 26.284759603330322 1 0 -1
368 1 23.34095807806385 0.41360806898356495 8.049768105755552 0 0 0
1897 1 33.04513276312819 2.30892409249217 14.311648492139803 0 1 0
1930 1 31.052116296137353 0.31711013564123613 23.647341256979125 0 1 0
409 1 8.694719479242186 16.65951944784075 28.381587447832075 0 0 0
1387 1 3.0514396572259783 5.5106594117799395 14.761353754365208 0 1 0
469 1 2.8996241339121074 2.5568999051586823 15.118567536445193 0 0 0
1878 1 9.226152049638246 6.077857376209718 13.684170005176352 0 1 1
2351 1 10.707540850699113 3.6302912281722564 14.438126503678626 1 0 0
718 1 20.01973617949165 4.558934221754848 16.7061826872444 0 0 0
294 1 22.36961484583163 3.9710568582882173 15.767243469825765 0 0 0
1958 1 24.986517671671926 4.1823936098603465 12.977661473915568 0 1 0
1635 1 30.47213010182718 3.379554634350138 14.08580398483814 0 1 0
1636 1 22.842064283685872 0.7048493202345917 26.89010771053121 0 1 -1
4049 1 0.779010159547832 8.264918859825173 12.101803478904444 1 1 0
3360 1 6.878775102098427 6.830634978629476 14.907727357514041 1 1 0
23 1 8.694966823136378 9.882288765816947 14.671218125243652 0 0 0
2464 1 10.778577190081826 8.256080037144477 14.326554306869768 1 0 0
676 1 12.539565721000663 7.629250062447604 16.203035381697383 0 0 0
673 1 15.077610121001726 7.405169327504097 15.390757448093657 0 0 0
832 1 19.526896806690107 6.764634566824218 15.017964642967614 0 0 0
279 1 21.14482993435918 8.722752409453626 14.43303680470934 0 0 0
45 1 23.596818051675367 8.190058311652605 15.402009407192734 0 0 0
92 1 25.216024205708226 9.056786134235853 13.19180115748896 0 0 0
158 1 27.568440668892602 6.82375478088653 16.45525114251828 0 0 0
161 1 32.232504127499965 7.2983613713148 15.811193909745189 0 0 0
3311 1 0.23413091133667308 19.111645578578894 25.27261125834083 1 0 -1
2157 1 34.84536051958511 7.323612545107954 16.313759719232458 0 0 0
607 1 34.45218484758098 9.811456569364847 25.894114195782862 0 0 0
312 1 2.342758980919882 11.569150877961922 14.758633409571333 0 0 0
243 1 3.6881691972289286 12.149858100864877 12.245206992729903 0 0 0
490 1 9.884089586799533 12.211550559921896 14.62627607392065 0 0 0
444 1 16.50544873146208 9.597707033002145 16.151687095691535 0 0 0
389 1 18.29900937959917 12.983120197030939 15.662425813884258 0 0 0
160 1 16.205428951958748 11.950459490700696 14.445147121615408 0 0 0
585 1 24.344303225449753 12.413451944171664 15.69335869979266 0 0 0
457 1 27.600877636997513 9.23583750073506 14.905704249599166 0 0 -1
661 1 29.65089237309652 10.248038572524068 13.569081677475582 0 0 0
2633 1 31.807677313223024 9.905190090219211 15.33185149355964 0 0 0
1577 1 17.10764069569529 0.09022876552409112 14.965618786775753 0 1 0
2958 1 1.8381902830167387 16.265107034750066 14.843149502581488 1 0 0
2687 1 5.3556961487656 15.523394003538405 15.442653939020207 1 0 1
430 1 7.862200761022359 14.365325395549178 14.419196568435213 0 0 0
299 1 10.282563604663828 19.781676257415036 13.579249612097335 0 0 0
71 1 12.773091761336403 14.743890800972345 13.58729604240373 0 0 0
722 1 14.513399122097868 13.912325170584312 15.447654201151698 0 0 1
1417 1 20.205412193584447 14.530680075014653 14.586126673811656 0 1 0
1413 1 22.89212668629652 16.516128506299285 15.494927502901024 0 1 0
2558 1 25.93959021248558 15.65528148948864 15.167080751347886 0 0 0
304 1 26.706773254579154 11.536626101979165 16.661435483012497 0 0 0
33 1 28.085273626556695 13.814949532669054 16.246834123585565 0 0 0
418 1 32.569961545546825 13.467311594574653 16.430978079325364 0 0 1
3860 1 2.2815043385209814 18.969122095820357 14.80576960369846 1 1 -1
3329 1 4.023219088663616 16.716723378579005 13.263217385887694 1 0 0
117 1 8.521431365374752 19.50723365916757 16.134716892966225 0 0 0
1133 1 6.30219026618599 20.291226075079177 14.799018280618082 0 0 0
662 1 16.03416532398615 16.25656925723022 14.438354643548564 0 0 0
437 1 18.69371469743459 16.159654757868637 12.97157001616104 0 0 0
207 1 23.247158743538222 19.15550433126362 15.575997564257053 0 0 -1
2512 1 27.20911768947613 18.227700513981702 15.400060674387507 0 0 0
432 1 28.819073002953882 18.381906620637338 13.35865075710564 0 0 0
140 1 32.80338977350249 20.262284302648077 14.48059376163885 0 0 0
378 1 33.023146700119604 19.048054544673892 16.78211503648565 0 0 0
706 1 33.628888739219924 12.210716767532361 7.356383751395228 0 0 0
192 1 0.5491540219394921 8.16786012441571 18.32680660333888 0 0 0
2026 1 11.532356957149593 21.04132980850966 17.86456808983749 1 0 -1
13 1 23.962529893254057 22.942229828088085 21.45559932334541 0 0 0
627 1 17.557036570809437 20.304099856941214 15.163947881538872 0 0 0
273 1 25.598942165328282 20.592796071890916 15.074656337263077 0 0 0
2178 1 34.667014864504466 1.2225737549919313 20.39330204453138 0 0 0
611 1 28.808121396391464 20.211870745741678 16.511265426274328 0 0 0
302 1 30.29257263841883 21.233779347244116 14.32942047775511 0 0 0
3698 1 34.983597163988364 12.437938769684974 20.226488854237736 0 1 -1
2014 1 6.932809604380624 1.0941150969386677 19.88751655303863 0 1 0
1324 1 9.45252727443917 0.7378286193009578 18.12118002278978 0 1 0
170 1 14.818454083991698 0.9434400262825933 19.113952851133718 0 0 0
3887 1 17.465608584705986 1.2188339694047277 17.570529594869107 0 1 0
3813 1 2.0947121323638536 3.358760354664992 6.837288969719471 1 1 0
290 1 23.025573484788584 0.587527356882893 19.389247080143996 0 0 -1
1525 1 25.767170811218172 0.9331333821800305 18.762668186733876 0 1 0
538 1 28.187999892038153 2.4849456409470694 18.323131383901554 0 0 -1