LAMMPS data file via write_data, version 29 Oct 2020, timestep = 50689

3981 atoms
1 atom types

0.26218464571965683 69.73781535428051 xlo xhi
0.26218464571965683 69.73781535428051 ylo yhi
0.10974300170858342 29.190256998290778 zlo zhi

Masses

1 18.015

Atoms # atomic

674 1 26.570717667753694 21.452378986065312 27.7390602827793 0 0 -1
184 1 4.44752272212739 2.2472582782737764 2.0978726402323096 0 0 0
352 1 33.92571233453583 2.3303148253592885 9.715586009472425 0 0 0
2374 1 0.3187593896396503 3.8506796412932007 3.220543025977721 1 0 0
659 1 11.357440524136875 1.581930759804933 0.9260952055919855 0 0 0
611 1 34.50805930103681 9.982690020782544 26.328567817867985 0 0 0
226 1 16.450868346349242 2.2316854461154363 1.5643562685956172 0 0 0
1914 1 19.238133931910788 2.983352680661162 1.1417505979990978 0 1 1
94 1 24.61186015005473 5.657521907976175 0.3020353455014335 0 0 1
510 1 26.71782037089672 2.647297497417227 1.36560668644693 0 0 0
3665 1 29.276194884857386 4.024878782947997 5.650379889742419 0 1 0
2326 1 0.2812641604662076 17.622544481190705 5.94900324444588 1 0 0
559 1 29.30985430646482 2.955250491869545 2.9725357461754554 0 0 0
55 1 0.7643263553666944 8.968963777813658 27.031154844333003 0 0 0
3860 1 0.29769111847948254 4.38694598637897 5.749047079825799 1 1 0
76 1 2.3508831749759533 5.160514959753965 1.6684115764681575 0 0 0
1192 1 6.552335726183848 6.311470022758236 0.858453713096584 0 0 1
80 1 9.177067773782765 5.133801732353038 0.5771488930897077 0 0 1
695 1 15.497475496046215 4.303100580361875 3.167505246125721 0 0 0
1303 1 19.56184338323439 5.535153244607674 0.9745082084360314 0 1 0
2227 1 21.14236903367344 7.006323410101669 3.1904692950018605 1 0 1
570 1 24.13605272792665 6.157211508603027 2.950217417698965 0 0 0
177 1 27.22673379589707 5.69851688581442 4.2963192422120144 0 0 0
3351 1 33.335581827290646 6.2921230565485455 1.9005554294832985 0 1 1
1901 1 23.34644631350981 0.6876741595422005 26.991148054732715 0 1 -1
574 1 9.422774571703153 7.854770514203885 3.2284584471193556 0 0 0
481 1 12.236181248113997 7.437593794347333 2.3348314060030844 0 0 0
410 1 12.956081709029615 4.844277888974731 1.9615957168626899 0 0 0
301 1 17.038592173161422 6.256144255353844 2.411574016880022 0 0 0
495 1 15.734996703985901 8.260774630811888 4.350042195763304 0 0 0
1871 1 20.626806901098227 9.301031781286845 1.8337824924430792 0 1 0
213 1 28.30327227839622 8.614992257944815 4.542759458982884 0 0 1
712 1 26.717030156290686 10.148389261424281 2.2676273456736014 0 0 1
353 1 30.541989484721423 9.555791216129528 4.25754281542412 0 0 0
1575 1 31.328230683655264 9.660541009172 1.6388544230288644 0 1 1
3961 1 32.477311509401666 7.317665858282472 4.3833566992277735 0 1 1
2509 1 3.778882356986499 10.000170915663857 1.080568355172637 1 0 0
3720 1 1.7853407719851822 12.062570208036028 0.9146611839924232 1 1 0
199 1 4.564276499235198 8.92170203905346 3.5252072158075665 0 0 0
519 1 6.92434246879724 8.445223930074945 1.8748656490355156 0 0 0
2383 1 9.352288294586943 12.262105759368684 2.9065353311485715 1 0 0
457 1 13.720146690038877 12.09522239913357 3.2241647625896945 0 0 0
658 1 17.323098419051856 10.61085743468681 4.081435506153877 0 0 0
436 1 21.600593840629916 11.164168962126592 3.2037805092788734 0 0 0
361 1 24.359903645965506 10.66955268335478 3.8288152424949926 0 0 0
717 1 27.7759443331321 12.65766475466108 1.6281456886007803 0 0 1
504 1 29.75252971574985 11.54795183191464 29.053082772769844 0 0 0
1763 1 33.805389383124094 10.485827657282629 1.31885684562827 0 1 0
351 1 34.36318444690674 12.320707645468568 3.3240707002361196 0 0 1
3261 1 0.3639592560671946 6.798587020416121 18.529655820809765 1 1 0
6 1 6.714416287601575 11.44217707474361 1.9557639193752674 0 0 1
24 1 16.19091878442216 13.297018713460565 3.9587584226850816 0 0 0
266 1 12.149632761564195 15.611860055669359 0.5345453141090365 0 0 0
441 1 17.615500119192042 14.323618939271809 1.8316512832136034 0 0 1
332 1 19.86657900829258 15.17033383509592 2.647378042174457 0 0 0
127 1 23.690442090826213 14.87351493193695 2.444225066228487 0 0 0
532 1 23.16263669081039 14.435656653080608 5.179082885106777 0 0 1
2239 1 28.408828874479845 14.335403233299516 3.44798043273554 0 0 0
1791 1 26.425900883681532 16.023103057304994 2.1474041488761086 0 1 1
307 1 30.613744575908743 15.743536380518101 2.426112768896306 0 0 1
2547 1 33.37592645712816 17.33531934621098 28.88164885611546 0 0 -1
562 1 3.1879302686397173 14.400400090999637 1.8495857760122132 0 0 1
2267 1 5.802732355524976 14.118429269671026 1.110010349007834 1 0 1
386 1 6.275301135468119 17.45193183795833 4.139551762504381 0 0 1
844 1 7.53208987850879 19.34274288327457 5.883910475968289 0 0 0
428 1 9.310950723149459 16.588532986419146 0.7338608172918932 0 0 0
645 1 12.535722157917654 18.251738118229568 1.3787015782841578 0 0 1
540 1 15.111022426105055 18.480651040999277 2.4692058421664207 0 0 0
742 1 19.688838566139673 17.94522258622134 3.173654233694341 0 0 0
1310 1 22.491368837751732 17.218094041724314 1.7446368567316437 0 1 0
491 1 24.981844997645897 20.09306202152573 2.875606245029721 0 0 0
238 1 22.582382922957187 19.098590433838933 4.188998949851387 0 0 0
551 1 26.132882921777664 17.960679653501852 4.215261042555315 0 0 0
2427 1 30.47462186985198 18.1942075435386 2.918673523067959 0 0 0
800 1 18.728356021768136 1.152571426252332 7.305711650432714 0 0 0
317 1 0.5769352671996963 11.55091606338302 27.60808588448568 0 0 0
240 1 1.1868597216394172 11.811088765433052 11.708628887439309 0 0 0
2521 1 3.2361015534850175 20.14673031517242 0.5925857684870708 1 0 0
2650 1 8.089221078537797 0.6227025118632868 26.3258743100235 1 0 0
59 1 9.361461817596872 22.094110966614117 2.24882620734464 0 0 1
311 1 9.6879934757519 20.39780651216641 27.611605759726178 0 0 0
584 1 15.906378633321395 20.85397883144855 1.3319322225120707 0 0 1
960 1 13.62433877958792 21.48544187149508 28.76994860458726 0 0 -1
598 1 21.00677497790042 20.321461329655037 1.7086324782267683 0 0 1
556 1 26.915515094568576 22.01028514347638 3.2862085090373867 0 0 0
2099 1 28.34423738392197 21.151351712427168 0.9433174367130102 0 0 1
1986 1 30.876599756713947 20.871341834456242 28.940280787201434 0 0 0
3855 1 2.0029604246184913 1.6721609742986538 3.2686678296500236 1 1 0
2215 1 34.305398853857476 2.6432957310862033 25.63855008223983 0 0 0
774 1 8.627518413644486 1.2777577060021366 4.090346034016703 0 0 0
3339 1 3.00993742159988 7.0197370011086715 17.788665437504665 1 1 0
531 1 1.104591098562171 10.232956832604586 14.243144951119914 0 0 0
1357 1 14.630721603280284 1.678301666632519 5.55134389837087 0 1 0
522 1 19.273662528541497 3.150949577874612 5.327429816188902 0 0 0
618 1 21.02321190086104 2.3263233625600916 3.408561842469889 0 0 0
577 1 23.81525192779454 1.3731421804279151 6.35059981298266 0 0 0
298 1 5.009490652249396 0.4865458417555904 12.29565727685499 0 0 0
609 1 33.777871546667946 6.7181410426186785 14.372398722590475 0 0 0
678 1 34.37171674273538 5.488230470011133 20.494322045635933 0 0 0
1273 1 20.016561084563218 0.5388820067732365 17.519900430324512 0 1 0
1203 1 7.175100590581807 3.7835170874087805 4.816660874722937 0 1 0
113 1 9.422915382450686 5.581921210123496 4.69602236290312 0 0 0
437 1 10.099692985995999 3.4355175469775623 2.795112069933522 0 0 0
993 1 12.192806190953293 3.193408518751012 5.074554173620413 0 0 1
601 1 16.372903035852985 3.759079824053429 5.891436005750317 0 0 1
343 1 12.499854039661432 6.060039343452502 5.13627395156449 0 0 1
1559 1 18.99234573401211 6.073017353571573 4.507144715051339 0 1 0
270 1 23.200253006895974 4.578893127132312 6.057345100870996 0 0 0
302 1 25.116510835792944 3.7057814987809077 4.017138328689006 0 0 1
488 1 31.880957062741604 6.381608674211762 8.244471362361553 0 0 0
1440 1 31.996578581852457 4.953897052851609 5.86510425646316 0 1 0
2721 1 33.4543113071417 2.3919755505865523 6.966827532452164 0 0 0
2719 1 22.01465304397925 1.7906999557602772 0.19004548731629234 0 0 0
2318 1 5.163975767040987 4.774435773336017 2.8412270179137833 1 0 0
182 1 4.512471357051558 6.440361742822138 5.216026058614656 0 0 0
1833 1 12.04491800445922 6.89993245850925 7.536283167247484 0 1 0
1897 1 13.062949508990437 9.515433738754574 4.2041934387950475 0 1 1
29 1 15.357969183135433 6.271251985586714 6.300704414118732 0 0 1
31 1 19.259750456456278 8.01580861702119 6.475676304039256 0 0 0
661 1 21.959288713508847 8.301161766143247 7.052182004777617 0 0 0
676 1 23.460654699134313 8.268278033895697 4.703866237527122 0 0 0
1733 1 25.344266783071138 6.552142929100806 6.373062592680291 0 1 0
2045 1 30.780019612585637 8.973555732522616 8.070235235585368 0 0 0
1605 1 34.3040850035191 7.580253714562695 7.8708191292597975 0 1 0
539 1 1.387868250060424 9.971946245940149 3.191285466748919 0 0 0
2440 1 10.107705149583174 10.093420937245517 4.559039081012184 1 0 0
28 1 12.775968374462073 12.971734271171336 5.9169059320521695 0 0 1
419 1 19.90034795747275 11.199638524533015 5.202668146573756 0 0 -1
407 1 25.122480965453555 12.575219577697071 5.624123335893566 0 0 1
2310 1 31.780328138364425 11.833052758045588 5.392901281034402 0 0 0
1590 1 33.06312928409775 10.651752035341588 7.743751602201042 0 1 0
341 1 19.361883154485184 3.3092819018998303 14.539071843067271 0 0 -1
941 1 3.074592096049853 13.593443975325863 4.622435475631328 0 0 0
354 1 5.346260978686651 11.682361538393245 4.592921055193686 0 0 0
395 1 7.685286952852731 14.833866589722808 7.2994327854814385 0 0 0
246 1 12.208656629253207 14.724382932864694 3.3351655273132126 0 0 0
1125 1 9.509302489762716 14.68096046690409 4.424469912577818 0 0 0
560 1 13.996011243186128 15.367381454017595 6.939964896421398 0 0 0
2234 1 16.327534375102235 15.04978247404423 6.017829925846578 0 0 0
2180 1 20.536456518803508 13.838722135372675 5.066991167230458 1 0 1
223 1 20.5510727580396 15.306928630857735 7.493026982371961 0 0 1
384 1 27.410926278378017 14.20718301445688 6.012299237690339 0 0 0
73 1 32.560292893161495 14.663533151921667 4.385770190913274 0 0 1
114 1 32.0462084113787 14.266533278774737 8.787999534582037 0 0 1
2298 1 33.311891465903166 15.84869698476165 6.524151384014408 0 0 0
1916 1 29.58913378985531 0.316965871766743 5.67521788674769 0 1 0
2808 1 2.8237476177021765 17.191983784847118 2.017053041459064 1 0 0
2871 1 2.83645478264499 18.280462974590264 4.893342478631304 1 0 1
1134 1 4.72973071837823 16.815695898493075 6.563490117612474 0 0 0
867 1 9.8907194158423 17.29415724633387 6.1668473648522815 0 0 0
160 1 9.955458426948569 19.390275190461708 1.2733516452675027 0 0 0
968 1 13.771384415073813 19.41583494279307 5.1153275677360455 0 0 1
445 1 16.73833175982363 17.428708695341783 4.708607104849728 0 0 0
356 1 20.285699706593157 19.62250297141926 5.806483509099835 0 0 0
952 1 23.813597199653866 17.092856067099245 5.718698598895445 0 0 1
684 1 28.232730054985108 16.967349823026833 6.481006800865593 0 0 0
528 1 29.898790127527214 19.012668967900666 5.6287335059078325 0 0 0
139 1 2.796094699169136 20.0624771704036 17.53475057248478 0 0 0
466 1 2.926554607525451 21.108221662408276 5.189979588311442 0 0 0
3828 1 27.548883580308768 2.511727376764526 7.229178066137202 0 1 0
997 1 10.837182100477936 19.30703234461823 4.217329583965063 0 0 0
975 1 13.31991604887916 22.32369578761164 4.738898575216803 0 0 0
2362 1 3.130916772130968 23.0239123310205 14.68875663547279 1 0 0
272 1 18.2789335787445 20.837179364198224 0.2033798642070379 0 0 0
212 1 21.383538375825744 21.643095511025944 7.330720644513862 0 0 0
3096 1 0.3775070757346778 18.136768634493077 11.746921010475507 1 0 0
67 1 23.880044808762392 21.30400641395836 5.881796872464915 0 0 0
1147 1 28.207828251115053 21.046971804278584 5.611995369389727 0 0 0
2669 1 34.08070608362573 16.495781269143137 2.452269891053487 0 0 0
397 1 1.1941586559038337 17.70916765068897 8.652016167946117 0 0 0
2562 1 0.2725116791350217 15.787405029843573 0.6482666898739808 1 0 1
905 1 0.3346493212911529 16.290474927450425 25.686633040755876 0 0 -1
1067 1 0.31683204788848723 13.481135251108729 7.810598811018428 0 0 0
593 1 12.476291017203643 2.1276414688521363 9.955802909752842 0 0 0
622 1 17.70493778675505 2.9125536870909525 11.34862711582766 0 0 0
109 1 20.64360559447596 4.331937213257249 7.2920379537625175 0 0 0
1743 1 20.629113960534802 2.2020976678824784 9.588471013674939 0 1 0
3781 1 25.08919248524732 2.0938333481462923 13.171775794641794 0 1 0
235 1 31.283612115094623 2.497328466315646 10.232093999049459 0 0 0
1627 1 3.211722502439418 7.271443501142519 9.487017766200356 0 1 1
1280 1 2.4264969918297288 3.1583555473054483 6.864553437176011 0 1 0
287 1 5.863529381237195 2.005735149784856 8.607585710881803 0 0 1
25 1 5.3420112391489205 4.260062306344227 7.082943562351455 0 0 0
1933 1 10.720874352798656 3.00601855966192 7.9434080953320345 0 1 0
619 1 14.669910282668313 4.090109448377644 9.622913218759038 0 0 0
663 1 17.33831220860996 3.830170804077472 8.568297544249162 0 0 0
1827 1 22.96552868181999 6.762927154768737 9.163549660812986 0 1 0
241 1 24.381452022441383 8.948520230676785 10.357136853346226 0 0 0
637 1 27.38040560722499 4.991891479107971 11.40571730524378 0 0 0
77 1 25.708346137123133 5.584089273579075 9.186354897484446 0 0 0
2346 1 32.047853611944454 5.183138911318475 10.606567283904496 0 0 1
634 1 3.85862052531481 22.876349503523162 26.712721686905475 0 0 0
294 1 22.886621659759047 23.203124359802917 12.945779528145364 0 0 0
698 1 1.4820598815420527 9.170956102831191 11.077462020364022 0 0 0
137 1 7.416175434057611 7.453896652905055 6.482834486494987 0 0 0
295 1 2.6013183189560047 8.058475641246506 6.795462039309427 0 0 0
610 1 4.828773637541906 8.969965652730993 11.291918960526944 0 0 1
2404 1 8.683167096699767 9.903116868174692 7.374044835440003 1 0 1
576 1 11.352945683707194 9.485524659531016 8.203929434853388 0 0 0
237 1 13.858278140562513 6.738489981878854 9.563161538353192 0 0 0
2098 1 17.721982789806262 8.18695412504464 10.886121125975286 1 0 1
440 1 16.23769050103086 7.402714210655645 8.51468912401552 0 0 1
1175 1 21.626925228084062 9.413984367741369 11.173243321400685 0 0 0
1747 1 28.35489718508844 10.125238877711187 7.061876183822358 0 1 1
476 1 29.65363189385075 9.234811419401115 10.941696620451175 0 0 1
3774 1 32.591696168789284 2.5617036231322 3.885004130501789 0 1 0
447 1 2.6146165763113305 10.479004970040348 5.795005944668824 0 0 0
1980 1 1.7966943157756943 11.168132403416505 8.814673801841783 1 0 0
586 1 4.711384183817821 11.088232659797942 9.007627255399942 0 0 0
1990 1 6.692364827302094 12.0760215500743 7.026435858237938 1 0 0
2325 1 9.878137403027267 12.63900594926715 6.369627317214205 1 0 0
1418 1 10.916240443407922 13.35066957632367 8.939635366841722 0 1 0
697 1 13.791186864962478 10.324042832164292 7.137053916844093 0 0 1
1877 1 14.823256158291375 11.551844370446233 9.452304874051634 0 1 0
208 1 16.659501230470482 9.928897294763248 6.991825194942398 0 0 1
906 1 17.826518089622454 14.695181131808404 8.288751499110115 0 0 0
526 1 22.238290399128108 10.911443216453815 8.703185422942237 0 0 1
279 1 24.868421693025127 12.074421030932182 8.166548588406364 0 0 0
1658 1 29.450448869172803 12.813152893462046 6.981177945855989 0 1 1
632 1 26.770581819185004 10.125258458042369 9.451417873203244 0 0 0
391 1 29.83403418027205 12.017249968580135 9.71760196226519 0 0 0
329 1 32.477598090943545 12.130846345962995 10.538482735307023 0 0 1
2092 1 2.369863486001158 15.137667224533438 8.88644577141675 1 0 0
52 1 4.526318885672472 14.240417913779293 7.136007491789955 0 0 0
230 1 8.007262535597253 14.535283656507975 10.208344369530863 0 0 0
348 1 14.772045698341438 16.93134000566578 9.542304068856145 0 0 0
502 1 15.787245262700253 18.595558016273735 7.309717256597715 0 0 0
762 1 17.071889933993948 16.105355858774004 10.721774833119955 0 0 0
561 1 24.488559221381298 14.523491170996394 9.492676396375906 0 0 0
750 1 22.907099539840058 16.588959439206032 8.364349774563395 0 0 0
4 1 29.64723194510207 16.453867848824174 8.98169292976697 0 0 0
708 1 33.905701310410954 15.642144327783818 10.608881374442243 0 0 0
95 1 0.681529188419907 1.7074261858672704 9.287356862543518 0 0 0
555 1 3.524068356464322 19.652158828047174 8.985521978821053 0 0 1
1180 1 12.612047059975433 16.745518929645826 5.378760363255187 0 0 0
776 1 12.608713886175952 18.117116875551737 10.507041456678541 0 0 0
288 1 18.28502212487993 18.69587722039629 9.833708202350106 0 0 0
1075 1 18.72338244182333 17.75302022841614 7.2237675231891005 0 0 1
393 1 20.985678238937652 17.917295088456715 9.934559392254917 0 0 0
639 1 25.805710486609968 18.091774857174656 7.539688164661709 0 0 0
2192 1 26.552296286950586 16.529296268371393 10.001111741557445 0 0 1
131 1 32.24738254829503 18.718162618439052 7.155235455812719 0 0 0
2753 1 30.984305495128947 18.68165130416251 9.427146586651029 0 0 0
2576 1 11.393316689012511 23.13632113018389 13.024489331686699 1 0 0
961 1 1.5174887685018168 21.16413036282926 7.54033770690836 0 0 1
3220 1 6.587403174662213 21.619917584101675 7.723498405021937 1 0 0
811 1 11.129349739723148 21.112144305780426 7.203194813988496 0 0 0
3033 1 10.56042191480761 18.537014823614403 8.462521727687024 1 0 0
1571 1 3.256162673711096 0.784877347360152 8.879086032485688 0 1 1
162 1 15.679721454963145 21.52024035351852 7.583720976707532 0 0 0
1938 1 0.4110207736585778 7.076230923080766 5.777435733542458 0 1 1
439 1 22.31050938583507 20.454185766698355 9.878645017023702 0 0 0
699 1 24.83708852532408 20.653784593592842 10.279276304731741 0 0 0
823 1 26.16539025964933 20.802681238196882 7.710933639191964 0 0 0
473 1 2.0225817050830988 4.8988581174471175 11.006126834671674 0 0 0
1478 1 8.528471995501748 2.92614335516356 11.607632681803592 0 1 0
2001 1 2.941825842120783 1.0468447809515902 17.511620262235336 1 0 0
2929 1 0.4964611715542767 21.627749402667607 4.246956044535753 1 0 0
333 1 13.350888769319525 6.10612577800585 12.379056878600792 0 0 0
581 1 15.463100369664236 1.1488335569186967 12.775912966574003 0 0 0
98 1 20.39758339344132 3.8101876019733045 12.115618904546889 0 0 0
1454 1 21.74922252898617 2.2111179313330385 15.67017844729838 0 1 1
1524 1 30.96126202708021 1.927529206815341 12.877213938287191 0 1 0
2044 1 0.9662246460166407 22.725311626063867 24.15007023900072 1 0 0
289 1 15.779882443093225 22.5606863532103 3.552590393271918 0 0 0
2864 1 5.885598781764426 6.60219111432933 8.833509149030979 1 0 0
57 1 8.449226527364052 1.3530599992315058 8.91163938847134 0 0 0
464 1 9.639022215980775 6.88662171980836 10.172192678389601 0 0 0
233 1 9.51097034472641 5.367602136765849 7.628131357194367 0 0 0
536 1 15.609822936501926 8.014184125438952 12.676393880270767 0 0 0
324 1 15.182640222292763 3.9523495603358016 12.50084698441372 0 0 0
582 1 18.96555792266618 6.127524899164052 8.675883322287973 0 0 0
78 1 22.920272344469527 3.6518501981051235 13.489370111100785 0 0 0
1523 1 25.749438752206473 7.375202744488473 12.357483715544875 0 1 0
723 1 26.758870402414665 4.21001170632487 14.045628008569121 0 0 0
1789 1 28.25187628312978 2.365116992264001 9.967236816823355 0 1 0
1939 1 29.874702451122012 6.41802489968951 11.495700852733787 0 1 0
1116 1 18.124805409125273 22.54291424334826 18.48923543805485 0 0 0
424 1 1.5025066142214445 5.417918787128981 13.785430951936737 0 0 0
328 1 8.779266724669837 9.575142090072642 10.342435736557812 0 0 0
1328 1 12.253963122798874 8.828980147196818 10.742988230117641 0 1 0
3308 1 13.995315361282803 10.41580915922072 12.033959900928132 0 1 0
503 1 17.750847178260134 11.967324180768363 8.619825226648176 0 0 0
183 1 20.759935462295786 7.209347584694961 13.84924306266507 0 0 0
789 1 20.586261515584184 6.56508250262232 11.074330439359839 0 0 0
376 1 26.845979161070193 8.600493705567766 14.698006181409841 0 0 0
479 1 28.63134919908005 10.017853203034903 13.376868204534583 0 0 0
480 1 32.53000330064393 9.686351991441661 11.953098705123931 0 0 1
2615 1 4.88461062886931 22.265063756494627 9.594043688338424 1 0 0
756 1 3.5256652048911334 13.498364340604164 12.424106544052124 0 0 0
2032 1 5.156220759872043 13.520176795458854 10.325256522663924 1 0 0
1805 1 3.5737903656290078 9.324544101757763 13.832913800929314 0 1 0
5 1 6.43021485892697 11.293378740588816 11.883216909948759 0 0 0
159 1 9.133985152925568 12.340132686891183 10.952560999932189 0 0 0
2488 1 13.576480924048237 13.918998265868312 9.232420659047552 1 0 0
575 1 18.902574316276375 10.70820237095112 10.856636954716297 0 0 0
679 1 20.59555521323582 13.317902937403453 10.121689141628943 0 0 0
1162 1 24.422106254296516 11.466421928912569 12.252743894255406 0 0 0
347 1 26.91697208527157 12.081307225580337 12.157823949306836 0 0 1
2040 1 29.73585879387063 12.2465057624385 14.641698889258324 0 0 0
808 1 1.7928781864962922 15.412515481945599 11.743281721346229 0 0 1
2844 1 8.418332760837293 16.639812679513035 12.026898187819732 1 0 0
955 1 14.877473458848971 16.389251674568854 13.17633910972831 0 0 0
546 1 19.263737177533436 15.103883823517567 12.195104915101892 0 0 0
1051 1 22.942381033337266 13.712480902566773 11.539578401200187 0 0 0
125 1 23.710420203467695 14.990821969551318 13.846702785801503 0 0 1
12 1 28.598045651453628 14.2989171842036 11.008218084375251 0 0 1
335 1 26.42085308488138 13.920159047116575 14.083921939306402 0 0 0
1981 1 30.467019469641034 14.151907147905723 13.21208088377071 0 0 1
535 1 32.99758894969971 18.102074233033978 11.24252892418687 0 0 1
265 1 0.701391925801784 7.299186335734175 2.7749941172065506 0 0 1
165 1 18.17284179263964 0.940436609188137 13.943848414529192 0 0 0
3553 1 4.181868699998516 17.314415702008187 12.845930749618283 1 1 0
2433 1 3.021669756607641 19.473246785738244 11.67928676393221 1 0 0
1107 1 8.203192726376642 18.71776421944258 10.227894557139615 0 0 1
655 1 10.841551509222995 16.126335313990715 13.547467416985665 0 0 0
924 1 11.710329380942232 18.63836833661452 13.215713955588777 0 0 0
367 1 12.821434988283105 14.896331624821183 12.009614269604063 0 0 0
389 1 16.642066071272275 18.674852142101177 12.519248398690697 0 0 0
852 1 21.06952257775017 17.19845299758747 12.581850903703382 0 0 0
489 1 25.800725045640018 18.39683701050975 11.906384299217535 0 0 0
898 1 24.20697772913137 17.68580836175119 14.049583752096906 0 0 0
585 1 27.72343354236543 19.699910357469495 13.496092093269333 0 0 0
900 1 30.375839852686187 18.71390316645291 12.906120583972083 0 0 0
2191 1 33.04957678997827 17.867084227212306 14.514504635169843 0 0 0
665 1 17.66561134734108 21.849483178103252 26.701896111915048 0 0 0
390 1 1.5032213137293102 21.80588902333517 12.601259155895004 0 0 0
121 1 6.036913309848659 18.311537260381787 8.310488141998208 0 0 0
3008 1 1.2446088905726749 21.4589527505598 26.608132788045246 1 0 0
3463 1 19.413653911419736 1.4180572747231361 27.76961690245636 0 1 1
1155 1 11.963405563635364 21.067406375396565 10.48641804040788 0 0 0
1179 1 16.31677351500841 21.183616108678287 10.464961792940091 0 0 0
2 1 18.403321053794688 22.51398701089888 11.488348822737974 0 0 0
876 1 20.932998755257692 21.071455104370155 12.152708738373414 0 0 0
1217 1 18.29181318570681 21.68421406076458 4.87221665266451 0 1 0
2533 1 1.5523695774998423 2.735191550238255 14.893006906740375 1 0 0
2617 1 7.215259895571126 1.7139628923207675 13.792501414834266 1 0 0
243 1 11.376238253903837 0.38174064370581556 14.372517018106924 0 0 -1
1756 1 33.299637910334496 0.7149800515737135 16.182789052248204 0 1 0
493 1 20.78168852242798 4.761228531057353 17.68061785290574 0 0 0
3563 1 34.368932224616096 8.332679747803475 10.59720156015541 0 1 0
412 1 24.86431609804182 5.139125065751629 16.25416460399994 0 0 0
150 1 28.714538085170897 1.988830204422262 14.225884157065503 0 0 0
1093 1 2.0390306041619075 14.845422243514054 27.445907657383646 0 0 0
3683 1 0.48967380447979597 13.47494220127351 16.742283447587283 1 1 -1
3966 1 3.910747023274288 2.899140342325927 10.887360015144445 1 1 0
404 1 6.3133729141626445 4.630372149601886 11.263507924708293 0 0 0
2263 1 3.911022388787857 3.970822498094292 16.20136958379788 1 0 -1
782 1 9.73611025860166 5.704848511326642 15.133314524266314 0 0 0
1343 1 10.157596776381324 5.061067275985289 12.301012612097377 0 1 0
668 1 12.656106938593718 6.743219433330795 15.021813397130183 0 0 -1
3745 1 12.122417236206303 2.9758367427439185 13.025063815253946 0 1 0
90 1 14.391608299655749 5.556225100791441 16.74069669598354 0 0 0
650 1 18.929635846693042 6.008748805156491 15.459376003658427 0 0 0
168 1 23.801272631204657 6.301597293159527 13.912010555303059 0 0 0
374 1 27.4442006771331 6.620675766167568 16.82922391029145 0 0 0
2523 1 29.22477780747398 5.454258976350952 14.85661156466007 0 0 0
2193 1 33.70297853003651 5.839012253384454 27.84351171953087 0 0 0
215 1 6.141997021239289 5.75475724581207 14.07327872922044 0 0 0
2366 1 3.7868948476387536 6.573305404809656 15.097334309448412 1 0 0
382 1 7.5443861473857945 8.040227446919811 14.544604564556987 0 0 0
501 1 7.066398083344142 7.509290572542471 11.476793100974879 0 0 0
185 1 10.08300828330758 8.82332660135268 12.899000698868544 0 0 1
222 1 11.961126914737697 9.509735170964875 15.163624826844257 0 0 0
814 1 16.560863428247277 9.624670641020748 14.794364799647019 0 0 0
882 1 16.231674919446675 5.475031116831216 14.600533764092415 0 0 0
409 1 20.8023993310309 10.128981347697971 13.986050662398108 0 0 0
1449 1 28.683981105349215 9.228738098412698 17.428985497012913 0 1 0
92 1 31.16912212102021 8.43266994807565 16.70978729624279 0 0 -1
2536 1 31.30662432951276 7.5295232797409515 14.122196508949791 0 0 0
527 1 10.17730880391248 23.09192015073607 28.227147535040952 0 0 0
264 1 4.057906013233823 22.435814636470056 23.61749769947285 0 0 0
1369 1 6.660328223085303 10.964327517625948 14.590608731657149 0 1 0
820 1 9.971076055236047 11.787431359045922 13.490787319314789 0 0 0
933 1 10.726703699204183 10.823428202321601 17.33160913927452 0 0 -1
791 1 14.36118270029788 9.840131000193782 16.659629414978987 0 0 0
2798 1 13.819612991721678 12.863580974160064 16.082262303383168 1 0 0
1022 1 18.349949055370626 11.376765906120482 13.477006155033443 0 0 1
948 1 23.054323505570025 11.500907887109982 14.824672513653809 0 0 0
225 1 22.48517913158186 14.158953203295612 16.125839732656814 0 0 0
282 1 24.802546886956545 10.089752985365456 16.117063129714438 0 0 0
427 1 26.046709726924075 12.735991792991365 16.516303394926798 0 0 0
119 1 28.570559693632333 12.091620575323258 17.244488537272726 0 0 0
496 1 0.996778195303785 18.69948298549217 27.498544052792738 0 0 -1
1999 1 32.01752877069623 10.974699493280658 15.647901085955946 0 0 0
702 1 32.35701563886552 12.250069594534114 17.951826003159013 0 0 0
627 1 3.071537636852001 15.17369891004795 16.79536877549951 0 0 0
3067 1 6.742976909146007 17.273731205267396 13.884128788603253 1 0 0
2043 1 4.515420598278097 13.516908500282328 15.080893854308703 1 0 0
726 1 6.900269740768173 14.810309040020785 15.557229791177743 0 0 0
334 1 12.718457878823477 12.480063453725846 13.398892099855887 0 0 0
188 1 15.94573053325753 14.744592717500003 15.32085896451573 0 0 0
444 1 18.590258140349366 13.793037679966865 14.679092995808269 0 0 0
2185 1 20.084299031590128 14.489053981514285 17.083503883344687 0 0 0
818 1 27.66412882322293 16.512442384470937 14.232373902463303 0 0 0
552 1 30.299232960726155 16.346911686654344 14.619939909832416 0 0 0
304 1 32.64556815322797 18.88348637422992 17.16557887042696 0 0 0
2632 1 34.77948770353023 15.171062924840504 14.632806950222399 0 0 0
507 1 2.873262272196998 17.520808462624323 15.335971974106354 0 0 0
72 1 4.456459046426433 20.538701192828956 15.040842467290938 0 0 0
216 1 7.329328682506549 19.875359314253096 14.635389268064516 0 0 0
2252 1 13.078781861020271 16.91208511064082 17.378743175487145 1 0 0
1136 1 13.925655649103735 18.371970108013752 14.867614380806899 0 0 0
257 1 19.011902915767827 18.381123346528025 14.111493816158198 0 0 0
768 1 22.249755802366998 19.85284115520572 14.228219134125414 0 0 0
86 1 19.515713277505654 17.23860058711206 16.991609083278114 0 0 0
396 1 25.43793908552508 18.90947541168055 16.41027132131247 0 0 0
204 1 27.032629467378385 16.408629705611343 17.0987662792458 0 0 0
2035 1 33.82196796186906 11.590866134798299 13.790727973182822 0 0 0
2863 1 5.34294180418186 21.630028701075915 12.368916820202276 1 0 0
2299 1 9.953996594283721 20.825616259288534 13.768445600421593 1 0 0
1300 1 24.85035904675426 3.135632776072599 8.25412687972099 0 1 0
587 1 18.829472035210166 21.497793741637338 14.531486525011193 0 0 0
262 1 22.746526180130036 22.483988414760553 2.1970057414032427 0 0 1
229 1 14.339411056666064 21.857345533286825 21.621853576532743 0 0 -1
2751 1 0.9744536945298146 18.891735732682896 22.04278604142117 1 0 0
511 1 23.534295457619255 20.140656061449995 18.058844784982387 0 0 -1
670 1 24.10959781163359 21.904326404307096 15.087457963934902 0 0 0
2519 1 26.718558446611617 21.28147100996717 15.539922405554307 0 0 0
148 1 5.317399919813687 19.3612360844204 2.417710523341832 0 0 1
1750 1 5.790526674122772 1.1413195286787867 17.584760944335752 0 1 0
81 1 6.569468077026434 3.3702261004944085 15.772092488632284 0 0 0
224 1 34.836566817474925 0.3883559507308423 23.674754903101558 0 0 0
662 1 15.428959480569668 3.07005472748373 17.985660080113153 0 0 0
1640 1 18.597719802130655 3.1001790863307623 17.584312771197773 0 1 0
672 1 17.39455787661677 3.284073849183011 20.12020641746952 0 0 -1
1556 1 22.16371488470712 0.5148287776253344 19.524415206154128 0 1 0
1526 1 26.937585897478712 2.616194378291614 18.267779473601195 0 1 0
1511 1 7.387684876644633 1.442546742403905 28.90550254726371 0 1 -1
919 1 7.5317487813945645 22.64139916789229 20.30628115388132 0 0 0
189 1 29.47575714934741 2.770437724580005 16.7579911700968 0 0 0
291 1 32.80044649279959 3.514129294794427 17.084794030824536 0 0 0
3360 1 32.982487908651834 2.9344855192904755 19.675336071567944 0 1 0
1537 1 2.328843166014482 3.2022839549236544 19.298011195537914 0 1 0
443 1 8.74428225392458 4.138753686771832 17.516755253384385 0 0 -1
1589 1 11.299232861399096 2.7657683407963978 18.591067196540088 0 1 0
205 1 11.742196604119169 3.733112417282896 15.920383662635162 0 0 0
385 1 23.396594325882553 3.4670286406392137 18.16689295410347 0 0 0