LAMMPS data file via write_data, version 29 Oct 2020, timestep = 50647

4096 atoms
1 atom types

1.5266632446371915 68.4733367553619 xlo xhi
1.5266632446371915 68.4733367553619 ylo yhi
0.6390176152552502 28.66098238474507 zlo zhi

Masses

1 18.015

Atoms # atomic

171 1 19.355101381357777 2.2572573301754773 19.04113791786058 0 0 0
1931 1 34.44754245907492 4.66465604022694 2.6524868753149176 0 1 0
230 1 11.678212385732106 3.774036765882432 3.9151462656671314 0 0 0
649 1 16.301112532415292 2.727044691799432 28.36403009282273 0 0 0
444 1 21.769280657602845 2.6968282333996445 1.9999705597645987 0 0 0
382 1 27.038571337333547 3.734539692780813 1.250064534802448 0 0 0
1726 1 27.190533722827922 3.5140355451215215 4.4638280231974345 0 1 0
431 1 29.73970800881296 2.662150970366496 3.007463038979687 0 0 1
365 1 24.128899765066528 2.486576247533403 26.65163629030389 0 0 -1
2872 1 2.1060098151292213 19.28430443015673 12.126473872709946 1 0 0
2092 1 2.2967596950673475 5.239114152376396 27.85282597361259 1 0 0
2216 1 5.184030043196556 4.828519296098804 27.040184002270387 1 0 -1
2591 1 8.82328777644306 6.998625255761805 0.7809492668247682 1 0 1
1491 1 7.764122879683675 5.029883288626735 2.4020944870270924 0 1 1
425 1 11.367875382869299 6.357641218102612 2.2942705032255466 0 0 0
473 1 13.410460313739858 8.026068794020155 1.7720473488400985 0 0 0
1704 1 17.019744850795213 5.3539689547187015 1.512676267181682 0 1 0
104 1 18.87895324440064 8.547378417134919 2.4124783676683474 0 0 0
559 1 19.537257935603854 6.023754004987066 1.1737077512125478 0 0 1
21 1 24.068892853471183 4.310644172565576 0.969911584983578 0 0 0
126 1 24.739957973419983 5.274076992455714 4.7378959143136665 0 0 0
92 1 30.61830077238757 5.336564067277636 2.9265720804589828 0 0 0
200 1 32.60905153491159 6.531813142307955 1.4559331124148898 0 0 0
322 1 18.499018018983417 1.90858778423389 5.493655329140113 0 0 0
2215 1 6.542305593009062 10.740284484602336 4.289800303713983 1 0 1
469 1 11.065164068263332 9.226383228718998 27.602552070972813 0 0 0
1214 1 14.008268788998354 10.922414314121825 2.736000512504481 0 0 1
141 1 16.419802518032522 8.91170235268985 3.8699028002948874 0 0 0
390 1 23.021357034266373 6.200068010212039 2.6757965421400085 0 0 0
592 1 22.657308600361592 11.684071328172395 4.36572965776502 0 0 1
453 1 25.033669188354978 8.310037956409872 2.8717833511484003 0 0 0
324 1 31.140904647009336 10.170919611543118 28.42463096370482 0 0 -1
2294 1 2.307645691426766 11.401076970714087 4.428355308794266 1 0 -1
4090 1 6.82737491930121 2.603271819518885 27.244753337363278 1 1 0
30 1 5.573726165606742 13.323192908189785 3.826734022403016 0 0 0
2810 1 4.388355333990241 13.374959495159745 1.4007255173528532 1 0 0
2965 1 9.512553137034299 10.340036411415468 4.279652829627441 1 0 1
575 1 11.03984338189459 10.988671043755929 1.9006746960691696 0 0 0
2565 1 17.344338073096885 11.862609858486048 2.8441223579811865 1 0 1
294 1 17.359283644982106 14.820931207288425 2.8076651904263223 0 0 1
1952 1 25.22520472475525 12.817016151923154 4.628863667958916 0 1 0
312 1 27.519879503834236 11.448365970683735 2.9257833905860875 0 0 1
1208 1 29.200256722165246 13.48537329573144 4.15779595912654 0 0 0
535 1 34.74182133680792 12.053182463182312 3.6669695482771045 0 0 1
85 1 34.936241836629776 17.92315043956695 24.649466139038154 0 0 -1
387 1 7.7180273143983715 15.164603816845714 3.439085899931036 0 0 1
290 1 15.05046206251551 14.969792958969682 1.7814557485352642 0 0 1
855 1 16.95881957027622 17.58846855686777 3.178735224398365 0 0 1
165 1 18.022586270608805 14.871880127526362 27.987198355916235 0 0 0
202 1 20.34729856165879 15.838535588547128 27.76467472784372 0 0 -1
283 1 26.04073071010591 15.064321251775745 1.463267043354532 0 0 0
349 1 24.470613919840872 15.393539983576792 3.9247872261089682 0 0 1
796 1 28.015785328952628 17.702296609407522 4.303385479798884 0 0 1
103 1 31.53604920826505 15.291627497810898 2.349445885675386 0 0 1
356 1 28.764081485385592 15.726627609298868 2.4818247585796165 0 0 1
2641 1 33.35332493338319 17.639213522183887 3.424734006723324 0 0 0
488 1 7.285916784116978 16.506309821030534 1.3480567930592118 0 0 0
2597 1 3.416842803485197 17.018476457883065 3.5913493020873104 1 0 1
1102 1 8.308185154220844 19.21823308259169 0.8435349945041116 0 0 0
114 1 13.792882988074174 17.451622616447278 1.9658178596402842 0 0 1
775 1 14.514882609757114 20.16316562126813 1.2121955283144836 0 0 0
1070 1 20.121449790110894 18.506840120841805 4.2693166521771655 0 0 1
718 1 21.785759294981716 19.04994330571441 1.6311210897800783 0 0 0
974 1 26.40273086894341 19.6420520341776 0.9869618450149181 0 0 0
28 1 25.114419333237283 21.881508526217214 27.836132700976528 0 0 0
2669 1 30.35073714714051 21.68388360511636 4.567278027667985 0 0 0
2988 1 32.200074606590405 20.286688896158886 2.7721787081200393 0 0 1
2040 1 31.77656416479818 23.317829263009735 27.499696183521174 0 0 -1
93 1 3.9005115113747766 21.762022551089867 27.729288729263764 0 0 0
2773 1 6.439042958308969 20.561117134241574 2.880178398713568 1 0 0
896 1 12.377934397157402 21.932462124361926 1.3179334008672496 0 0 1
1193 1 10.442616346675884 20.48959474943278 2.4817185220035385 0 0 1
1011 1 16.460219010973358 21.32567239888987 3.1369758951800457 0 0 0
20 1 18.45297264795343 21.595054094622764 1.0153616920766773 0 0 1
62 1 34.00897921577297 11.496279077551582 12.332279233713283 0 0 0
4056 1 7.325313905289079 1.9670925061666564 15.455937761020214 1 1 0
1093 1 28.81927685748494 22.432677007552222 2.2224669854813675 0 0 1
3961 1 2.1809198614150476 2.4737409504610026 26.494073503386304 1 1 0
401 1 4.568808366597436 2.4760379421882344 15.689088223309719 0 0 0
1432 1 5.036585254656432 3.7466652446219797 1.8690521560260513 0 1 1
3758 1 6.921977110912955 6.494346578382636 6.366421533804066 1 1 0
2240 1 9.003836057788629 5.079769786120163 4.672435345633543 1 0 0
102 1 8.870395809340573 2.8878497365110505 6.239251953949466 0 0 0
215 1 14.554038723877094 3.164455597859205 4.590395163077556 0 0 0
597 1 18.03586181487572 3.645342079609248 7.588720354140018 0 0 0
2718 1 2.5792097079733645 22.949896109992288 15.472571387548038 1 0 0
1845 1 20.77516371432482 3.2228227230767725 4.488524985505199 0 1 1
299 1 24.942912980258175 18.108845976939683 26.913581641267072 0 0 0
492 1 16.096103764243686 21.292802899374482 27.270653840739065 0 0 0
725 1 28.717960235852832 4.581890809639695 6.301377939539761 0 0 0
347 1 34.51494541202885 21.378290799313387 26.844248395294883 0 0 0
94 1 33.59393207167166 3.108826970786127 5.781231887268258 0 0 0
3413 1 5.38314802101889 6.112952329073244 3.8268663579460718 1 1 0
728 1 10.495305369853774 7.6531406747795625 4.528433846373508 0 0 0
170 1 13.779351009003113 7.307607827508038 4.559576800888037 0 0 0
70 1 15.928416349863122 5.394799501558474 3.7707237051921503 0 0 0
588 1 18.065301721403344 5.8205423058048185 5.773429373482336 0 0 0
249 1 20.355130646861788 5.793924531463145 3.965809699311756 0 0 0
2330 1 20.97955780102794 7.7363461729709115 6.090564429194239 1 0 0
563 1 25.02737818785396 8.169317062084957 5.789877277760198 0 0 0
1587 1 29.076855054457166 8.794984404936553 4.621179912475675 0 1 0
511 1 34.294448028346416 5.944662421053491 5.401280766941633 0 0 0
3408 1 30.315480408175148 6.488301483963133 5.450025264862686 0 1 0
204 1 11.02246742594895 3.0457822354322452 8.174176336451143 0 0 0
539 1 3.3887033629554617 6.323763999174697 6.000448936361539 0 0 0
1997 1 5.5094206429645105 8.643349739684508 2.5885358448216187 0 1 1
2815 1 4.3506368243948526 10.867335218966419 5.855288936203756 1 0 0
729 1 8.04875252029902 8.885332898369153 6.478070203779361 0 0 1
2322 1 7.994784772162764 10.760346233082105 8.552905870422777 1 0 0
240 1 16.60226713370414 10.32969648374756 6.004203924606066 0 0 0
2 1 17.535339868876303 8.002845212507296 7.529606768547433 0 0 0
689 1 19.626650711556767 10.401376773857173 6.4946014733206 0 0 0
1497 1 22.83023139873382 9.879365844795041 6.366258727173018 0 1 1
1566 1 31.424975057044204 10.359372204215283 4.054535948075032 0 1 0
250 1 26.870756237825827 10.297374688415474 5.938898363754346 0 0 1
416 1 32.81210683628774 8.40407785022543 5.731612258129649 0 0 0
2456 1 32.147343723501166 13.085308805075101 4.44090795918504 0 0 0
2598 1 9.868114948386435 12.493178193940613 5.569036035141813 1 0 1
56 1 7.856072941761628 13.58302862259314 7.545938045971893 0 0 0
1319 1 13.652281684375328 9.969685433590579 5.88249642360789 0 1 0
1490 1 13.827525119146213 14.170758971389924 6.72193653582155 0 1 0
385 1 19.79040928673947 12.358340596106798 4.5567217767702815 0 0 0
288 1 21.72286310504171 14.724786221533591 4.3286352269194435 0 0 0
74 1 26.191301331824224 13.334866491444282 7.354763349344859 0 0 1
164 1 28.60898496341026 14.322068898832073 6.6357593395954035 0 0 0
304 1 32.63436746369331 14.78731362129851 6.6774969354807965 0 0 0
2811 1 4.126695644470753 13.109840348632336 7.609490553711182 1 0 1
919 1 3.8743130189364767 14.936555240667849 5.466542582719517 0 0 0
785 1 13.585725259269653 13.654909989345354 3.764574692689327 0 0 0
144 1 19.34848066096041 16.16234969803621 4.829718158514851 0 0 0
1129 1 22.055769975818695 16.253101710065458 1.8976716179890751 0 0 0
740 1 25.23360912464101 17.257069405273665 5.730388287917407 0 0 0
345 1 32.16823606627925 17.74775789508418 5.917752653730498 0 0 0
2682 1 5.324507835507404 18.63972650234886 4.925598726806786 1 0 0
557 1 7.7444869598563795 17.144518048304647 5.46681959674985 0 0 1
1065 1 10.678463324507108 14.35297330129047 3.8779585031300985 0 0 0
243 1 13.80435856038138 20.391284426914627 4.4992963120770835 0 0 0
651 1 18.411507064868655 20.448681237850607 5.404435695477079 0 0 0
542 1 16.18349428984459 18.70168724100347 5.348523392383758 0 0 1
731 1 23.34653680491232 20.09690885200061 3.679333333907448 0 0 0
756 1 26.160973708732104 19.659718769657 3.758277545982045 0 0 0
186 1 29.89840391503675 19.444195804767915 6.173724728840668 0 0 0
2197 1 33.75269597207709 18.509175664354036 7.771524653632063 0 0 0
2660 1 7.8413341240091725 1.9576802178105837 24.5640792906555 1 0 0
53 1 8.159242732787156 19.95611056877735 6.332664185682476 0 0 0
3077 1 3.002555021085502 20.953849511323696 4.06407669345817 1 0 0
707 1 8.724422982357389 21.54891257831606 4.3633983493067685 0 0 0
320 1 11.974367287255792 18.490589774265988 3.7363495238098063 0 0 1
1923 1 34.98416141506117 5.946726604221926 26.35353916957112 0 1 0
994 1 22.972874905696855 22.693787572199508 1.7584370117460504 0 0 0
295 1 20.998428912461556 21.660760492405025 3.759548203264312 0 0 0
480 1 27.09069270845703 21.85190524781144 4.8581546855000575 0 0 1
330 1 32.24002861046715 23.776092601529417 5.590736422308278 0 0 0
1428 1 2.374604102234852 4.94478329829411 2.5006170803239285 0 1 0
135 1 31.340382133387966 23.129830797771273 16.471733180897004 0 0 0
2244 1 6.523561656459516 3.1267037258449246 8.282545567181348 1 0 0
619 1 16.93707910924494 4.583056299928586 19.873076905143435 0 0 0
705 1 13.526666813915666 3.9355879020831064 7.366823988846089 0 0 0
1793 1 15.639144827521466 2.657295677252981 8.696084315528577 0 1 0
2803 1 19.820119430460856 4.4078207803196925 9.556300921455202 1 0 0
1307 1 26.264286096732977 3.861616124669792 8.13970114597042 0 1 0
552 1 23.61131616766863 4.6480676044155445 7.24972457411358 0 0 0
650 1 30.367563321647527 2.511574975397607 8.700166434548777 0 0 0
1728 1 29.101156647022723 3.5400934235414336 10.765372782467452 0 1 0
2234 1 1.9305254669671261 16.781992287713585 19.929369635004157 1 0 0
3862 1 2.1428415863830987 5.002982459732553 8.28173638492505 1 1 0
1673 1 6.934985729541538 6.018936163792735 9.484710298915083 0 1 0
3951 1 3.7217266718301327 8.666277854819434 7.609562153314916 1 1 1
537 1 10.503352501229452 7.6245115864740445 7.663008374792 0 0 0
1831 1 13.171236295331536 6.692175352953263 7.288922944128522 0 1 0
1199 1 14.807469726725628 8.509463658474992 8.571713572147335 0 0 1
547 1 21.584459808331818 6.186287377394148 8.514138975815785 0 0 0
1803 1 27.60348852388504 5.497012346079241 9.760433980546738 0 1 0
268 1 29.2669475020935 7.362891805212685 8.335617507394545 0 0 0
520 1 32.90316364823629 5.742317423085166 10.56266278360878 0 0 0
80 1 20.930879006115898 1.836064596756818 14.893848883287452 0 0 0
2014 1 5.674928146057309 8.75605834495509 9.398575340205195 1 0 0
1899 1 10.4300698904936 9.69521520117856 9.357983796215684 0 1 1
544 1 13.082487790914497 10.030038791472887 11.867936241527854 0 0 0
694 1 16.261015076941227 12.897575439215185 7.179274373924175 0 0 0
1955 1 19.493374749345463 11.344799784713144 9.068494237852423 0 1 0
367 1 25.449821594583096 7.97374923040716 8.571111401613138 0 0 0
1737 1 23.928918518994927 10.243434844686814 9.286434982415454 0 1 0
112 1 27.705302949593015 9.589593270576295 8.484287616163577 0 0 0
235 1 32.82638912953492 9.429833477535407 8.285829300628254 0 0 0
644 1 23.470158006948484 3.589247705204648 19.073686819985824 0 0 -1
1398 1 13.644818377909244 3.068516576181004 1.5857846168135554 0 1 0
2604 1 5.393914892915972 11.158098234670135 11.70575421072302 1 0 0
836 1 11.580388365571038 12.948323119267119 7.551724301585293 0 0 1
316 1 12.959427520017426 10.656937928530231 8.562391935484737 0 0 1
1478 1 13.97560086609765 12.566393007898542 10.650255318102621 0 1 0
493 1 18.22917931068149 15.234414695218163 7.274837669730211 0 0 0
426 1 17.001087228303035 12.719831580706465 9.885088593656533 0 0 0
491 1 24.584137319063966 15.382918585126857 7.799814064692676 0 0 0
1976 1 30.55600845123111 14.003201593124963 8.625955504173264 0 1 0
2270 1 34.59296145936923 14.168508545477632 8.452206435836638 0 0 1
2187 1 5.125709044353444 17.357441422144046 9.345819222017477 1 0 0
404 1 6.259451393463238 15.811338087969194 7.114390319654103 0 0 1
1162 1 10.395658186722924 14.099098370979839 9.62389143266567 0 0 0
105 1 11.509438300196313 17.97403536049331 8.040876564426785 0 0 1
51 1 13.8199735861692 16.43186090630519 8.222426978925427 0 0 1
2280 1 15.117553519540069 16.344499212136824 10.899940526201485 1 0 0
648 1 20.495715626329815 15.917864620115584 8.912567722006031 0 0 1
339 1 22.153973042405468 15.484214339343703 6.891115788289691 0 0 1
2207 1 10.271259813438704 1.807051183867335 17.546999343862375 1 0 -1
354 1 22.650137826262362 18.344401692278577 5.834387007990403 0 0 0
395 1 27.958317176468718 16.855182579022156 6.932162524844247 0 0 0
100 1 28.280735318440087 17.3711145386656 9.676914982724844 0 0 0
449 1 34.44167376665023 16.459216717952785 9.769067639983472 0 0 0
2196 1 4.432735975538119 19.155832009106554 7.685609564108659 1 0 0
947 1 9.04546719877612 16.25850527857247 8.570748309057143 0 0 0
1213 1 10.522127349177017 17.01255283361465 5.526704988809506 0 0 0
605 1 16.339333493872324 17.497980038474115 7.667072696894559 0 0 0
711 1 2.2139910644520198 22.46373484711365 11.323421007358803 0 0 0
178 1 22.90542549213795 20.055389119367057 7.819417917161647 0 0 0
127 1 30.174779770609003 21.134600766664587 8.65208593820283 0 0 0
2692 1 32.81089929579496 20.79343674097983 9.163857779999697 0 0 0
3703 1 4.0900500867374285 1.9917934662516408 4.03215254245223 1 1 1
2968 1 6.261836062824893 20.98273473485001 8.914590971590064 1 0 1
1184 1 10.385777152564106 20.559280246233904 8.127878277241898 0 0 1
1150 1 10.909651001089314 22.874157485812148 7.235588161581725 0 0 0
1412 1 2.5453414127951532 8.872795150250743 3.0225881320224137 0 1 1
702 1 14.907013115278698 21.74339814620449 7.524801270802497 0 0 0
257 1 15.043010273871712 1.9838021676184416 20.68549900068445 0 0 -1
503 1 20.688539682400535 21.647079886209173 7.170247263564157 0 0 0
1109 1 3.8178721885367413 23.23010941843498 17.983579018007795 0 0 -1
3086 1 26.406040313889147 20.105404702452738 11.676721514972112 0 0 0
2507 1 34.81526395546452 12.436483831138705 0.9337569013532967 0 0 0
1957 1 34.91326196302079 5.503090031377399 19.437856789581133 0 1 0
226 1 33.85811141694099 23.10863539357706 7.723666797958253 0 0 0
42 1 10.074415248348265 22.589025375537588 23.977441686431803 0 0 -1
2562 1 4.359220964630248 3.7758895432053823 10.06633808062667 1 0 0
3645 1 7.8390324122009405 1.820978790607311 10.516769313860264 1 1 1
1381 1 32.72856025193379 2.4600527214978625 27.34415031016924 0 1 0
81 1 16.14292089370641 4.30229168430189 11.088732562623186 0 0 0
2255 1 17.184260373554146 2.214620050836348 12.81493043469741 1 0 0
1495 1 21.3211945111477 2.3876254767646627 10.474784336897443 0 1 0
1411 1 23.702681478855745 3.163243961812186 11.705643070340065 0 1 0
16 1 27.018449863041536 3.0689353958809686 18.330096714637023 0 0 -1
2832 1 4.996782088162567 5.4015002279999305 12.084501226498615 1 0 0
91 1 7.379843732604928 5.804417220528734 13.360980116521992 0 0 0
3338 1 9.916292949941722 6.356471529770154 11.926019514413714 1 1 0
743 1 9.730342606287131 5.550630025293216 9.392511119479177 0 0 1
193 1 13.981904688972877 5.580953418398252 12.354979397141395 0 0 0
1514 1 18.525012707922688 5.7611980004893235 11.727237372782728 0 1 0
1780 1 23.457622943677183 5.998436453163314 11.932051214717882 0 1 0
1993 1 22.19477914423031 8.332874530533404 10.357129983995883 0 1 0
279 1 26.127154004410517 6.488190080796341 11.892823906312024 0 0 0
566 1 31.37799196459123 7.717829808594926 10.148320445161719 0 0 0
1246 1 31.396853606514025 4.589559583605789 12.618270411446314 0 1 0
2115 1 33.5936604118552 3.0142445225666816 13.152137122013492 0 0 0
1564 1 26.02198189494954 1.7286636172282883 9.918084544986828 0 1 1
2159 1 4.0952923027995505 7.837257568012697 11.5946280944935 1 0 0
600 1 10.318648050307187 9.372436134918473 12.346894475379601 0 0 0
436 1 11.256946014826957 11.482394036822091 15.604462666843743 0 0 0
168 1 15.047134425932764 8.037527032717527 11.385844254952664 0 0 0
2089 1 17.784669653731868 8.880677580429865 12.090617115289778 1 0 0
414 1 19.391965818906062 8.466077187317843 9.872070280663896 0 0 0
218 1 21.15578807984021 9.916345138362773 12.63879559510697 0 0 0
297 1 26.287323059499744 11.917446537046114 9.81203090656048 0 0 0
26 1 26.99413684090324 9.258479120032597 12.07902990157077 0 0 0
3657 1 30.293037353222697 10.767676162741365 9.394789669318861 0 1 1
1937 1 29.5553604908261 10.687229845875388 12.138563655763077 0 1 -1
565 1 15.37727961388667 2.3913727544897627 24.05968232248587 0 0 0
2163 1 2.8205952974174453 11.263808541749226 10.78007856831939 1 0 0
1195 1 5.790451350832769 13.819236268178956 10.260085918700884 0 0 0
90 1 8.415138527436508 12.458825258183465 10.931863506215084 0 0 0
438 1 9.35182106463757 11.825109685777386 13.749270893095215 0 0 -1
661 1 12.761146505082353 14.36937871667542 15.909639730998899 0 0 0
472 1 12.508440123540751 14.869476704614343 11.07983608475906 0 0 0
397 1 16.515922905380226 11.478131395057375 12.622735071463902 0 0 0
551 1 18.50893347719639 15.223480053215871 14.646912393775816 0 0 0
5 1 21.23518413764854 13.387218662564013 9.77861809693316 0 0 0
1533 1 21.546249188702443 12.709700061357564 12.525020522614822 0 1 0
736 1 26.021080092346853 13.861789122805934 11.70797264211506 0 0 0
1573 1 28.563016645779605 14.892564899313196 12.888346813799052 0 1 1
2716 1 32.997775806973515 11.953328114659454 9.80330219337816 0 0 0
2686 1 3.462156229900572 15.610454052997701 10.668007770516065 1 0 1
1911 1 5.575756928859182 17.115319650827008 14.303088659197648 0 1 0
187 1 7.483892303689381 17.202242194291763 10.745823410615943 0 0 1
795 1 9.642045554817274 18.559120605211625 12.188429565636993 0 0 0
2659 1 11.88748302667934 17.783387648705947 10.843297642793395 1 0 0
396 1 17.666108444404767 15.452393809910392 10.428108483032908 0 0 0
1073 1 20.65016361004896 17.978977953415768 11.102950778232385 0 0 1
107 1 20.293207841335423 15.591914290629095 12.268694502575809 0 0 0
784 1 25.691515691876052 16.056892969218985 10.286295606199767 0 0 0
282 1 30.179053616303865 15.603352173354697 10.6045127669115 0 0 0
1880 1 32.44034831116598 16.7470505510114 11.622198469880423 0 1 0
2380 1 33.517403762277056 15.529200202999796 13.845260953881834 0 0 0
180 1 4.547322537658813 20.22855440186176 11.120723688853452 0 0 0
1140 1 1.6779339479225348 19.34938880044265 8.16567317432869 0 0 0
833 1 8.640020309201166 20.81099631951285 10.080523021734209 0 0 1
2783 1 13.914409672507173 19.251704398916306 11.959957975216158 1 0 0
692 1 18.153954839560686 18.400014769961267 9.74784140301362 0 0 0
3217 1 17.785762912782527 20.698818493616724 8.341482100033645 1 0 0
146 1 19.7271599473549 19.408224377433434 13.740288748347371 0 0 0
671 1 22.228249195501682 20.547226430100718 13.299835651851058 0 0 0
1861 1 23.080636529051294 19.11380420382103 10.945328014395088 0 1 0
641 1 24.866392275631895 17.58927192959022 12.123246099159408 0 0 0
408 1 29.08640691166796 19.76676473579978 10.81911223438152 0 0 0
33 1 31.010729331066944 19.3706772992976 12.480210683772139 0 0 0
37 1 33.03496135041592 20.972505991974206 11.75315624351354 0 0 0
922 1 12.994396927367761 22.793869417336236 5.63668080733389 0 0 1
132 1 2.938518805707372 16.78644577096854 13.286893926477145 0 0 0
581 1 17.39101655865707 23.443516919239638 9.61653357662067 0 0 1
865 1 9.791802386238919 23.29626750546401 10.324649484796057 0 0 0
1134 1 13.932783101101831 21.708502194111237 10.061241054314467 0 0 0
183 1 23.357664194655477 1.5947999755222904 14.015904858207579 0 0 0
318 1 21.143257229663256 22.678926618090472 11.819962900961622 0 0 0
2768 1 24.683869733171182 21.703763048266826 9.870753761786201 0 0 0
583 1 32.37236785409196 22.048863084868383 24.711383993595312 0 0 0
746 1 32.721956784039875 23.751653052961885 12.290417836131208 0 0 0
2423 1 3.5544675087217468 4.419319490826322 14.12001500796543 1 0 0
7 1 25.16333491445048 22.77648188954004 7.2509761057406905 0 0 0
466 1 8.358982498980502 3.392246828414584 13.074031958015588 0 0 0
1768 1 10.84906037898258 2.656213613392121 14.77437410257799 0 1 0
78 1 11.64012448677691 4.010620732178687 11.802063341029891 0 0 0
214 1 15.08310333738959 3.611033811757621 18.210086685316206 0 0 -1
1787 1 16.461025592365978 2.678972721560287 15.584437552051085 0 1 0
1371 1 19.113982322721714 3.700761501462068 16.629009929725573 0 1 0
1661 1 25.139080602174836 2.695786444096645 16.00685322693798 0 1 0
2335 1 24.074578467489328 5.300949910065691 16.724808771902268 1 0 -1
1502 1 27.450584849831262 3.0262130793360407 14.493791168221493 0 1 0
505 1 19.456116546389534 23.797963235901374 13.819343887351733 0 0 1
2846 1 29.0290729416882 22.885811761779078 27.49199760070679 0 0 -1
2138 1 3.809402329879056 5.828222763103572 16.44348392330528 1 0 0
83 1 6.386586229927627 7.002830402629777 15.753442172554276 0 0 0
527 1 11.897294685245276 7.181660125006582 14.051132574093932 0 0 0
594 1 14.708706254150753 4.746693637871089 14.860636669407073 0 0 -1
1705 1 20.01382687677043 5.415211507045061 14.272126620965643 0 1 0
2128 1 18.171454547385082 7.639950128902222 14.73059770576014 1 0 0
2002 1 22.47831866248769 6.536639160564009 14.602827474376415 0 1 -1
622 1 21.744863999940524 9.24877718187488 15.173031369162851 0 0 0
540 1 27.419769318110745 5.585117947094447 14.228473681109412 0 0 0
1989 1 26.736710006620296 6.4360331388166525 16.68115831346359 0 1 0
508 1 29.847848367703442 8.749706345663064 15.487240912834983 0 0 0
2804 1 30.965353291902527 8.706896588335312 12.951103821593202 0 0 0
2061 1 2.689155471148979 9.699436767488379 15.621406367593577 1 0 0
591 1 28.746659108315665 22.215853601303408 24.893676485770627 0 0 0
675 1 5.130584617797403 9.0700674954382 14.116120302801075 0 0 0
2717 1 13.708757426883443 8.935499663329749 15.826934719092593 1 0 0
247 1 15.805550146950285 6.934030512879399 15.893276981314244 0 0 0
584 1 19.631873292451434 9.119086965188846 16.61819446253524 0 0 0
443 1 18.75087887520316 12.4460582438911 14.102781636546613 0 0 0
145 1 24.09594694226211 10.393850059256646 12.491314754246382 0 0 0
1753 1 27.57190750095501 9.975467638274134 14.946557627008591 0 1 0
631 1 33.75017384691534 8.893665842954958 13.53925471446197 0 0 -1
1254 1 33.46267410695722 11.515707460981803 16.311504772253553 0 1 0
750 1 4.951504827451101 13.778120818480806 14.740936806033508 0 0 0
222 1 6.729071688372301 11.800512754227864 14.515629246153797 0 0 0
698 1 11.399710897468319 14.331250220789718 13.424694415621191 0 0 0
89 1 11.32462044576098 13.53998020179527 18.25436084220538 0 0 0
231 1 14.173004469614066 11.408501600277207 14.434932904116605 0 0 0
329 1 17.967195702869443 15.33029858095512 17.18255072571811 0 0 1
632 1 24.061675658298196 13.232937226646765 13.428727346828962 0 0 0
738 1 29.77230606150792 12.735570846484597 13.989244564215186 0 0 0
983 1 32.505066519958305 12.93081174318661 14.275679056922554 0 0 0
732 1 6.932308998009122 14.931922541966534 12.6702159660567 0 0 -1
415 1 9.34960479516172 16.144899575205287 13.989391211089218 0 0 0
1606 1 11.881804455957889 17.155227149688272 15.680654146661212 0 1 0
334 1 16.91211744916767 19.228405773921804 12.068704644805823 0 0 0
1120 1 16.527518981173984 16.95252842362118 13.62205873551965 0 0 0
161 1 20.589618478318638 19.036901595987246 16.37086282034315 0 0 0
595 1 23.023848173291267 15.738277472129518 13.49246930463101 0 0 1
27 1 26.650460449890282 18.173704807611706 14.51327616335109 0 0 0
3667 1 28.989236490828414 16.733926910675862 15.034882787734352 0 1 0
2664 1 33.572862823685654 17.366314047457145 15.854565587217493 0 0 0
1784 1 8.001322109486086 23.55041804950531 27.5242685606052 0 0 0
35 1 6.3470480537391945 19.979217921277915 14.416614971316397 0 0 -1
326 1 8.615225115701376 21.17859658454946 12.992849105618179 0 0 0
116 1 10.223254291146802 21.354689912186874 15.378675952220537 0 0 0
124 1 15.555048262985778 22.716312953453563 16.480052322414245 0 0 1
554 1 27.22238066905184 20.61628935649625 15.08620694845979 0 0 0
525 1 31.052760022496646 18.580051137342306 15.661877078744938 0 0 1
1758 1 33.9184816821173 1.9784931142969322 10.625477209140012 0 1 0
499 1 21.223088496824158 23.49210075042299 22.18881012708895 0 0 0
825 1 4.359332338739967 21.95641120874907 13.630931893789189 0 0 0
1009 1 13.602318257806077 19.118666378586486 14.85879296800151 0 0 1
2243 1 32.7119383584715 19.340411412306114 27.010333268620442 0 0 -1
1303 1 31.693523801443696 2.387121438601951 24.430347289709132 0 1 0
3302 1 17.386792633320333 21.497760772609112 14.082450754210521 0 0 0
265 1 18.068627353751776 23.530423095473846 24.69414606590543 0 0 0
1684 1 23.034000469127573 2.0724261069668617 6.11431103693952 0 1 0
666 1 26.00289251726216 22.38647254466805 13.242460481227809 0 0 0
745 1 29.950659467804016 21.152483001683102 14.472281502365119 0 0 0
460 1 29.82737471427589 23.656014140325016 13.139580201927327 0 0 -1
1297 1 10.507826702021 1.7985851354782039 22.484452752220697 0 1 0
3549 1 3.621907951897356 3.664824078589125 18.31807543298379 1 1 0
3438 1 4.06997446009477 1.563062430731603 11.760876698025127 1 1 0
143 1 12.590711480645705 4.788531067425351 18.594253228136715 0 0 -1
506 1 12.203993373380658 4.898562846773986 15.80484917390884 0 0 0
1669 1 27.88499246566214 1.572036064118579 12.183925912339452 0 1 0
458 1 2.098027848924137 19.079848150345256 18.29018513154047 0 0 -1
256 1 2.0980506746326415 17.522445837025288 22.645438968291742 0 0 0
573 1 10.573103428248494 1.564039974818844 10.812648070201291 0 0 0
1586 1 21.46427629811599 4.766686838430756 21.339361228866572 0 1 -1
2024 1 33.877774654584876 10.12921762942241 24.329625170636653 0 0 0
1426 1 29.4310801211835 2.369163713499148 16.36871473030022 0 1 0
2258 1 32.27956986677338 3.3560045241208956 18.829782255610354 0 0 0
1053 1 22.448601931429486 23.42586437299941 5.848714349007927 0 0 1
154 1 8.353820941130058 8.624711106296763 17.331318703473883 0 0 1
468 1 12.306663589587393 10.998669346909603 19.19795203177823 0 0 0
1583 1 14.90337478795827 10.325010303729268 18.519908619933034 0 1 -1
2706 1 28.248379508013198 5.604347718560177 18.783023738148934 0 0 0
1720 1 29.963668850170908 6.0967255443895105 14.788942324978702 0 1 0
38 1 30.55177197915743 4.930594771658308 17.192739188790796 0 0 0
568 1 34.24114697932994 6.889592513369305 17.12304030129183 0 0 -1
1136 1 6.96419514096376 10.863959475671953 17.290797348920208 0 0 0
58 1 11.12388439672381 9.155506842909292 17.23140780943016 0 0 -1
59 1 15.777694008714471 12.10470401593189 16.644783950599177 0 0 1
2154 1 18.318891738041465 11.593735075186443 16.581424592869705 1 0 0
433 1 20.10834867765456 7.563924841317476 18.71625472948375 0 0 0
550 1 25.99239966719044 9.05967087902274 16.850268588532145 0 0 0
548 1 23.488401036084696 10.454926558727358 16.704432948454773 0 0 0
101 1 31.47278903486178 9.842660485471932 17.69524974948768 0 0 0
2435 1 31.994303815668815 7.1644588330098635 19.08608455797431 0 0 0
2734 1 3.1992105761945178 12.694397135061273 18.811286225462254 1 0 0
716 1 2.6381447586862095 12.448471068791795 15.76172509112437 0 0 0
2248 1 7.9517543845660565 12.340796672176598 19.421509219564136 1 0 0
99 1 13.454255651865507 14.157810440065456 21.771269766017724 0 0 0
261 1 15.458233225687646 14.679815960640521 17.565481620885073 0 0 -1
599 1 15.87783342497489 15.152523630388089 20.516979982641935 0 0 0
195 1 19.870923994803032 13.336886049818094 18.35132271459942 0 0 0
196 1 21.76166292194945 11.215554634915662 19.129747449579547 0 0 0
486 1 25.130925330172357 12.80964220536065 16.057629428812096 0 0 0
1943 1 27.858421059565355 12.697093194983468 16.235323483489736 0 1 0
2212 1 29.16551961274693 11.176721216514254 18.205181463057926 0 0 0
2254 1 34.70191540646182 13.433996617819682 17.723333639759048 0 0 0
3023 1 5.860803889064137 15.806014522008637 16.779153017744314 1 0 0
558 1 9.04132522970934 14.843055883938705 19.150778264790162 0 0 -1
735 1 8.521030429685732 16.157229953055896 16.673035186801407 0 0 0
1182 1 11.885284266895122 15.598883543100852 19.891543406019515 0 0 0
682 1 13.004112892213199 17.572336914689302 18.10016311255697 0 0 0
2287 1 15.741892816085889 17.818400803746282 16.204582188105988 1 0 0
344 1 18.559345886248437 17.90788270518348 18.351626768600497 0 0 0
1528 1 21.38403954822806 15.916552106115265 18.328827512970754 0 0 1
386 1 23.963161118532472 14.938100883695427 17.333261771883556 0 0 1
350 1 28.233675039966663 15.156889648770171 17.367685249928854 0 0 -1