LAMMPS data file via write_data, version 29 Oct 2020, timestep = 2500000

3981 atoms
1 atom types

0.26218464571965683 69.73781535428051 xlo xhi
0.26218464571965683 69.73781535428051 ylo yhi
0.10974300170858342 29.190256998290778 zlo zhi

Masses

1 18.015

Atoms # atomic

3166 1 2.4380812797476223 1.604824848735142 3.0900874412631403 1 0 0
66 1 3.4706324809363873 1.6099097642617974 0.44199803104076707 1 0 1
378 1 5.5818463962222 2.6024220375879126 2.6320880900152015 1 0 2
3924 1 6.664293491409311 0.5613985750296404 18.706544525979112 1 1 -1
818 1 11.945378164252586 0.728979880843223 3.8828282009257737 0 0 1
2267 1 14.896422970628553 3.008779414583187 1.1943917636714525 1 1 2
1645 1 18.897533047352436 1.176664641316904 2.8649068238107116 0 1 1
3102 1 16.91682343576876 0.41376809438589385 1.1409037097074135 1 1 1
2977 1 21.602003935064584 2.1587063711274603 2.0643671368582357 1 1 1
3020 1 1.450253892871225 18.194299039654304 21.716805404921587 1 1 -1
2053 1 27.2549827982042 3.663507910610903 0.3936388829662002 0 0 1
2263 1 34.381122769853626 2.0739978302429036 1.7603016385806576 1 0 -1
3007 1 34.66812019632789 3.0561568862243798 11.716077020062636 0 0 1
3117 1 1.9261390877518423 6.318648916606469 2.6098304511216424 1 1 0
611 1 6.037460583669687 5.9028441621016965 1.6015546753245955 1 0 1
930 1 11.890311120645706 3.836837411527867 1.7967410513309343 0 0 1
2577 1 13.888093305286484 5.653151659352181 0.13318054667739787 1 0 0
2796 1 17.525781421229656 5.756160873732601 2.4648250186743366 1 0 0
148 1 19.173264445224405 5.627960621956538 29.112169882472514 -1 0 -1
2863 1 21.57622415485025 4.766703882922479 1.350136378507014 0 0 1
1263 1 23.566467605627672 6.520397341256172 2.887218899565583 0 1 1
1728 1 30.853901663399085 3.529690646274485 0.6211731996606287 1 1 1
1545 1 29.933528414232207 5.822911446667981 1.8913239698499738 -1 0 0
2055 1 33.74575245506301 6.9053399959745985 1.3951515306431308 1 0 2
2041 1 33.585160211365235 4.190138891102603 0.4176473224087561 0 0 1
1692 1 34.84445625057162 17.843048478146823 23.21791121187658 0 1 0
2473 1 3.3402059662809824 8.858352960687256 3.2171825679583086 0 0 1
2553 1 8.381050998278884 7.341485976985537 2.0102673613982946 0 0 3
2702 1 7.737242900726684 10.220622685645147 1.728974803940455 0 0 1
607 1 10.301620496426546 6.110676492343706 0.4109659296060497 1 -1 0
1236 1 15.636962750369246 7.330957792187239 1.3505556745742364 0 1 1
1020 1 21.242644823304005 9.714676412111386 2.3472499763093944 0 1 -1
3783 1 19.76468998521012 8.318730140787256 0.5977133215576905 0 1 3
3762 1 25.998715379133024 9.857449404612233 1.0750575129102042 0 1 -1
442 1 25.915820987425256 7.817169395603734 2.717909999909612 0 0 -2
472 1 31.27299786807773 8.303040686424335 0.6432439369879553 0 0 2
770 1 34.80407792163409 5.835667155701543 3.692184760116042 0 0 1
931 1 34.79468426377972 2.9787761311588143 23.000043377499427 -1 1 -1
2287 1 1.1771427801061032 11.117192817538875 2.7392495106369945 1 0 0
1688 1 5.8290873849215 12.616432240631708 1.9838532823722965 1 1 2
3931 1 8.807113720821157 10.833557468811467 28.269841857109313 0 1 -2
3348 1 10.75647315362663 14.186733242714713 2.0338767033394496 1 1 0
352 1 14.725348900360947 11.499728369567796 2.184473874673876 1 0 0
1702 1 16.260247997787765 11.840027279503408 28.254367417298308 0 0 1
609 1 17.08792750891662 13.113069216688434 2.552189793582426 0 0 0
798 1 23.645736155312676 10.96803257436441 0.9125409893124118 0 0 1
3929 1 23.424631312860456 12.81565168296775 3.433861952384712 1 1 0
2655 1 27.360891561441715 11.582929118701058 2.7275651578384346 0 0 -1
1152 1 29.005012898906948 13.24358206329989 1.1246520136766176 0 1 -1
743 1 30.42244375778405 10.613913012023428 2.046795686578099 0 1 0
3064 1 1.5474712496104215 15.262131234640485 0.6802649304734599 1 0 -1
377 1 5.4229535710049035 13.488271654178074 28.34266850012878 0 0 -1
2007 1 8.625787608848253 15.27254694816018 0.6839524322699815 1 0 0
2734 1 11.528636260242736 16.240075751095656 3.941002234779141 0 0 0
1694 1 15.11864101722286 15.993878105674982 1.478640239527958 0 1 1
2516 1 20.738826155978614 15.430123505679855 28.909837194268484 1 0 -1
724 1 21.028211545216045 13.97466601433777 2.5670766916927925 0 0 1
3499 1 23.85711398557933 16.00443384298995 29.174336993155144 0 1 -1
31 1 26.572282481647374 14.968334410697764 1.5665121718597936 0 0 1
3050 1 30.54623034187068 15.457501161130041 2.533190019058519 0 0 1
1322 1 32.833066417680826 14.53195689896515 1.4643236693297133 0 1 0
3865 1 34.98342536069309 17.980725675439817 28.552576621806363 0 1 0
3784 1 0.6300053025174512 17.543606439043558 1.7761239864022336 1 1 1
454 1 3.1598668476851444 18.9482601148798 2.3672206705586163 1 0 1
1740 1 5.151906495151303 17.33490413061215 1.133463359698221 0 1 0
1247 1 7.877440158159258 17.80030179491805 1.1043016429162062 0 1 -2
42 1 9.162823005218701 18.36382682982473 3.5640025836266482 0 0 2
1782 1 15.259485090858432 20.344538659028974 0.9538536371923665 0 1 0
516 1 13.128806206072083 18.373635574327484 2.0689038764582843 1 0 0
1933 1 16.670571640150172 17.881714637663148 29.155990492473023 0 1 -2
3674 1 19.259789718828483 17.49865993655657 0.8810410924604772 1 1 3
876 1 21.152689487773795 19.76859701828169 0.8229181095621887 0 0 1
1341 1 23.341634711685696 19.597262484343332 2.5277195460597803 0 1 -1
1641 1 27.355818716909003 17.568761542388593 1.5501274199075552 0 1 1
873 1 29.953202753237743 21.23339651274311 4.236787599357551 -1 1 0
3024 1 31.553901713623233 19.6739156561841 2.681483141115633 1 0 1
2015 1 33.846184735704036 19.320702119310933 3.683071373646349 0 0 -1
3481 1 2.9621650457514113 22.198690587704114 3.8293488720679556 1 1 0
340 1 5.44298373161866 21.164516591338547 2.8428139740242773 0 0 0
662 1 9.112340032429676 20.189671688837883 0.3803241439668488 0 0 1
2354 1 10.931681025739914 20.343137821296388 2.5049252250212155 1 0 1
264 1 26.305545125671223 22.865739460609095 6.002240798286049 0 0 1
859 1 14.35203337665103 23.207584085734133 1.3956350583656105 0 0 0
1920 1 18.059189261719425 20.998525700929065 0.13489919678964668 0 0 1
2173 1 19.571660476014994 20.774712244430084 2.9966248249770944 1 -1 2
879 1 25.519765760337073 20.484325128867606 1.4129399357958057 -1 0 1
597 1 27.331209285861956 21.374641255691245 3.5753509162594206 -1 0 0
2686 1 3.7705218215377037 1.9488805251599044 5.517380905210482 1 0 0
605 1 9.121203094251443 0.5006555270587153 4.353520455538323 1 0 0
3867 1 8.276214951754415 2.1672026299042066 6.248941719614633 1 1 0
686 1 20.955901628967258 23.321642087973377 25.5571476960879 0 0 1
1687 1 13.362970927050018 3.2924631391850396 4.342517469869883 0 0 -1
343 1 17.443761063228653 1.765124200964425 5.401855886749748 0 0 4
3165 1 22.347126883143705 3.080217022287819 4.754037398273501 0 1 1
718 1 25.425848206879763 2.517656177597429 2.075576293540496 0 0 3
2033 1 26.36546518420575 0.8901935804288802 4.696849342698335 1 0 0
2420 1 28.75307061490031 2.979704310341987 4.752641439773788 1 0 1
1591 1 32.82692706122089 1.2596956235852095 5.737029582235765 -1 1 1
1430 1 6.020561715384843 3.7529540260098666 5.830782344853042 0 1 0
3913 1 4.368556969232042 5.588123450144697 3.97837713142716 2 1 0
1094 1 10.334945461034124 5.630859353807097 3.916632591740552 0 1 -1
3763 1 16.200087270953272 3.6600286822905486 3.878204757650474 1 1 -1
2872 1 24.94493590710937 4.461897248279589 4.099625760516773 0 1 0
2234 1 27.570748159238537 5.275691473908038 4.095929336125842 0 0 0
314 1 31.43969959274209 3.306994862831082 4.16938933964983 0 0 0
150 1 32.68168927823037 19.910313014559375 29.070188532491148 0 0 1
3184 1 5.086292238568284 7.828759929680608 5.3057211773540764 1 0 0
910 1 7.969613254952848 7.679502992820517 5.09517264710925 0 1 0
3090 1 12.220932350818451 7.577100404148917 4.474203967516901 0 0 -1
414 1 10.473214364987571 9.831856261987651 5.013465688313846 0 0 0
3234 1 14.413408230173854 8.83784804350017 3.1225704911941645 1 0 0
1106 1 19.32187189303138 6.321420068872222 4.541661603872115 0 0 1
652 1 18.604512849114506 9.054969450113372 4.509367645701142 0 0 -1
240 1 21.866339325283082 7.817018259498665 4.329395562550041 0 0 0
1181 1 23.581488820700628 9.100473107825286 6.127715821678548 -1 0 2
3618 1 26.095185428864355 8.551530487740514 5.42848935884693 0 1 1
2894 1 30.7646641140884 6.402193157327272 4.675324142681176 0 1 1
3351 1 33.41863960354756 6.713461513415997 6.050019231076822 0 1 1
176 1 33.131776551095186 9.996923365189813 6.713063627977832 0 1 1
3207 1 3.292929981991441 12.385043327247269 3.739631603805966 1 0 2
2954 1 4.555994530642711 10.937940281570075 5.8003324020929465 1 0 0
2838 1 10.148664648934709 11.8712358459045 2.806854431371235 1 1 0
2350 1 8.98929732961553 13.148462454630621 6.27814019982587 1 0 1
1963 1 11.725182600489793 12.703304317137587 5.9905957075461505 1 0 2
1741 1 16.032543228352473 9.460552031927664 5.473974043417184 0 1 1
211 1 15.430711510341467 12.355415740502306 5.415861243197191 0 0 0
206 1 19.2707601530922 11.617880613735732 3.4187429980229718 0 0 0
3037 1 20.073435617864014 12.092107003611057 6.045980078694073 1 1 1
3518 1 22.71412135620749 11.586559139771127 5.684738101551448 1 1 1
3617 1 28.092719343860907 10.644261662386995 5.372814183227419 1 0 2
1533 1 27.99576479079722 13.458187408433979 5.945733770684982 -1 0 0
651 1 30.384129228769385 9.567465009010187 4.780408340435228 -1 0 -1
2383 1 32.476102829770056 12.103733236952548 4.222448718154803 1 0 0
903 1 2.713302458733856 15.15357815521723 3.230059533918354 0 1 0
2308 1 5.347064601249214 15.91072452102326 3.4865013301501895 1 0 -1
57 1 7.695899103619346 14.456267893239994 3.1803813015454256 0 0 -1
3227 1 13.175214218905786 13.454585810128274 3.7807771925330638 1 0 -1
137 1 14.150671702840473 16.634364365717293 4.3628528421510575 0 0 1
1629 1 16.675861770053434 15.337473968353889 4.709020844361179 0 0 0
2012 1 21.02800009628491 16.32084286483155 4.5839037081073695 1 -1 0
3072 1 23.14888539792148 16.62999286116353 2.9130464222394035 1 1 0
1932 1 25.94099934195255 13.895449942917237 4.042575959477199 -1 0 0
2837 1 25.08512437675543 16.563354551355697 4.679032653660016 1 0 3
1404 1 30.06479405881044 15.458540691000115 5.18817958653438 0 0 0
271 1 32.51931511295268 15.857083650320059 6.396173766948624 0 0 3
1580 1 34.15405179327288 14.211825248563057 5.157253101099711 -1 1 1
2689 1 1.6458976966345502 16.213704894671505 5.671676816001504 1 0 -1
3182 1 14.448766952815603 23.038449485160534 27.367228036426006 1 0 0
3477 1 5.637101123072834 17.321122035592342 5.597188640904762 1 0 0
2581 1 2.88468502294356 18.575899604427278 5.098037828056361 1 0 -2
1385 1 8.121737180206585 15.933703401246138 5.548235266034929 0 1 0
1126 1 13.216865006190666 19.727948118722 5.012611853147085 0 0 1
1348 1 18.80399931784732 17.06129785847095 3.4872308401879066 1 0 1
2635 1 25.6399515295234 20.13795251756957 6.5009920876617455 1 0 0
2334 1 27.071458182383125 18.6283814717664 4.369579345448486 0 0 2
1778 1 28.929717821127483 17.735172243608254 6.1141619835797885 0 1 1
3891 1 30.534204181297188 19.699434460808913 6.669505248470977 1 1 2
675 1 33.062462393153744 18.480875846729408 6.245507987279479 0 0 -1
2586 1 2.3343712001689725 21.15208797466094 6.171251175064198 1 0 -1
581 1 6.94662758714676 19.8884343565936 4.796046483567467 0 0 1
1053 1 8.424173795792647 22.542440440795218 6.069431553578351 0 0 -2
1097 1 10.896193335816188 21.78548805121157 4.8479140556731 0 0 0
2914 1 15.533379672760088 20.387358419897733 3.9481996946142908 1 0 1
513 1 17.795158355190097 19.31651540814935 4.752343974027994 0 0 1
1852 1 20.090101774524047 20.92623738796915 6.10394815069885 1 1 1
2242 1 23.116515146307236 20.57433595905076 5.28589207317327 1 -1 2
193 1 0.5164434559413159 9.008782263767888 11.746488211499605 0 0 2
805 1 29.66128663214151 0.8227744459978477 6.852572859744139 0 1 -2
1300 1 1.7027621180289347 2.4497476510757874 7.581285840646822 1 1 0
2892 1 2.8762991541346827 0.999430800137148 9.666762547833535 1 1 0
3735 1 5.187524714283214 2.719848186436735 9.825565718135795 1 1 2
3423 1 7.5167060882534305 1.285443790970162 8.76930019111418 1 0 0
915 1 13.42889594814781 1.8342086045658592 8.187350971997144 0 1 0
2706 1 17.80702489750669 4.071070212632181 9.342302113657441 1 0 0
2871 1 19.02427018789335 2.1312356734667817 7.867981707627162 1 0 0
745 1 21.51128894514038 1.1021609075074146 8.00672930573726 -1 1 0
1592 1 24.30476978094742 1.3661435049356443 6.213182043525978 0 1 0
2277 1 34.82521955311191 12.050541082214277 17.16377527871154 0 0 0
3112 1 29.678566929734437 3.3780494578266516 8.7138138899045 0 0 1
3307 1 19.68593937313027 1.968291532879377 13.360790430136808 0 1 0
1750 1 32.13090088446909 2.2436444712225585 8.404323335680859 0 1 1
1781 1 34.701692606264785 18.630879815352127 16.183828675528062 0 1 1
882 1 5.384646835602852 5.1059998796501205 8.679871850511446 1 0 1
3568 1 8.036955048575006 6.617318565250475 7.709593514446202 1 1 -1
3731 1 9.55608476815068 4.597663960760784 6.314300572400588 1 0 0
3793 1 12.227922744961086 4.185723534107008 7.0848606319982785 1 0 1
3111 1 12.794225387249453 6.794692019737467 7.127208093132605 1 1 1
2575 1 17.143281470558993 6.652022350760617 9.374709048571193 0 0 -1
173 1 20.426739295258084 4.360611749237769 6.14309316194702 0 0 2
3578 1 22.28004340025156 5.948696748381474 7.73114879852464 0 1 1
3389 1 24.53871904311531 4.466609941321715 7.244612861960462 1 1 1
2549 1 26.869565281457575 6.329283290663116 6.813636757543879 0 0 0
822 1 29.504673061325157 5.5725393550208855 7.242365384964922 0 0 0
1616 1 33.65153910156903 4.866755601530041 8.049209432644489 0 1 0
3252 1 33.021718499184004 7.229941546089693 9.757918362525086 0 1 0
2359 1 2.4535162337956242 8.93633023445177 7.134163783456177 1 -1 0
2261 1 2.954717802774045 6.7296464758865175 8.84475483041928 1 -1 -1
919 1 10.630462430511246 7.581750380984917 8.549722796028927 0 1 1
489 1 11.550056306982004 10.391547719889317 7.7970743755389655 0 0 0
3221 1 15.170215942643425 7.702218657816947 7.621909671375939 1 0 0
741 1 18.993478412091022 10.12202142569975 7.412382027632346 0 1 -1
1538 1 19.698618320151773 7.96769734056362 8.725004022338737 0 1 1
2 1 25.880226279541542 7.799874030587556 9.244351632900505 1 0 -1
748 1 30.873895734110853 8.00319944024123 8.01205022425075 0 0 0
1217 1 1.5158600533771178 12.9250307505923 11.523625548326626 0 1 1
3827 1 1.2739029225892677 10.773651886211516 9.49353091398373 1 0 -2
2288 1 4.0970305940323515 11.763695537580452 8.473765112546317 1 0 0
1367 1 7.537771489917301 10.262667219567916 6.462593256203258 0 1 -2
563 1 7.267819806196406 10.042168952283395 9.147298031646345 0 0 -1
198 1 14.162107427107374 10.16986218854715 8.965482840892028 0 0 1
88 1 20.954620036450205 11.839037059301763 9.166301324048826 0 0 1
2861 1 23.49770598013253 12.945209217196695 7.954028916743825 1 0 0
1589 1 26.969577323164984 10.075977540670177 8.283327727421367 0 1 0
3421 1 25.928243104484473 14.479460589880812 7.6341221288648375 0 1 1
2456 1 31.087875505770146 11.64246566585985 7.019669895455183 1 0 1
742 1 29.668513669541515 10.172159034550841 9.014505394693813 0 1 0
3745 1 34.555409314660785 13.473629400116547 9.411545112306706 0 1 0
3923 1 1.666980238004749 16.326687861281997 8.6080871532248 1 1 1
247 1 4.875109807144079 16.833922024583412 8.239053435701875 1 0 0
2569 1 5.570758527428486 14.036123261419776 9.024426320175793 1 0 2
2238 1 9.32272664567793 16.22556177359632 8.761822666870984 1 0 0
1052 1 8.335246243922278 13.756219591440644 8.813248048764851 1 0 1
85 1 13.152445660865228 16.8473781475861 7.054367322506834 0 0 1
3513 1 12.880359767733134 14.312688037475816 7.978370873107184 1 1 -3
207 1 17.572583580089855 15.777674172638996 7.230837358859616 0 0 -1
3146 1 15.503551176409887 13.95811359360024 8.222961592841266 0 0 0
369 1 20.11858255985917 14.92315532371217 6.800463113117202 0 0 0
265 1 24.299370089924093 16.92770641800361 7.4515249511001755 0 0 0
2292 1 21.954089355295714 15.612366371878217 8.828979486510223 1 0 -1
946 1 29.01858795451741 14.567125952712269 8.946561554772302 0 0 0
2082 1 31.976409953357354 13.819262040331754 8.441766248278595 1 0 0
3625 1 3.4371786749673596 19.056468507757764 9.788568896248066 1 0 0
751 1 7.291614698246645 17.973917732371905 8.891624786822588 0 0 2
2304 1 7.223626699406455 20.431358463933897 7.745196853205603 1 0 0
3654 1 10.584195076138418 17.41175801700971 6.548476291953444 1 1 0
3509 1 14.547096808061054 18.93621636279652 8.072605606477584 0 0 1
1346 1 17.3023127562706 18.436281062195828 7.518195524850024 1 1 0
562 1 21.39832207096856 18.67047289899762 9.440430722712417 0 0 2
2248 1 19.271194588612644 20.373468627628494 8.72958513543191 0 0 1
2976 1 21.89226249886689 18.499247436142078 6.759491119822925 0 0 0
3643 1 28.616005386973317 17.689668447214935 8.949583269077316 1 0 1
1761 1 25.64987400534961 18.62166984636746 8.852038119771628 1 1 0
1015 1 6.742845083305226 21.6169149335793 0.4097157805021464 0 0 1
3729 1 0.49032992299462497 0.48878629773615184 19.73542959033344 1 1 0
3048 1 4.495122355604557 21.073189743143477 8.011221558672379 1 1 0
3967 1 34.12596989491539 2.6069993676509604 20.30859970132223 0 1 1
2269 1 10.32746970076419 20.130807637080622 7.311770307573902 1 0 0
1958 1 13.196114256713884 21.238745879564572 7.392830545659223 0 0 0
47 1 0.3110467054097778 18.20624524414809 27.206199203155318 1 0 0
3746 1 34.962640016559426 2.9849844189412904 4.10429481025483 0 1 1
1125 1 23.867481100299447 22.777983165653225 9.732880532520774 0 0 0
2585 1 26.457521511935894 23.376591448806145 8.894711650829207 1 0 1
603 1 27.165488893331013 21.202938050043876 9.917444582845993 0 0 0
2476 1 29.91468822394413 20.609343490937235 9.088475648469691 1 0 1
3238 1 1.9693779238956295 2.078903461038142 12.203646066215052 1 1 1
3524 1 9.379003166294439 2.0107623646502453 10.663731551753854 0 1 0
1422 1 13.527220198681773 2.678824086904994 11.657116340391918 0 1 2
2719 1 15.781998480082022 2.091349250056086 9.970745713456681 0 0 1
473 1 0.4544924894882652 17.506225103488454 16.064294003707076 0 0 0
3888 1 19.831591574738823 4.092944804246827 11.174407769556277 0 1 1
3558 1 22.177113595561256 3.5648602150338653 9.77694526444805 0 1 3
2916 1 17.286731061257537 1.3946691719656357 12.378345469074437 1 0 -1
1284 1 25.953048592031635 1.6105034004028793 11.158099157180667 0 1 0
1366 1 30.14469992678804 1.4060810015043417 12.771890292153799 0 1 0
3614 1 18.079975246393836 23.345770527543706 9.677567249528202 1 0 0
3516 1 34.30307778911009 15.786304038455246 10.881959440227694 1 1 1
2936 1 0.5570402326363509 6.047820566432566 10.324700275276665 1 0 1
2465 1 1.6133369801690982 4.754174950142019 12.445821618428784 1 0 0
172 1 5.461883544666103 3.492760014925168 12.367305521120945 1 0 2
2859 1 4.08209649505497 5.697839581697354 13.051615820500022 1 0 1
3092 1 8.492969442816502 6.5953832976383655 12.235458228420539 0 1 1
3582 1 8.241992420894789 3.8116708462754327 12.622169805444534 1 1 0
3904 1 11.479624913688664 3.772553416005584 9.990565441642794 1 1 0
1735 1 10.769764614585338 6.0794208320652725 11.012303791361896 0 1 0
3240 1 25.18907687143213 4.146598995489257 10.081460876796093 0 1 -1
1715 1 23.812497215020258 5.125810044237161 12.323791386181675 1 1 1
2457 1 29.418032919322407 4.191924210556111 11.682725235969384 1 0 -2
1040 1 29.01684306703648 6.558339973467947 10.232156803162182 -1 0 -1
2616 1 23.82739322280397 0.3051780230492807 12.483934089248923 0 0 1
694 1 2.6286434765241204 8.833011167032605 13.578178433760428 1 0 -2
3698 1 15.599575353612524 22.655106017686304 8.363727814800255 1 -1 1
1927 1 4.291191245238959 7.90013520734931 11.18892089701652 0 0 0
3246 1 6.94803985228338 7.387108623050044 10.138929820837543 1 1 -1
3406 1 14.987444628846337 9.563226035932988 11.723851981198965 0 1 0
2274 1 13.077564520741834 6.752184506036579 12.31376910189821 1 0 -1
2626 1 16.009344593580277 7.0010823583632416 11.823879043074122 1 0 0
3799 1 19.951312946021126 8.091624604313912 11.572535804998887 1 0 -1
2090 1 23.308374891830194 8.440572011014089 8.927643590262917 1 0 0
3972 1 22.054184997702322 9.946229307639019 10.807108297528712 1 1 -1
3832 1 27.074512083484557 7.822927435231921 11.824146978352431 0 1 0
3918 1 27.430067955917874 10.511787471002283 12.34383125914949 1 0 0
1353 1 30.976041865323822 7.558107288849339 11.662468662100943 0 0 2
955 1 31.668564872501147 9.47033745563431 13.646922676403841 0 0 0
2960 1 5.078790775265051 10.452956093795784 10.85445608076193 1 0 1
2217 1 6.299276403695551 11.907954379911596 13.073841704523204 1 0 -1
1744 1 9.695272410677346 11.484112916974283 9.864965888525672 0 0 0
3021 1 10.85541642247918 12.398908883027518 12.274296522435888 1 0 0
3399 1 12.919636557301688 10.665748091154882 13.188993154867205 1 1 0
2388 1 17.351448740533485 11.634210475842227 11.701922488528561 1 0 1
1060 1 16.558891441472987 11.380333590367325 8.510476019912097 0 0 -1
2778 1 19.966348998505172 12.995140706974194 11.794906908145366 1 0 2
3382 1 24.335679044545522 11.036583184033189 12.457512542607656 1 1 3
2781 1 25.501352468340638 11.819666061673015 9.906157056499271 1 0 0
601 1 30.263012643874728 10.864591314151921 11.62119873934263 0 0 0
3414 1 19.612373393853492 0.5826199884142886 21.486540583115193 0 1 1
3553 1 3.211733347988001 14.80773380709504 12.494063661296801 1 1 0
2632 1 1.2915086135744707 16.994684234042563 11.758523036431347 1 0 -1
1737 1 5.869638301892739 14.481257924511054 11.84029108699803 1 1 0
1266 1 12.260563331659535 14.578853339200139 10.872139309222858 0 1 0
573 1 14.349659611873038 15.188822386901302 12.304712568524641 1 0 0
134 1 18.661558279728833 15.517629298826371 12.08274957112527 0 0 0
3794 1 16.550382219475058 15.929887730261582 10.252692108115577 0 0 2
1494 1 21.540421871177703 16.313016788128067 11.697752081497756 0 1 0
3560 1 25.235369199083266 15.640905800198613 12.25326867168956 1 0 -1
2249 1 22.696311906238392 13.620714935080938 11.544904421548354 1 0 1
2200 1 26.546649642310744 14.036417184932343 10.295964339102555 0 0 0
2363 1 27.295037732990803 16.395471064085147 14.041638261807993 0 0 0
3544 1 30.57893515042144 13.6884808422968 11.422034838732731 1 1 0
3266 1 33.94636591568547 0.7111572853818422 10.071744049695207 0 1 0
2490 1 31.88311899399013 16.0311760914283 11.370708557534849 0 0 0
2171 1 7.390274834263595 18.239727894082684 11.670238033071035 1 0 2
1618 1 5.2074189590361755 19.865242598310058 11.559651222994422 1 1 0
2576 1 9.052917999057833 20.4942957525472 12.103074765151687 1 0 0
2770 1 10.495148742379802 16.758630336379838 11.41411635925599 1 0 2
22 1 11.938062417257362 19.056538244553018 12.151334684176186 1 0 2
2024 1 14.761522208292567 18.69938912981948 10.738084545083431 0 0 1
3932 1 17.603871385833866 18.58959983354137 10.857664727332072 1 0 0
2352 1 23.56655110707614 20.033500014880758 10.446490982346749 0 0 0
1883 1 23.66624043286367 19.909410054579354 13.369262700808623 0 1 0
3844 1 22.72151094220294 17.45793239495577 13.939075470315316 1 0 0
3316 1 28.514496106017635 18.803612454318685 13.033044274853195 1 1 1
1179 1 30.390231957587247 18.445684534655367 11.190929795328781 0 0 2
2784 1 13.557013464717066 1.1195424852621327 21.957693135602153 0 0 1
317 1 33.0427958917227 19.27290930566857 12.103188863304354 -1 0 0
2016 1 1.2611886739475948 21.279731353959747 9.213460473145123 1 0 1
1776 1 8.18855686718526 22.057316812605237 9.569293301197119 0 1 2
1665 1 11.212943572757727 21.515206296158286 9.827819865399018 0 0 -1
1219 1 0.4461471742243459 11.956418588212438 25.186697010926288 1 1 0
2398 1 13.946766300849054 21.388555419335106 10.823079604908544 0 0 1
3583 1 18.5677612642602 21.18520663124316 11.687572250294648 1 1 1
1129 1 21.00753482074469 21.55328730656923 12.842894379920212 0 0 0
3671 1 0.8892629379119718 23.076003208456694 1.8177759627251417 1 1 1
1815 1 26.657313054724636 20.770356851762426 12.688150533717602 -1 1 -1
2280 1 4.561297005863061 1.6185475570358066 14.319083266898033 1 0 -2
3292 1 1.0027300001293251 14.337042737270302 18.889955571298348 1 0 0
613 1 8.112165825795275 2.8723421383774994 15.35313013596215 0 1 1
1899 1 21.97245560040652 21.79113426878471 28.41325788691395 -1 1 0
1203 1 11.849723137503252 1.3154424255442372 13.550569001109471 0 1 -1
3609 1 15.87333650334535 1.4405515982538502 15.73602703213455 0 1 0
2498 1 19.51130951749355 3.5606300322890863 15.694236600781 0 0 1
2530 1 22.503019851342952 2.8349684263250423 12.874410694880567 1 0 1
3356 1 28.101339689448004 2.213647919464129 15.831654953489236 1 0 -2
447 1 32.6774646820274 3.273619343153771 13.669419645886107 -1 0 0
2956 1 4.793958403271541 5.461400536400277 15.703495396701681 1 1 1
397 1 15.85979837230514 3.945687268399699 12.84995900118767 0 0 -1
1919 1 13.563653352735056 4.983792477408861 14.412709392996158 0 0 0
3567 1 16.82292859264608 3.966889340201397 15.439857808006748 1 1 0
3164 1 18.21348687392923 5.507600889965622 12.869014700106694 0 0 0
312 1 21.563115191245824 5.295520774265681 15.300725169644215 0 -1 -1
2134 1 26.21574970046461 6.066895079105704 13.829047065032048 1 0 -2
641 1 27.47606379507578 3.4404253803974947 13.420169929577117 0 0 -1
204 1 26.73623190611894 6.8979170116594135 16.397655611432732 0 0 1
1824 1 30.844301834560145 5.604468508202997 13.832525666890822 0 1 1
647 1 32.94816482854185 7.012126687876744 15.455654787020125 0 0 1
714 1 2.2977012806677335 7.026709203924597 15.702312771115219 1 0 -1
3384 1 9.093769230794901 8.256513819067834 14.190937491703673 0 1 2
3068 1 9.156631421163299 7.056765688638353 16.62763083419932 1 0 -2
3957 1 12.085410532332697 8.43927949238219 14.40975130005642 1 0 0
2884 1 13.885533676570049 7.430841301073689 16.0880696721231 1 1 0
991 1 17.904143778563203 9.419044336717278 13.471471893751291 0 0 2
3606 1 15.77875964660419 9.491564467536241 15.48908443882877 1 1 -1
1471 1 22.056651844287938 7.278480771164957 12.860283704730252 0 1 0
163 1 19.46326499299117 7.11890729499899 14.857753033795886 0 0 0
2555 1 22.326621289101265 9.58984927779632 14.35947239644545 1 0 -2
3267 1 30.25660965013204 10.334419708050644 16.01334881646245 1 0 0
807 1 2.4029471136712255 13.259241876141228 14.952700447486825 1 0 2
778 1 4.146473191604891 11.121550794371082 14.365985432930326 0 0 1
1666 1 8.807771251428239 11.025490453934498 13.419114945675792 0 1 -3
3707 1 9.183374919306955 12.103213139022246 16.054591156790348 1 0 -1
2509 1 11.373913183586147 10.206941979734985 16.67895529527926 1 0 -1
1254 1 14.391263076120556 12.133330540539085 15.050370416513859 0 0 1
1732 1 20.07911950492079 11.15692471739831 14.179849199658689 0 1 0
2971 1 19.816336733549328 12.617885951276474 16.821795141892846 0 0 0
588 1 25.01585747480022 11.028965566031994 15.439452920874722 0 0 -2
1705 1 27.843174213401028 11.05373872536997 14.84587936731867 -1 1 -1
3338 1 3.978655100541661 15.632098188560173 15.665249411061273 0 1 -2
913 1 6.392927660307892 14.033990890219837 15.086143276279548 0 0 1
130 1 8.390549447868716 15.965958241766213 13.218225957929619 0 0 0
3413 1 10.09449467248986 14.457115801386314 14.591799522839715 1 1 -1
411 1 12.90585919640883 14.902813821380155 14.852230494745056 1 0 0
2196 1 16.24621485369282 13.441051780687268 13.47094061498474 0 0 -2
911 1 17.610013731270918 13.934178324398232 15.993593522570919 0 0 1
1432 1 24.35389970007459 13.599477099648972 16.487129971490788 0 1 0
216 1 24.795544529830458 16.18350345078499 15.32262113682412 0 0 0
3424 1 28.480213561121154 13.645903284120582 13.743685828456144 0 0 0
1637 1 32.928276144912864 15.701140202137157 14.260815350169482 1 1 0
3809 1 2.4389044294145896 17.608480287675075 14.326484046847114 1 0 -1
1401 1 4.053065385829683 19.81508743121214 14.16482860252564 0 1 1
2271 1 5.818898480308477 20.069285772369746 16.199296207329066 1 1 0
120 1 7.838101654176891 17.417313091977142 15.642906440597217 0 0 -1
1013 1 14.277338936933093 17.827498652720188 13.641067704912063 0 1 1
2776 1 18.48031999035274 16.278651999815533 14.792198059423109 1 1 0
2554 1 16.912090066976848 18.45346776997492 13.760569847461786 1 0 0
1054 1 20.438530472199062 17.892452982374113 15.525958951102668 1 0 -1
1169 1 25.380528125704473 18.05737609819757 17.061713337996807 0 1 -1
3217 1 32.75380454557375 18.207946769625362 14.662312830075626 0 0 0
2735 1 34.551201364850996 17.02390088807159 18.386184013285053 1 0 -1
1274 1 2.0994060409787565 21.751143574622073 14.570292969232247 0 0 -1
485 1 8.222324762035354 20.93094998953605 14.87799707261719 0 -1 0
1864 1 10.946369640462526 22.34636735206108 14.763675396459638 0 0 2
623 1 12.05960326588297 19.83801227069991 15.122226294509025 1 0 1
3070 1 16.386030710444196 21.579197204968718 13.111086214055575 1 0 -1
1182 1 14.290833855712537 21.061160788535425 16.444644875529914 0 0 1
3714 1 16.864616007963143 20.12724862988387 15.843317039833403 1 0 0
3753 1 19.671873566405793 20.532765715904564 15.906089601234607 1 1 1
183 1 24.395782853700645 20.40109960558113 15.970547536646345 0 0 0
2042 1 26.213046134466495 22.314968511248047 15.109670543682467 1 0 0
1966 1 28.136228661361454 20.751686672722713 17.279553978958464 0 1 -2
1525 1 29.724709749589802 19.142340756801172 15.63383124380905 -1 1 0
1976 1 0.5871669318626718 3.0166895112651937 15.757060285140463 1 0 0
1423 1 3.208501327583316 0.6617478842237766 18.584617155498673 0 1 -2
123 1 3.376965395242331 2.904263474019276 16.64611051155861 1 0 1
68 1 0.40050038699352564 20.317678778340834 23.13813806787298 1 0 0
518 1 9.652863314207238 0.5291298638891813 18.571800152236918 0 0 0
1952 1 6.255479060555496 2.868825813219343 17.221661919417937 0 0 -1
2337 1 8.862288359961333 0.32710484110575333 15.590205837867984 1 0 1
3511 1 12.235002270956965 3.083713821075938 15.586293492689155 1 1 2
906 1 13.983385251978293 2.2791521587407377 17.454608538225234 0 0 3
3738 1 22.458172223303038 1.8282464571017782 18.188824775075105 1 0 1
1660 1 23.556596720754424 3.116776100450945 15.744070939877162 0 0 0
536 1 25.659085388092358 1.0316812012780876 16.2889213647655 0 0 1
1260 1 31.477243200192003 1.6160015995154338 17.43526257153876 -1 2 1
2366 1 29.520814802518377 3.4510879780376684 18.027838178115434 1 0 -1