
# Create simulation box of size 70 x 70 x 29.3 Angstrom
#
lattice	     sc 1
Lattice spacing in x,y,z = 1.0000000 1.0000000 1.0000000
region 	     all block 0 70 0 70 0 29.3 units box
create_box          1 all
Created orthogonal box = (0.0000000 0.0000000 0.0000000) to (70.000000 70.000000 29.300000)
  2 by 3 by 1 MPI processor grid

# Create cylindrical cavity, with radius of 1.5nm (15 A)
#
region              water cylinder z 35 35 15.1 -0.0 29.3 units box side out
fix 		    5 all indent 5.0 cylinder z 35 35 15 side out units box

# fill box with randomly distributed atoms such that density is ~0.0333 N/A^3
#
create_atoms        1 random 4096 63782 water
Created 4096 atoms
  create_atoms CPU = 0.000 seconds
mass                1 18.015


# Define potential
#
pair_style          sw
pair_coeff          * * ML_mW.sw mW
Reading sw potential file ML_mW.sw with DATE: 2019-02-27

# Run minimization
#
minimize            1.0e-8 1.0e-8 10000 1000
WARNING: Using 'neigh_modify every 1 delay 0 check yes' setting during minimization (../min.cpp:187)
Neighbor list info ...
  update every 1 steps, delay 0 steps, check yes
  max neighbors/atom: 2000, page size: 100000
  master list distance cutoff = 6.0032907
  ghost atom cutoff = 6.0032907
  binsize = 3.0016454, bins = 24 24 10
  1 neighbor lists, perpetual/occasional/extra = 1 0 0
  (1) pair sw, perpetual
      attributes: full, newton on
      pair build: full/bin/atomonly
      stencil: full/bin/3d
      bin: standard
Per MPI rank memory allocation (min/avg/max) = 4.220 | 4.231 | 4.241 Mbytes
Step Temp E_pair E_mol TotEng Press 
       0            0    8153863.3            0    8153863.3    5357365.9 
     668            0   -44003.588            0   -44003.588   -162.21277 
Loop time of 1.24326 on 6 procs for 668 steps with 4096 atoms

99.7% CPU use with 6 MPI tasks x no OpenMP threads

Minimization stats:
  Stopping criterion = max force evaluations
  Energy initial, next-to-last, final = 
      8153863.30152605  -44003.0366643292   -44003.588401687
  Force two-norm initial, final = 2.0857534e+08 7.3442700
  Force max component initial, final = 1.2644871e+08 1.5971225
  Final line search alpha, max atom move = 0.045691558 0.072975015
  Iterations, force evaluations = 668 1001

MPI task timing breakdown:
Section |  min time  |  avg time  |  max time  |%varavg| %total
---------------------------------------------------------------
Pair    | 0.57501    | 0.93318    | 1.1582     |  23.2 | 75.06
Neigh   | 0.017466   | 0.024748   | 0.029905   |   3.1 |  1.99
Comm    | 0.028821   | 0.25814    | 0.6234     |  45.0 | 20.76
Output  | 0          | 0          | 0          |   0.0 |  0.00
Modify  | 0.0032248  | 0.0046382  | 0.0054357  |   1.2 |  0.37
Other   |            | 0.02255    |            |       |  1.81

Nlocal:        682.667 ave         800 max         473 min
Histogram: 2 0 0 0 0 0 0 0 1 3
Nghost:        1242.33 ave        1343 max        1052 min
Histogram: 2 0 0 0 0 0 0 0 0 4
Neighs:        0.00000 ave           0 max           0 min
Histogram: 6 0 0 0 0 0 0 0 0 0
FullNghs:      19057.0 ave       23092 max       12598 min
Histogram: 2 0 0 0 0 0 0 0 3 1

Total # of neighbors = 114342
Ave neighs/atom = 27.915527
Neighbor list builds = 27
Dangerous builds = 0

# Add velocity/set timestep
#
velocity            all create ${TEMP} 120598 rot yes dist gaussian
velocity            all create 225 120598 rot yes dist gaussian
timestep            10.0


##### Equilibrate #####

thermo	            100
thermo_style        custom step temp press vol etotal ke pe

# Neighbor lists
#
neigh_modify        delay 0 every 1 check yes

# Set fixes
#
fix                 1 all momentum 10 linear 1 1 1 rescale
fix                 2 all nve
fix                 3 all temp/csvr ${TEMP} ${TEMP} 500.0 928347
fix                 3 all temp/csvr 225 ${TEMP} 500.0 928347
fix                 3 all temp/csvr 225 225 500.0 928347
fix                 4 all press/berendsen iso ${PRES} ${PRES} 1000.0 modulus 20000
fix                 4 all press/berendsen iso 1 ${PRES} 1000.0 modulus 20000
fix                 4 all press/berendsen iso 1 1 1000.0 modulus 20000

# Run 0.5 ns equilibration
#
dump                1 all custom 1000 eq.${NAME}.dump id type x y z vx vy vz
dump                1 all custom 1000 eq.15A_cavity_eq_fix5.dump id type x y z vx vy vz
run                 50000
Per MPI rank memory allocation (min/avg/max) = 3.095 | 3.107 | 3.116 Mbytes
Step Temp Press Volume TotEng KinEng PotEng 
     668          225    712.24708       143570   -41257.145    2746.4439   -44003.588 
     700    142.36119    160.86441    143872.06   -40424.102    1737.7201   -42161.822 
     800    193.23492    199.86146     144252.1   -39211.669    2358.7061   -41570.375 
     900    213.45105    90.435126    144267.31   -38823.857    2605.4726    -41429.33 
    1000    215.91587    66.442835    144378.19   -38649.194    2635.5592   -41284.753 
    1100     223.6098    47.305043    144223.79   -38536.213    2729.4745   -41265.688 
    1200    228.07398    -127.9379    143507.42   -38547.299    2783.9662   -41331.265 
    1300    234.34985    117.28558    143806.72   -38506.351     2860.572   -41366.923 
    1400    222.24679   -54.352665    143681.74   -38589.397    2712.8371   -41302.234 
    1500    229.27157    96.903069    143542.06   -38610.663    2798.5844   -41409.248 
    1600    224.05771    4.0699208    143775.46   -38696.931    2734.9418   -41431.873 
    1700    225.05421   -96.635834    143866.95   -38740.098    2747.1056   -41487.204 
    1800    225.14787   -220.37456    143543.84   -38694.217    2748.2488   -41442.466 
    1900    228.49784    9.9204012    143342.59   -38661.442    2789.1399   -41450.582 
    2000     225.6789    118.84268    143461.56   -38656.453    2754.7308   -41411.184 
    2100    225.47592   -80.323132    143039.54   -38779.458    2752.2531   -41531.711 
    2200    222.71613    17.597432    142926.85   -38798.394     2718.566    -41516.96 
    2300    224.62094     45.75168    143003.34   -38723.477    2741.8169   -41465.294 
    2400    227.65852    96.185425    142961.35   -38738.056    2778.8949   -41516.951 
    2500    226.37406    165.47797    142547.08   -38722.598    2763.2162   -41485.815 
    2600    227.44027   -140.49486    142766.69     -38622.7    2776.2308    -41398.93 
    2700     223.7842    20.264654    142683.88   -38731.591    2731.6033   -41463.194 
    2800     222.7478   -54.746987    142986.97   -38742.548    2718.9526   -41461.501 
    2900    230.87727    90.419911    143077.67   -38710.637    2818.1842   -41528.821 
    3000    229.56721    -353.4409    143218.23   -38717.339    2802.1931   -41519.532 
    3100    223.72937    66.006699    143235.68   -38737.145     2730.934   -41468.079 
    3200    226.28804    423.81597    143532.58   -38739.455    2762.1662   -41501.622 
    3300    226.63032   -109.10259       143683   -38724.427    2766.3442   -41490.771 
    3400    228.65534    39.508113    143668.59   -38729.843    2791.0625   -41520.905 
    3500    230.52882   -38.400474    144097.12   -38654.585    2813.9309   -41468.516 
    3600    225.98147    153.27577    144443.52   -38775.322    2758.4241   -41533.746 
    3700    232.09759   -109.07254    144494.93   -38774.666      2833.08   -41607.746 
    3800    227.69337   -119.23349     144092.5   -38824.532    2779.3203   -41603.852 
    3900    220.64788    23.410404    144422.99   -38962.416      2693.32   -41655.736 
    4000    224.28477    17.204303     144333.3   -38928.454    2737.7135   -41666.168 
    4100    225.55385    253.12401    144317.79   -38868.626    2753.2044   -41621.831 
    4200     224.7573   -41.519073    144206.83    -38944.17    2743.4814   -41687.651 
    4300    231.28188   -254.76766    144080.09   -38867.782    2823.1231   -41690.905 
    4400    227.30541   -22.346491    144134.36   -38851.326    2774.5846   -41625.911 
    4500    225.54246    47.661391    144280.24   -38862.011    2753.0654   -41615.077 
    4600    227.17257   -68.823329    144408.01   -38912.472    2772.9631   -41685.435 
    4700      225.926    46.871115    144386.99   -38965.524     2757.747   -41723.271 
    4800    229.18267    98.300298    144162.34   -38945.279    2797.4992   -41742.779 
    4900    225.46127    210.92825     144111.6   -38964.923    2752.0743   -41716.997 
    5000    227.06864    141.72487    144790.99   -39005.389    2771.6945   -41777.084 
    5100    223.85884    9.3210222    144779.73    -39002.75    2732.5144   -41735.264 
    5200    219.00316   -24.488314    144611.74   -39040.533    2673.2439   -41713.777 
    5300    228.37745    26.819023    144566.65    -38975.27    2787.6704    -41762.94 
    5400    226.85314    25.579762     144362.3    -38911.55    2769.0641   -41680.614 
    5500     228.2199    143.65327    144601.89   -38933.184    2785.7473   -41718.931 
    5600    229.22077    65.604445    144502.89   -38859.716    2797.9644   -41657.681 
    5700    226.48667    154.15822    144303.91   -38950.035    2764.5908   -41714.625 
    5800    227.56735    48.164545    144179.67   -38838.978    2777.7821    -41616.76 
    5900    217.76141   -167.89739    143974.22   -39032.249    2658.0867   -41690.336 
    6000    218.90402   -189.16834     144062.4   -39025.125    2672.0338   -41697.159 
    6100    220.92888   -45.995075    143883.15   -38934.841    2696.7501   -41631.591 
    6200    226.17598   -138.43675    143841.75   -38996.795    2760.7983   -41757.593 
    6300    225.71594    -79.09002    143959.96    -38950.42    2755.1829   -41705.603 
    6400    222.20518   -68.250698    144053.24   -38985.186    2712.3291   -41697.516 
    6500    223.43586    45.479426    143585.29    -38942.02    2727.3514   -41669.372 
    6600    219.31525    94.328306    143808.39   -38993.488    2677.0534   -41670.541 
    6700    223.06557   -377.66351     143280.8   -38960.578    2722.8314   -41683.409 
    6800    221.20863    125.80272    143357.86    -38998.31    2700.1648   -41698.475 
    6900    226.50532    66.545409    143344.03     -38880.9    2764.8184   -41645.718 
    7000    222.12341     4.373678    143333.71   -38770.954     2711.331   -41482.285 
    7100    223.55342    91.035981    143254.58    -38899.45    2728.7863   -41628.237 
    7200    221.36546     28.00413    143595.42   -38924.073    2702.0791   -41626.152 
    7300    225.93328    39.928692    143870.77   -38884.973    2757.8359   -41642.809 
    7400    223.83799    34.269008    143783.27   -38934.556    2732.2598   -41666.816 
    7500     227.0769    169.16092    143685.53   -38816.743    2771.7954   -41588.538 
    7600    228.18272   -220.88446    143677.37   -38842.995    2785.2935   -41628.288 
    7700    223.83067   -27.546098    143788.42   -38837.947    2732.1705   -41570.118 
    7800     223.8407    67.218832    143887.77   -38852.801    2732.2929   -41585.094 
    7900    221.75032    43.349087    144010.39   -38958.383    2706.7769    -41665.16 
    8000    223.81044    136.55599    143925.59   -38927.309    2731.9236   -41659.232 
    8100    227.80189   -198.35291    143865.96   -38830.881    2780.6449   -41611.526 
    8200    218.75367    68.660551    143696.66   -38909.992    2670.1986   -41580.191 
    8300    224.97211    138.32632    143683.94   -38833.593    2746.1034   -41579.696 
    8400    224.71894   -207.95458    143356.99   -38896.545    2743.0131   -41639.558 
    8500    224.15299    12.086445    143683.98   -38885.692    2736.1049   -41621.797 
    8600    226.26722    46.404132     143584.6   -38797.242    2761.9121   -41559.154 
    8700     224.7005   -45.895212    143394.83   -38808.562    2742.7881    -41551.35 
    8800    224.86869    52.186314    143794.57   -38794.497    2744.8411   -41539.338 
    8900    227.49392    124.21421    144194.59   -38839.031    2776.8857   -41615.916 
    9000    228.30228    153.80933    143936.07   -38725.056    2786.7528   -41511.809 
    9100    224.43112   -204.44353    144230.12   -38842.711    2739.4999   -41582.211 
    9200    227.04126     143.3067    143981.89   -38867.788    2771.3604   -41639.148 
    9300    221.48279   -31.226917    144024.89   -38889.001    2703.5113   -41592.512 
    9400    223.30993    36.677442    144091.54   -38901.243    2725.8142   -41627.057 
    9500    224.55521    -86.26412    144350.55     -38957.6    2741.0145   -41698.615 
    9600    221.22045    38.747876    144608.49   -38940.516    2700.3092   -41640.825 
    9700    218.66968   -64.639905    144506.67   -38872.493    2669.1733   -41541.666 
    9800    224.71251   -92.998552    144319.63   -38866.293    2742.9347   -41609.228 
    9900    227.52746   -49.915459    143957.45   -38824.782    2777.2951   -41602.077 
   10000    219.01444   -106.31718    143905.16   -38983.429    2673.3816    -41656.81 
   10100    223.30023    -196.4161    143953.96   -38908.613    2725.6958   -41634.308 
   10200    222.43483   -82.524464    144349.74   -38921.736    2715.1323   -41636.868 
   10300    226.49675   -37.197919    143966.62   -38833.459    2764.7138   -41598.172 
   10400    228.32769    134.36957    144190.66   -38779.279    2787.0631   -41566.342 
   10500     225.9072   -138.84817    143995.08   -38823.259    2757.5175   -41580.776 
   10600    228.81218    78.393721    143801.33   -38804.003    2792.9769    -41596.98 
   10700    228.57644    160.94527    144002.35   -38809.664    2790.0993   -41599.763 
   10800    224.22986    36.157704    144116.57   -38818.966    2737.0433   -41556.009 
   10900    226.12613    70.736042    144239.22   -38722.137    2760.1898   -41482.327 
   11000    227.59181   -115.79148    143623.03   -38765.967    2778.0806   -41544.048 
   11100    225.39574    91.865996    143566.86   -38838.534    2751.2744   -41589.809 
   11200    225.71868   -90.768603    143506.76   -38788.447    2755.2163   -41543.663 
   11300    227.92467    3.4668177    143913.01   -38850.686    2782.1436    -41632.83 
   11400    224.23049    78.130184    143852.02   -38849.608    2737.0509   -41586.658 
   11500    219.49081   -38.524266    143958.06   -38960.466    2679.1964   -41639.662 
   11600    220.77185    330.06371    144318.23    -39007.35    2694.8333   -41702.183 
   11700    228.63505   -175.93816    144175.72   -38891.591    2790.8148   -41682.406 
   11800    221.19235    205.45369    144317.24   -38889.982    2699.9661   -41589.948 
   11900    223.93258     70.53679    144402.13   -38946.848    2733.4145   -41680.262 
   12000    224.93281   -144.71217    144616.22   -38949.693    2745.6237   -41695.316 
   12100    225.15427    90.236077    144662.96   -38925.132     2748.327   -41673.459 
   12200    224.45368   -85.998542    144211.85   -38830.958    2739.7753   -41570.734 
   12300    225.62699    79.251764    144449.16   -38827.595    2754.0972   -41581.692 
   12400    229.97224    78.103378    144461.23   -38767.542    2807.1371   -41574.679 
   12500    224.55919      65.8708    144354.46   -38811.545    2741.0631   -41552.608 
   12600    221.78038    169.33381     144539.3   -38867.802    2707.1438   -41574.945 
   12700    226.29079   -23.363946     144303.1   -38820.781    2762.1998   -41582.981 
   12800    224.19828     47.88765    144234.43    -38865.39    2736.6577   -41602.048 
   12900    225.58637   -16.326726    144420.72   -38820.233    2753.6013   -41573.835 
   13000    224.86006    26.844736    144370.42   -38881.761    2744.7357   -41626.496 
   13100    226.94126    50.126017     144226.7   -38801.647    2770.1397   -41571.786 
   13200      228.331    85.961281    143966.66    -38752.45    2787.1035   -41539.554 
   13300    224.26626   -64.440375    143784.92   -38785.337    2737.4875   -41522.824 
   13400    229.26262    92.217001    143666.11   -38838.534    2798.4752    -41637.01 
   13500    217.12882   -35.952516    143703.68   -38810.354    2650.3649   -41460.719 
   13600    229.04513   -100.12581    143656.96   -38805.573    2795.8204   -41601.393 
   13700    224.43304    58.292808    143390.95   -38835.765    2739.5233   -41575.288 
   13800      224.317   -40.608777    143262.49   -38891.724    2738.1069   -41629.831 
   13900    223.77701    101.27102    143167.84   -38886.527    2731.5156   -41618.042 
   14000    219.07959   -134.79696    143383.41   -38961.541    2674.1769   -41635.718 
   14100    228.24665    137.62018       143225   -38904.026    2786.0738     -41690.1 
   14200    222.06883   -90.970592    143271.02   -38903.477    2710.6648   -41614.142 
   14300    223.52734   -90.204448    143087.39    -38926.39    2728.4679   -41654.857 
   14400    225.10042   -15.784832     142829.6   -38882.843    2747.6696   -41630.513 
   14500    228.48965    25.292174    143099.72   -38897.528      2789.04   -41686.568 
   14600    229.91011    227.27381    143252.97   -38762.829    2806.3787   -41569.208 
   14700    228.87615     212.2739    143586.06   -38772.304    2793.7577   -41566.062 
   14800    222.35757    29.705099    143564.45   -38825.026    2714.1892   -41539.215 
   14900    221.67893    168.65662    143507.76   -38828.439    2705.9055   -41534.345 
   15000    221.57173   -37.596286    143602.26   -38887.634     2704.597   -41592.231 
   15100    225.03102   -121.72714    143343.41    -38870.59    2746.8225   -41617.412 
   15200    226.80636   -106.04091    143448.18   -38877.392     2768.493   -41645.885 
   15300     226.4127    7.6928355    143600.44   -38838.663    2763.6879   -41602.351 
   15400    230.31248   -33.467052    143696.73   -38757.697    2811.2903   -41568.988 
   15500    228.46288   -94.514217    143515.21    -38829.31    2788.7132   -41618.023 
   15600    221.82796   -87.462358    143110.07   -38862.322    2707.7246   -41570.046 
   15700    224.67683   -70.378146    143414.44   -38886.452    2742.4991   -41628.951 
   15800    225.10924   -197.65595    143069.91   -38875.926    2747.7773   -41623.703 
   15900    226.28817   -28.277106    143298.35   -38855.072    2762.1679    -41617.24 
   16000    222.51041    -75.04267    143143.44   -38938.475    2716.0549    -41654.53 
   16100    223.91742    17.622023    143138.05   -38902.663    2733.2294   -41635.892 
   16200    225.84784    124.97861    143208.53    -38806.08    2756.7929   -41562.873 
   16300    226.27721   -58.766955    143261.34   -38813.859     2762.034   -41575.893 
   16400    229.92464   -35.796548    143301.72   -38835.533     2806.556    -41642.09 
   16500    224.22378    3.7599163    142807.44   -38836.863    2736.9689   -41573.832 
   16600     228.7127    128.63419    143268.04   -38915.047    2791.7627   -41706.809 
   16700     227.1754   -85.073986    143435.91   -38940.044    2772.9977   -41713.042 
   16800    224.47289   -122.32744    143474.68   -38896.332    2740.0098   -41636.342 
   16900    228.03326   -46.055886    143681.07   -38835.252    2783.4691   -41618.722 
   17000    225.86867    33.031592    143602.48   -38881.876    2757.0472   -41638.923 
   17100    224.80178    92.821262    143186.96   -38906.581    2744.0243   -41650.606 
   17200    223.34584    3.1956705    143513.39   -38820.652    2726.2525   -41546.905 
   17300    227.80204    147.89213    143474.67   -38759.985    2780.6467   -41540.632 
   17400    227.13866   -61.325327    143459.62   -38882.912    2772.5492   -41655.462 
   17500    227.97442   -16.785542    143837.74   -38820.706    2782.7509   -41603.457 
   17600    222.60544    114.80432    144239.72   -38937.832    2717.2149   -41655.047 
   17700    220.31873    59.918572    144154.39   -38941.314    2689.3024   -41630.616 
   17800     227.8124   -35.528483    144445.85   -38937.231    2780.7732   -41718.005 
   17900    223.47994    105.23106    144322.71   -39016.048    2727.8894   -41743.937 
   18000    226.99382    204.52781    144672.17   -39056.412    2770.7813   -41827.194 
   18100     220.8964    146.51087    144496.18   -39032.224    2696.3537   -41728.578 
   18200     229.2922   -145.36562    144748.77   -38912.125    2798.8363   -41710.961 
   18300     223.6011   -22.738471     144314.5   -38976.071    2729.3683   -41705.439 
   18400    219.32533   -73.906605    144137.51   -38986.816    2677.1764   -41663.992 
   18500    224.59694    -56.15576    144069.82   -38930.453    2741.5239   -41671.977 
   18600    222.61427   -22.826404     144154.3   -38907.973    2717.3226   -41625.295 
   18700    225.82921   -120.95548    143976.39   -38869.742    2756.5655   -41626.308 
   18800    227.36842   -43.514595    144178.75   -38890.026    2775.3537    -41665.38 
   18900    221.62419    74.279706    144101.83   -38959.962    2705.2373   -41665.199 
   19000    223.80314   -17.697487    144129.09   -38940.841    2731.8344   -41672.675 
   19100    219.78062    14.226782    144216.58    -38969.27    2682.7339   -41652.004 
   19200    221.83424   -41.122518    144557.83   -38953.217    2707.8013   -41661.018 
   19300     225.8092    89.729413    144920.39   -38920.217    2756.3213   -41676.538 
   19400    225.42127    -94.26685    144735.12   -38976.982     2751.586   -41728.568 
   19500    227.50247    137.77241    144712.37     -38927.8    2776.9901    -41704.79 
   19600    225.80651   -14.498559    144707.39   -38940.989    2756.2885   -41697.278 
   19700    224.49819    24.249161    144819.42   -38934.738    2740.3186   -41675.057 
   19800    227.66994   -20.624502    144339.73   -38896.812    2779.0343   -41675.846 
   19900    226.19469    3.8425728    144645.16   -38925.974    2761.0267       -41687 
   20000    224.19791   -229.24399    144565.28    -38893.13    2736.6532   -41629.783 
   20100    227.73767    124.08683    144332.47   -38918.486     2779.861   -41698.347 
   20200    228.55036    161.27128    144706.27   -38886.323    2789.7811   -41676.104 
   20300    225.09429   -92.460063    144539.02   -38912.353    2747.5948   -41659.948 
   20400     224.8214   -81.574254    144670.75   -38970.102    2744.2639   -41714.366 
   20500    226.04699    222.23567     145115.3    -38923.11    2759.2238   -41682.334 
   20600    224.08482    44.584611    145305.09   -38959.817    2735.2728   -41695.089 
   20700    224.38116   -83.487318    144674.53   -39005.909      2738.89   -41744.799 
   20800     223.8236    154.41517    144723.71   -39000.582    2732.0842   -41732.666 
   20900    224.82364    99.489965    144962.25   -39008.485    2744.2912   -41752.776 
   21000    225.41274      8.03772    144693.47   -38908.751     2751.482   -41660.233 
   21100    219.52613    138.05064    144892.62   -38943.958    2679.6275   -41623.586 
   21200     217.2648   -70.133662     144122.7   -39034.536    2652.0247   -41686.561 
   21300    223.52468   -16.934725    144216.42   -39021.306    2728.4355   -41749.741 
   21400    222.50707    85.969468    144110.59   -38964.967    2716.0141   -41680.981 
   21500    231.90503   -232.45957    144034.56   -38793.557    2830.7295   -41624.286 
   21600    224.12692    102.17166    144147.48   -38929.081    2735.7867   -41664.868 
   21700    223.53445   -39.700397    144447.73   -38946.935    2728.5547   -41675.489 
   21800    224.45816   -37.051444    144395.64   -38865.184    2739.8299   -41605.014 
   21900    224.52516     89.84856    144471.15   -38879.974    2740.6478   -41620.622 
   22000    220.63647    103.43087    144623.82   -38883.331    2693.1807   -41576.512 
   22100    227.82477  -0.72898943       144669   -38805.253    2780.9242   -41586.177 
   22200    226.01108   -271.77064       144312    -38781.07    2758.7856   -41539.856 
   22300    223.14622    38.496901    144228.98   -38793.998    2723.8159   -41517.813 
   22400     219.7818    7.0737863    144246.59   -38924.451    2682.7483   -41607.199 
   22500    223.32167  -0.43273832    144577.11   -38859.781    2725.9575   -41585.738 
   22600    223.35251   -28.444159    144288.42   -38866.938    2726.3339   -41593.272 
   22700    224.97531   -13.490539     144387.6   -38872.474    2746.1425   -41618.617 
   22800    220.62511     162.1414    144348.97   -38937.041    2693.0421   -41630.083 
   22900    222.97903     -160.935    144186.68   -38981.817    2721.7751   -41703.592 
   23000    224.08613   -129.04162    144219.52   -38869.855    2735.2888   -41605.144 
   23100      225.681    178.90247    144190.95   -38855.219    2754.7564   -41609.975 
   23200    226.82395   -5.8753773    143828.54   -38849.252    2768.7077    -41617.96 
   23300    220.19929     32.61614    143883.89   -38894.045    2687.8445    -41581.89 
   23400    227.28919    -55.71131     143672.2   -38956.247    2774.3867   -41730.634 
   23500    223.81566   -188.35832    143831.57   -38939.324    2731.9873   -41671.311 
   23600    222.48951   -234.07359    144191.88   -38972.416    2715.7998   -41688.216 
   23700    224.15342   -323.10605    143731.81   -38988.229    2736.1102   -41724.339 
   23800    225.15553    109.06389    143684.93   -38925.421    2748.3424   -41673.764 
   23900    224.46453   -9.5852871    143895.33    -38865.52    2739.9077   -41605.427 
   24000    227.60903    68.941043    143845.37   -38778.873    2778.2907   -41557.163 
   24100    225.53138    91.010172    143486.09   -38816.067    2752.9301   -41568.997 
   24200     228.4554    137.96711    143510.13   -38709.515    2788.6219   -41498.137 
   24300    222.38671   -65.373552    143522.15    -38784.55    2714.5449   -41499.095 
   24400    224.57618    -46.20279    143494.67   -38710.246    2741.2706   -41451.517 
   24500    225.36692    141.81654    143413.13   -38829.616    2750.9226   -41580.538 
   24600    223.36948   -117.42191    143521.74   -38833.642    2726.5411   -41560.183 
   24700    226.96115    104.38178    143529.15   -38754.339    2770.3824   -41524.722 
   24800    228.13192   -130.83581    143232.85   -38721.582    2784.6733   -41506.255 
   24900     225.5879  -0.93892407    143495.14   -38804.127      2753.62   -41557.748 
   25000    224.92041    59.458317    143980.74   -38855.548    2745.4724    -41601.02 
   25100    228.50602   -23.990666    143999.25   -38833.833    2789.2397   -41623.072 
   25200    225.06698    55.459575    143860.53   -38903.032    2747.2614   -41650.293 
   25300    225.04423   -80.532102    143604.03   -38925.629    2746.9838   -41672.613 
   25400     225.1794    112.42323    143894.47   -38883.072    2748.6337   -41631.705 
   25500    225.51053   -75.070538    143871.36   -38846.286    2752.6756   -41598.962 
   25600    223.24882    52.299096     143935.9   -38930.912    2725.0683    -41655.98 
   25700    219.59263   -77.713256    143745.72     -38940.6    2680.4393   -41621.039 
   25800    219.91152   -45.068169    143562.88   -38921.378    2684.3318    -41605.71 
   25900    219.27975    35.432551    143517.01   -39025.956    2676.6201   -41702.576 
   26000     224.0956     101.0159    143843.26   -38867.634    2735.4044   -41603.039 
   26100    224.44302    16.180759    143458.32   -38930.398    2739.6451   -41670.043 
   26200     224.4136    36.790756    143775.94   -38799.024     2739.286    -41538.31 
   26300     223.3983   -142.67307    143847.95   -38797.551    2726.8928   -41524.444 
   26400      222.154     -40.4651    143626.12   -38851.238    2711.7044   -41562.942 
   26500    227.52658   -75.148096    143608.84   -38715.515    2777.2844   -41492.799 
   26600    225.62241    89.549745    143507.47   -38751.409    2754.0413   -41505.451 
   26700     222.7798    1.1007005    143273.21   -38794.626    2719.3431   -41513.969 
   26800    223.20901     -107.195    142990.56       -38737    2724.5823   -41461.582 
   26900    222.98051   -292.69293    143178.55   -38807.099    2721.7931   -41528.892 
   27000    223.72903    26.476437    143312.02   -38796.403    2730.9299   -41527.333 
   27100    223.34709    -28.11934    143475.64   -38778.517    2726.2677   -41504.785 
   27200    226.73784   -24.137308    143867.75   -38733.854    2767.6567   -41501.511 
   27300    230.07447   -27.975362    143909.75   -38742.098    2808.3849   -41550.483 
   27400     228.4978    8.6431191     144099.9   -38725.854    2789.1395   -41514.993 
   27500    223.56392    8.9209652    143588.65   -38846.281    2728.9145   -41575.195 
   27600    224.07269   -264.01577    143780.27   -38804.103    2735.1248   -41539.228 
   27700    225.48009    21.656052    144011.03   -38825.115     2752.304   -41577.419 
   27800    231.73359   -277.54809    143743.03   -38766.468    2828.6368   -41595.105 
   27900    229.85361    137.98842    143840.48   -38773.162     2805.689   -41578.851 
   28000    233.56277   -161.99011    143521.75   -38675.194    2850.9646   -41526.159 
   28100    230.27484    177.35114    143559.86    -38782.78    2810.8307    -41593.61 
   28200    223.32853    24.776654    143548.81   -38893.379    2726.0412    -41619.42 
   28300    222.97664    182.08034    143695.41   -38932.861    2721.7459   -41654.607 
   28400    224.89159    35.485202    143630.76   -38779.766    2745.1206   -41524.886 
   28500    221.19918   -17.734749    144170.43   -38836.006    2700.0495   -41536.056 
   28600    223.88393   -72.090198    144243.19   -38903.014    2732.8206   -41635.835 
   28700    222.80335    -177.1798    144048.11   -38950.308    2719.6307   -41669.939 
   28800    223.83779    89.309086    144172.03   -38897.324    2732.2575   -41629.582 
   28900    228.37303     45.94827    143872.29   -38881.986    2787.6165   -41669.603 
   29000    226.10557   -62.109387    143730.78   -38879.722     2759.939   -41639.661 
   29100    225.46367     135.1331    143692.08    -38830.08    2752.1036   -41582.184 
   29200    221.83568    20.975056    143791.19   -38862.219    2707.8188   -41570.037 
   29300    225.83133   -120.72018    144077.34   -38894.227    2756.5914   -41650.819 
   29400     220.3959    26.699572    144002.95   -38879.243    2690.2443   -41569.487 
   29500    227.56447   -56.047843     143824.7   -38883.058    2777.7469   -41660.805 
   29600    226.11695   -171.48053    144166.43    -38852.65    2760.0778   -41612.728 
   29700    226.48762   -26.911827    144051.11   -38834.087    2764.6024    -41598.69 
   29800    220.75795    12.358526    143777.26   -38865.444    2694.6636   -41560.107 
   29900    224.04869     84.24297    143867.38   -38822.736    2734.8318   -41557.567 
   30000    225.82086   -142.92264    143693.29   -38836.314    2756.4636   -41592.778 
   30100     228.3298    151.28065    143862.83   -38825.786    2787.0888   -41612.875 
   30200    225.52293   -121.28975    144366.58   -38842.513     2752.827    -41595.34 
   30300    223.30764   -147.49115    144363.14   -38809.556    2725.7863   -41535.343 
   30400    221.57252   -30.225864     144329.7   -38918.819    2704.6067   -41623.425 
   30500    220.92982   -51.507946    144245.78   -38964.282    2696.7615   -41661.043 
   30600     225.4826  -0.20325996    144342.84   -38936.092    2752.3347   -41688.427 
   30700    223.96717   -79.025656    144235.13   -38911.203    2733.8367    -41645.04 
   30800    225.44706      10.7912    144205.86   -38887.807    2751.9009   -41639.708 
   30900    224.92522   -10.445838    143808.61   -38884.665    2745.5311   -41630.196 
   31000    224.26687   -202.73577     143811.8   -38903.313    2737.4949   -41640.808 
   31100    221.00075   -106.81981    143750.73   -38966.275    2697.6274   -41663.902 
   31200    218.86401   -24.929431     143452.4   -39043.718    2671.5454   -41715.264 
   31300    228.32322    289.68932    143547.75   -38905.524    2787.0084   -41692.532 
   31400    225.57016    1.6806729    143814.69   -38991.789    2753.4034   -41745.192 
   31500    225.53898   -31.199327    144250.89   -38933.185    2753.0229   -41686.208 
   31600    224.93198    34.949969    144347.61   -38936.193    2745.6136   -41681.807 
   31700    228.05253    126.61233    144150.41   -38937.246    2783.7043    -41720.95 
   31800     225.5378     108.0776    144248.24   -38931.728    2753.0085   -41684.736 
   31900    226.57245   -36.428226    144145.71   -38857.901    2765.6378   -41623.539 
   32000     229.6631    152.29445    144752.71   -38851.898    2803.3636   -41655.261 
   32100    226.39457     140.9474    144542.26   -38944.807    2763.4665   -41708.273 
   32200    223.13905   -107.17169    144323.97   -38878.517    2723.7283   -41602.245 
   32300    223.51572   -22.900695    143771.97   -38912.536    2728.3261   -41640.862 
   32400    228.11463   -71.052906    143791.46    -38856.82    2784.4624   -41641.282 
   32500    227.05305   -129.86044    143797.52   -38871.252    2771.5042   -41642.756 
   32600    224.14985    -124.9176    143848.89   -38911.507    2736.0666   -41647.574 
   32700    225.17491    138.07264    144041.46   -38853.685    2748.5789   -41602.263 
   32800    226.28447   -63.661259    144160.46   -38880.151    2762.1226   -41642.274 
   32900    222.53129   -32.477669    143537.34   -38980.716    2716.3098   -41697.026 
   33000    222.05884   -42.227677    144144.37   -38898.137    2710.5429    -41608.68 
   33100    224.80619   -66.841107    144329.35   -38977.421    2744.0782   -41721.499 
   33200    227.12245   -19.238214    144512.96   -38874.888    2772.3514   -41647.239 
   33300    226.55521   -49.781531    144613.97   -38877.559    2765.4274   -41642.987 
   33400    223.67377    148.17868     144594.1   -38923.477    2730.2553   -41653.732 
   33500    227.79565   -214.17321    144204.54   -38846.792    2780.5687   -41627.361 
   33600     223.8006    128.31141    144363.06   -38923.389    2731.8035   -41655.193 
   33700    225.27034   -45.821474    144421.26   -38950.691    2749.7438   -41700.434 
   33800    226.83945   -74.412399    144271.73   -38938.458    2768.8969   -41707.355 
   33900    222.90584   -143.76177    143790.03   -38929.783    2720.8816   -41650.664 
   34000     228.0674   -138.73699    143765.19   -38919.985    2783.8858    -41703.87 
   34100    221.27775   -194.87237    144075.85   -38993.438    2701.0085   -41694.446 
   34200     223.7389   -154.88558       143895   -38948.617    2731.0504   -41679.668 
   34300    224.16241   -78.199814    144216.13   -38918.572    2736.2199   -41654.792 
   34400    227.18109    48.106698     144012.9   -38784.594    2773.0671   -41557.661 
   34500    228.38359   -145.06541    144359.33   -38784.894    2787.7454   -41572.639 
   34600    229.67593    2.9456067    143909.14   -38856.074    2803.5202   -41659.594 
   34700    223.95735    174.39795    144044.82   -38910.872    2733.7169   -41644.589 
   34800    221.92966   -111.90701    143487.45   -38935.002     2708.966   -41643.968 
   34900    225.15152   -123.08746    143817.45   -38924.892    2748.2934   -41673.185 
   35000     222.3113    35.318186    144385.58   -38958.453    2713.6244   -41672.078 
   35100    227.14369    51.494919    144548.63    -38898.82    2772.6107    -41671.43 
   35200    227.27728    39.623707    144872.25   -38816.364    2774.2412   -41590.605 
   35300    226.30563    56.538129    144337.18   -38900.611    2762.3809   -41662.992 
   35400      218.505     38.94412     144832.8   -38971.566    2667.1632   -41638.729 
   35500    222.60182   -87.933103     144859.6   -38933.414    2717.1707   -41650.584 
   35600    225.10585    54.048111    144556.88   -38943.423    2747.7359   -41691.159 
   35700    226.96949   -87.392779    144938.35       -38882    2770.4843   -41652.485 
   35800    228.62048   -162.20395    144847.45    -38888.12     2790.637   -41678.757 
   35900    226.54494    347.71851    144647.72   -38860.083     2765.302   -41625.385 
   36000    225.44274   -151.31287    144383.46   -38870.825    2751.8482   -41622.673 
   36100    227.52588    -87.38396    144181.11   -38916.479    2777.2758   -41693.755 
   36200    223.81112    106.81969    145092.17   -38851.408    2731.9319    -41583.34 
   36300    229.31052    66.710788    144843.77   -38888.535    2799.0598   -41687.595 
   36400    225.77449    96.078523    144703.85    -38833.13    2755.8976   -41589.028 
   36500    231.17879    199.72238    144678.15   -38797.318    2821.8647   -41619.182 
   36600    225.47848     199.3036     144367.9   -38929.208    2752.2844   -41681.492 
   36700    224.03512     83.10916    144481.68   -38908.602    2734.6661   -41643.268 
   36800    222.34667    -14.38922    144689.09   -39000.758    2714.0563   -41714.814 
   36900    223.56303   -44.434123     144785.6   -39049.522    2728.9037   -41778.426 
   37000    231.06765    65.089113    144662.92   -38977.864    2820.5082   -41798.373 
   37100    225.34262    118.86775    145103.18   -39007.122     2750.626   -41757.748 
   37200    226.69857     17.98293    145071.18   -38997.432    2767.1773    -41764.61 
   37300    225.51532   -129.92366    145411.05    -38980.87    2752.7341   -41733.604 
   37400    222.60502    63.951498    145188.25   -39041.673    2717.2097   -41758.883 
   37500    224.85622   -85.612605    145103.24   -39037.257    2744.6888   -41781.946 
   37600    223.80915   -65.541641    145380.09    -38982.69    2731.9079   -41714.598 
   37700    222.68451   -101.57514    145072.45   -38997.349      2718.18   -41715.529 
   37800    226.85898    26.175585    144734.72   -39006.058    2769.1354   -41775.194 
   37900    220.99108    178.35522    144685.48   -39053.198    2697.5094   -41750.708 
   38000    223.51281    253.19674    144851.64   -39010.931    2728.2906   -41739.221 
   38100    222.08703   -137.36211    144838.19   -39037.291     2710.887   -41748.178 
   38200    221.50154   -44.742041    144847.62   -39040.779    2703.7402   -41744.519 
   38300    223.13954    88.912265    145215.01   -39074.646    2723.7343    -41798.38 
   38400    217.52064    5.5690716    144555.49   -39089.763    2655.1477    -41744.91 
   38500     219.5422   -31.496239    144619.98   -39087.694    2679.8237   -41767.518 
   38600    223.10563   -27.200993    144444.66   -38963.471    2723.3204   -41686.792 
   38700    223.85988    43.002592    144913.09   -38981.319    2732.5271   -41713.846 
   38800    223.78713    -92.60778    144393.68   -38913.367     2731.639   -41645.006 
   38900     229.5594    20.940784    144441.97    -38858.05    2802.0978   -41660.148 
   39000    224.85403    27.873217    144344.57   -38900.891    2744.6621   -41645.553 
   39100    223.70024    29.754129    144347.57   -38919.922    2730.5785   -41650.501 
   39200    227.27029    221.42109    144306.51   -38936.034     2774.156    -41710.19 
   39300    228.66464    36.460322    144157.16   -38917.279     2791.176   -41708.455 
   39400    226.92673    95.382397    144247.73   -38988.625    2769.9623   -41758.587 
   39500    227.67955   -96.740328    144401.87   -38935.229    2779.1515    -41714.38 
   39600    224.13665   -115.01134    144522.63   -38933.189    2735.9054   -41669.094 
   39700    222.05061    49.085761    144647.92   -38999.706    2710.4424   -41710.149 
   39800    225.53834     38.97317    144474.94   -38954.585     2753.015     -41707.6 
   39900     220.5879    93.225211    144238.96   -39046.843    2692.5879   -41739.431 
   40000    221.41481    84.694752    144272.71   -38945.363    2702.6815   -41648.045 
   40100    222.77619   -16.347933    144244.08   -38953.241    2719.2991   -41672.541 
   40200    225.36135   -5.4292472    144286.47   -38899.735    2750.8547    -41650.59 
   40300    227.91928   -38.158234     144480.2   -38867.061    2782.0778   -41649.138 
   40400    222.36684   -25.419333       144267   -38926.808    2714.3025    -41641.11 
   40500    224.95066    12.324599    144144.13   -38958.354    2745.8416   -41704.195 
   40600    225.24924    172.47123    144502.53   -38914.411    2749.4862   -41663.898 
   40700    221.56853   -41.702173    144384.42   -38928.751    2704.5579   -41633.308 
   40800    225.47882   -5.5149869    144487.93   -38940.245    2752.2885   -41692.534 
   40900    222.40995   -130.83561    144227.54    -38977.79    2714.8287   -41692.619 
   41000    225.55987    26.265156     144394.4   -38985.318    2753.2779   -41738.595 
   41100    220.77714    66.098723    144259.33   -38975.483    2694.8978   -41670.381 
   41200    228.57096   -214.87613    143977.82   -38817.726    2790.0325   -41607.759 
   41300    225.40184   -55.476989    143624.57   -38924.048    2751.3489   -41675.397 
   41400    225.48985   -85.867608    143783.39   -38887.608    2752.4232   -41640.031 
   41500    224.05803    109.49824    143966.69   -38938.952    2734.9458   -41673.898 
   41600     228.7518   -118.95759    144255.85   -38843.873    2792.2399   -41636.113 
   41700    219.94316    15.655089    144055.13   -38978.291     2684.718   -41663.009 
   41800    220.23147   -58.341791    144384.68   -38862.684    2688.2372   -41550.921 
   41900    226.80183   -124.70471    144402.52   -38855.371    2768.4378   -41623.809 
   42000    226.47086   -186.92502    144821.14   -38928.032    2764.3977   -41692.429 
   42100    226.54037    3.4096069    144663.75   -38932.719    2765.2463   -41697.965 
   42200    231.49647   -79.367785    144726.85   -38892.066    2825.7425   -41717.808 
   42300    228.27408   -44.714468    144225.43   -38967.669    2786.4086   -41754.077 
   42400    225.68037   -51.595307     144499.6   -38988.144    2754.7487   -41742.893 
   42500    221.47923    92.712219    144589.76   -39000.246    2703.4678   -41703.714 
   42600     224.2742    33.509107    144670.81   -39032.622    2737.5844   -41770.207 
   42700    218.67765    98.865839    144036.87    -39039.39    2669.2706   -41708.661 
   42800    221.04193    80.448847    144255.74   -39073.362    2698.1301   -41771.492 
   42900    224.25039    -36.80036    144370.31     -39013.2    2737.2938   -41750.493 
   43000    225.73093   -51.742415    144251.35   -38924.266    2755.3658   -41679.632 
   43100    225.28667    164.35592    144130.39   -38942.753     2749.943   -41692.696 
   43200    226.53398   -15.145198    144010.46   -38961.767    2765.1682   -41726.936 
   43300    227.08342    71.568304    144060.54   -38922.458    2771.8749   -41694.333 
   43400    221.10503   -129.24244    143910.72   -38982.312    2698.9002   -41681.213 
   43500    226.84326    192.01094     144314.5   -38930.878    2768.9434   -41699.821 
   43600    226.32724   -178.80838     144584.7   -38967.507    2762.6447   -41730.152 
   43700    226.16304    76.418619    144501.01   -38923.781    2760.6404   -41684.422 
   43800    228.60395   -59.589377     144658.9    -38888.15    2790.4351   -41678.585 
   43900    226.19196   -67.617079       144215   -38950.702    2760.9934   -41711.695 
   44000    228.84306    42.990739    144009.36   -38898.096    2793.3538   -41691.449 
   44100    224.06057   -113.32393    144450.49   -38872.917    2734.9768   -41607.894 
   44200    225.09272    16.961174    144581.79    -38919.51    2747.5757   -41667.085 
   44300    218.44059   -103.54027    144223.97   -39051.679    2666.3769   -41718.056 
   44400    223.32325   -86.097573     144300.1   -38987.551    2725.9768   -41713.528 
   44500     225.9017    16.594621    144203.26   -39027.277    2757.4504   -41784.727 
   44600    224.67565   -64.599009    144125.35   -39035.439    2742.4847   -41777.924 
   44700    219.90706    -5.896239     144164.7   -39101.394    2684.2773   -41785.671 
   44800    223.78873     236.3801     144257.5   -39030.039    2731.6586   -41761.698 
   44900    225.12656   -19.797163    144430.55   -39011.436    2747.9887   -41759.425 
   45000    227.55903    71.214544    144376.18   -39018.153    2777.6804   -41795.834 
   45100    229.99273    75.044437       145063   -39018.927    2807.3872   -41826.314 
   45200    225.71907   -61.046778     145094.8   -39051.894    2755.2211   -41807.115 
   45300    224.34786   -151.00918    144941.45   -39031.198    2738.4836   -41769.681 
   45400    224.15044   -34.226099    144941.47   -39069.879    2736.0738   -41805.953 
   45500    225.60384   -167.81381    144932.43   -39002.599    2753.8145   -41756.413 
   45600    223.64299    103.70425    145137.57   -39001.106    2729.8797   -41730.986 
   45700    231.77573    11.299402    145437.89    -39041.44    2829.1513   -41870.591 
   45800    225.14197    45.214258    144900.83   -38973.083    2748.1768   -41721.259 
   45900     222.6469    28.530495    145278.75   -38991.237     2717.721   -41708.958 
   46000    224.47414   -306.97164    144863.59   -38987.076     2740.025     -41727.1 
   46100    223.63824    327.96731    144876.95   -38972.017    2729.8217   -41701.838 
   46200     222.4983    38.598671    145198.11   -38932.715     2715.907   -41648.622 
   46300    222.39978    -1.122347    145132.14    -38952.31    2714.7045   -41667.014 
   46400    225.79421    45.536847    145431.14   -38949.461    2756.1383   -41705.599 
   46500    227.43301   -117.75435    145110.03   -38935.146    2776.1422   -41711.288 
   46600    227.12275    88.269449    144728.96   -38889.377    2772.3551   -41661.733 
   46700    226.47832    181.68835    144588.36    -38909.27    2764.4888   -41673.758 
   46800    224.91068    113.36985    144471.65   -38857.666    2745.3536   -41603.019 
   46900    226.12969    2.1016179    144270.75   -38885.068    2760.2333   -41645.302 
   47000    219.75588    7.5602825    144098.61   -38938.712    2682.4319   -41621.144 
   47100    229.40351    63.452903    144405.95    -38878.44     2800.195   -41678.635 
   47200    220.47093    26.303318     144895.7   -38890.163    2691.1601   -41581.323 
   47300    227.06091   -103.12024    145104.99   -38868.838    2771.6002   -41640.439 
   47400    228.19725   -22.669431    144935.07   -38810.101    2785.4708   -41595.572 
   47500    225.50685    28.546126    145242.72   -38897.011    2752.6306   -41649.641 
   47600    228.51007    75.371941    144775.88   -38860.011    2789.2892     -41649.3 
   47700    226.51886    96.479979    144411.67   -38932.464    2764.9837   -41697.447 
   47800    224.73177     224.8779    144584.36   -38980.889    2743.1698   -41724.059 
   47900    226.80487   -128.60198    144816.18   -38955.506    2768.4749   -41723.981 
   48000    223.10687    34.233195    144605.06   -39052.992    2723.3355   -41776.328 
   48100    219.87913    186.61064    145006.89   -39057.002    2683.9364   -41740.939 
   48200    224.69668   -124.10491    144557.06   -39026.427    2742.7414   -41769.168 
   48300    225.55208   -72.979795     144623.6   -38965.941    2753.1828   -41719.124 
   48400    225.73192    83.808853    144792.22   -38953.546     2755.378   -41708.924 
   48500    223.13311   -91.352734    145013.81   -39028.852    2723.6559   -41752.508 
   48600    223.45708    -37.21632    144867.61   -38998.652    2727.6103   -41726.262 
   48700    221.43974   -100.21039    144607.34   -39069.992    2702.9859   -41772.978 
   48800    218.75606   -67.826761    144369.51   -39025.675    2670.2277   -41695.903 
   48900    222.26584    27.499651    144277.61     -38938.4    2713.0696    -41651.47 
   49000    222.05765   -27.537039    144469.23   -38932.996    2710.5283   -41643.524 
   49100    223.17269   -124.40121    144546.79   -38969.442    2724.1389   -41693.581 
   49200    221.79951    101.94032    144550.21   -39045.333    2707.3773    -41752.71 
   49300    225.58445   -136.09921    144605.96   -39040.115    2753.5779   -41793.693 
   49400    223.03408    145.47411    144653.74   -38938.368     2722.447   -41660.815 
   49500    224.01197   -175.36956    144162.04   -38891.513    2734.3836   -41625.896 
   49600    227.58982    9.0973252    144422.37    -38924.92    2778.0563   -41702.976 
   49700    226.94296   -49.393568    144521.22   -38912.564    2770.1604   -41682.724 
   49800    226.43773    127.75798    144932.06   -38869.345    2763.9933   -41633.339 
   49900    222.97355   -28.687934    144503.93   -38949.844    2721.7081   -41671.552 
   50000     218.2256    124.48816    144575.41   -38995.431    2663.7526   -41659.184 
   50100    220.10987     144.3969    144717.56   -39010.385    2686.7529   -41697.138 
   50200     224.7827   -129.44779    144422.72   -39005.355    2743.7914   -41749.146 
   50300    225.47147    77.150218    144418.32   -38952.663    2752.1988   -41704.862 
   50400    224.87857    109.48114    144559.54   -38988.609    2744.9616    -41733.57 
   50500    225.91528   -75.763489    144762.93   -39037.988    2757.6162   -41795.604 
   50600    228.32133    146.94492    144484.72   -39028.717    2786.9854   -41815.703 
   50668    227.81836    149.97525    144535.51   -38992.587    2780.8459   -41773.433 
Loop time of 61.2786 on 6 procs for 50000 steps with 4096 atoms

Performance: 704.977 ns/day, 0.034 hours/ns, 815.945 timesteps/s
99.4% CPU use with 6 MPI tasks x no OpenMP threads

MPI task timing breakdown:
Section |  min time  |  avg time  |  max time  |%varavg| %total
---------------------------------------------------------------
Pair    | 28.378     | 40.005     | 46.342     | 125.2 | 65.28
Neigh   | 3.8201     | 5.1846     | 5.8965     |  41.7 |  8.46
Comm    | 7.2066     | 14.24      | 27.179     | 234.2 | 23.24
Output  | 0.093929   | 0.094903   | 0.098146   |   0.5 |  0.15
Modify  | 1.3805     | 1.3968     | 1.4159     |   1.1 |  2.28
Other   |            | 0.3575     |            |       |  0.58

Nlocal:        682.667 ave         782 max         503 min
Histogram: 2 0 0 0 0 0 0 0 0 4
Nghost:        1226.83 ave        1319 max        1061 min
Histogram: 2 0 0 0 0 0 0 0 1 3
Neighs:        0.00000 ave           0 max           0 min
Histogram: 6 0 0 0 0 0 0 0 0 0
FullNghs:      18983.7 ave       22034 max       13632 min
Histogram: 2 0 0 0 0 0 0 0 0 4

Total # of neighbors = 113902
Ave neighs/atom = 27.808105
Neighbor list builds = 5634
Dangerous builds = 0
write_data data.${NAME}
write_data data.15A_cavity_eq_fix5
System init for write_data ...

Total wall time: 0:01:02
