
# Create simulation box of size 70 x 70 x 29.3 Angstrom
#
lattice	     sc 1
Lattice spacing in x,y,z = 1.0000000 1.0000000 1.0000000
region 	     all block 0 70 0 70 0 29.3 units box
create_box          1 all
Created orthogonal box = (0.0000000 0.0000000 0.0000000) to (70.000000 70.000000 29.300000)
  2 by 3 by 1 MPI processor grid

# Create cylindrical cavity, with radius of 1.5nm (15 A)
#
region              water cylinder z 35 35 15.1 -0.0 29.3 units box side out
fix 		    5 all indent 10.0 cylinder z 35 35 15 side out units box

# fill box with randomly distributed atoms such that density is ~0.0324 N/A^3
#
create_atoms        1 random 3981 63782 water
Created 3981 atoms
  create_atoms CPU = 0.001 seconds
mass                1 18.015


# Define potential
#
pair_style          sw
pair_coeff          * * ML_mW.sw mW
Reading sw potential file ML_mW.sw with DATE: 2019-02-27

# Run minimization
#
minimize            1.0e-8 1.0e-8 10000 1000
WARNING: Using 'neigh_modify every 1 delay 0 check yes' setting during minimization (../min.cpp:187)
Neighbor list info ...
  update every 1 steps, delay 0 steps, check yes
  max neighbors/atom: 2000, page size: 100000
  master list distance cutoff = 6.0032907
  ghost atom cutoff = 6.0032907
  binsize = 3.0016454, bins = 24 24 10
  1 neighbor lists, perpetual/occasional/extra = 1 0 0
  (1) pair sw, perpetual
      attributes: full, newton on
      pair build: full/bin/atomonly
      stencil: full/bin/3d
      bin: standard
Per MPI rank memory allocation (min/avg/max) = 4.219 | 4.230 | 4.239 Mbytes
Step Temp E_pair E_mol TotEng Press 
       0            0    7983829.9            0    7983829.9    5239777.3 
     668            0   -42619.168            0   -42619.168   -319.00559 
Loop time of 1.21335 on 6 procs for 668 steps with 3981 atoms

99.8% CPU use with 6 MPI tasks x no OpenMP threads

Minimization stats:
  Stopping criterion = max force evaluations
  Energy initial, next-to-last, final = 
      7983829.92747164  -42618.5534794743  -42619.1681273034
  Force two-norm initial, final = 2.0857230e+08 6.9168806
  Force max component initial, final = 1.2644871e+08 1.8350567
  Final line search alpha, max atom move = 0.032484279 0.059610492
  Iterations, force evaluations = 668 1000

MPI task timing breakdown:
Section |  min time  |  avg time  |  max time  |%varavg| %total
---------------------------------------------------------------
Pair    | 0.54014    | 0.87341    | 1.0598     |  23.2 | 71.98
Neigh   | 0.018712   | 0.027191   | 0.03261    |   3.6 |  2.24
Comm    | 0.094938   | 0.28422    | 0.62557    |  41.6 | 23.42
Output  | 0          | 0          | 0          |   0.0 |  0.00
Modify  | 0.0031654  | 0.0045998  | 0.0054213  |   1.5 |  0.38
Other   |            | 0.02393    |            |       |  1.97

Nlocal:        663.500 ave         780 max         461 min
Histogram: 2 0 0 0 0 0 0 0 1 3
Nghost:        1200.83 ave        1323 max        1021 min
Histogram: 2 0 0 0 0 0 0 1 2 1
Neighs:        0.00000 ave           0 max           0 min
Histogram: 6 0 0 0 0 0 0 0 0 0
FullNghs:      18122.3 ave       21928 max       11955 min
Histogram: 2 0 0 0 0 0 0 0 2 2

Total # of neighbors = 108734
Ave neighs/atom = 27.313238
Neighbor list builds = 30
Dangerous builds = 0

# Add velocity/set timestep
#
velocity            all create ${TEMP} 120598 rot yes dist gaussian
velocity            all create 225 120598 rot yes dist gaussian
timestep            10.0


##### Equilibrate #####

thermo	            100
thermo_style        custom step temp press vol etotal ke pe

# Neighbor lists
#
neigh_modify        delay 0 every 1 check yes

# Set fixes
#
fix                 1 all momentum 10 linear 1 1 1 rescale
fix                 2 all nve
fix                 3 all temp/csvr ${TEMP} ${TEMP} 500.0 928347
fix                 3 all temp/csvr 225 ${TEMP} 500.0 928347
fix                 3 all temp/csvr 225 225 500.0 928347
fix                 4 all press/berendsen iso ${PRES} ${PRES} 1000.0 modulus 20000
fix                 4 all press/berendsen iso 1 ${PRES} 1000.0 modulus 20000
fix                 4 all press/berendsen iso 1 1 1000.0 modulus 20000

# Run 0.5 ns equilibration
#
dump                1 all custom 1000 eq.${NAME}.dump id type x y z vx vy vz
dump                1 all custom 1000 eq.15A_cavity_eq_fix10.dump id type x y z vx vy vz
run                 50000
Per MPI rank memory allocation (min/avg/max) = 3.094 | 3.105 | 3.114 Mbytes
Step Temp Press Volume TotEng KinEng PotEng 
     668          225    530.89679       143570   -39949.853    2669.3154   -42619.168 
     700    146.17766    43.613025    143616.52   -39107.941    1734.1967   -40842.137 
     800     200.5324   -80.059498    143119.56   -37933.296    2379.0409   -40312.337 
     900    215.02959    -129.2447    142587.59   -37603.659    2551.0302   -40154.689 
    1000    222.09371   -97.226376    141909.83   -37447.439    2634.8363   -40082.275 
    1100    225.25067    29.356035    141399.82    -37463.05    2672.2893   -40135.339 
    1200    222.05197    -114.6182    141733.78   -37584.254     2634.341   -40218.595 
    1300    219.03988    44.455103    141856.04   -37656.829    2598.6068   -40255.435 
    1400    223.66035    71.856447    141773.38   -37707.517    2653.4223   -40360.939 
    1500    219.56789    25.283402    141774.66   -37719.054    2604.8709   -40323.925 
    1600    227.80466     25.29857     141179.5   -37601.399    2702.5889   -40303.988 
    1700    227.58285    364.79503    141014.21   -37582.023    2699.9573    -40281.98 
    1800    222.57892   -1.9641193    140907.81   -37719.337    2640.5926    -40359.93 
    1900    224.96118    56.677272    141257.21   -37710.513    2668.8548   -40379.368 
    2000    222.55129    68.936294    141131.32   -37692.615    2640.2649    -40332.88 
    2100    233.83493   -133.11325    141144.29   -37571.665    2774.1297   -40345.795 
    2200    228.97268   -69.281101     140926.4   -37663.565    2716.4458    -40380.01 
    2300    228.40691    -244.1387    140828.49   -37671.923    2709.7337   -40381.656 
    2400    225.73965   -41.139368     140532.5    -37651.96    2678.0904    -40330.05 
    2500     231.6828    27.771379    140532.67   -37609.603    2748.5976     -40358.2 
    2600    230.32939    -96.77929    140903.51    -37577.29    2732.5413   -40309.832 
    2700    228.11686   -12.020613    140948.18   -37574.342    2706.2926   -40280.634 
    2800    228.31084    36.549001    140513.07   -37631.351     2708.594   -40339.945 
    2900    221.96293    120.31573    140583.96   -37649.261    2633.2848   -40282.546 
    3000    223.02309    5.8468954    140531.06   -37742.347    2645.8621   -40388.209 
    3100    225.85671     293.8585    140806.88   -37656.699    2679.4791   -40336.178 
    3200    226.56262   -214.57826     140748.2   -37686.593    2687.8537   -40374.447 
    3300    224.74165    168.22353    141024.63   -37685.015    2666.2505   -40351.266 
    3400    225.88328   -176.28141     141084.3    -37697.36    2679.7943   -40377.155 
    3500    219.94388   -47.365406    141005.43   -37705.337    2609.3315   -40314.668 
    3600    223.20917   -155.27632    141001.52   -37733.187    2648.0697   -40381.256 
    3700    220.88265   -193.74894    140874.94   -37809.226    2620.4687   -40429.695 
    3800    222.99236   -26.941367    140454.52    -37829.86    2645.4975   -40475.357 
    3900    221.62471    118.99253    140504.75   -37787.711    2629.2723   -40416.983 
    4000    227.43811   -63.074924    140657.45   -37715.556    2698.2403   -40413.797 
    4100    227.11494   -22.477787    140561.95   -37763.692    2694.4063   -40458.099 
    4200    221.99949    117.28986    140557.63   -37752.709    2633.7185   -40386.428 
    4300    220.82092     231.9622    140951.45   -37795.187    2619.7364   -40414.924 
    4400    225.28906   -93.725996    140950.84   -37785.139    2672.7447   -40457.883 
    4500    228.45455    54.858467    140981.69   -37745.665    2710.2989   -40455.963 
    4600    223.24583   -80.179433    140896.27    -37831.08    2648.5046   -40479.584 
    4700     225.0102    83.070812    140844.58   -37806.423    2669.4365   -40475.859 
    4800    222.26744    141.55175    140670.94   -37858.842    2636.8974    -40495.74 
    4900     229.7907    134.98875     140371.1   -37682.967    2726.1504   -40409.118 
    5000     233.6689   -49.246549    140260.01   -37629.495      2772.16   -40401.655 
    5100      227.348    91.215359    140757.73   -37756.004    2697.1712   -40453.175 
    5200    227.70311   -2.9728156    140625.62   -37801.853    2701.3841   -40503.237 
    5300    222.17288      119.115    140575.61   -37791.761    2635.7755   -40427.536 
    5400    219.14255   -176.33288     140557.3   -37819.897    2599.8248   -40419.722 
    5500     220.9976    63.955175    140764.49   -37813.682    2621.8324   -40435.514 
    5600     219.1214   -15.864585    140649.94   -37775.501    2599.5738   -40375.075 
    5700    224.91994   -100.93447    140641.61   -37777.556    2668.3656   -40445.921 
    5800    224.80609   -48.344666    140665.64   -37711.954     2667.015   -40378.969 
    5900    226.09607     100.4768    140479.42   -37716.034    2682.3187   -40398.353 
    6000    224.18435    44.971777    140436.49   -37779.365    2659.6389   -40439.004 
    6100    223.62727   -108.03545    140331.69    -37742.26    2653.0298    -40395.29 
    6200    225.73162    112.68263    140271.07   -37771.972    2677.9951   -40449.967 
    6300    221.92294   -117.67509    140444.86   -37823.922    2632.8103   -40456.732 
    6400    219.52428   -160.85349    140463.57   -37795.658    2604.3535   -40400.011 
    6500    225.88724    10.655727       140380   -37621.998    2679.8413   -40301.839 
    6600    222.98079   -73.900357    140308.74   -37712.315    2645.3603   -40357.675 
    6700    218.82853   -109.61425    140171.95   -37764.261    2596.0994   -40360.361 
    6800    224.61823   -163.13715    139719.57   -37705.121    2664.7862   -40369.907 
    6900    226.94607   -4.1136414    139960.15   -37722.347    2692.4029    -40414.75 
    7000    230.35675     120.2864    140061.13   -37708.573    2732.8658   -40441.439 
    7100    225.29606    113.86413    139767.75   -37733.391    2672.8277   -40406.218 
    7200    224.84522    160.77025    139945.01   -37781.789    2667.4791   -40449.268 
    7300     220.1357     5.305543    139907.17   -37883.774    2611.6072   -40495.381 
    7400    223.05038     115.7111    140178.26   -37853.847    2646.1859   -40500.033 
    7500    223.60668   -45.703723    140504.24    -37818.31    2652.7855   -40471.096 
    7600     217.1911    147.89076    140274.08   -37911.243    2576.6736   -40487.917 
    7700    225.60882    79.647875    140185.48   -37871.546    2676.5383   -40548.084 
    7800    225.70251    -105.6236    140767.49   -37741.894    2677.6497   -40419.543 
    7900    225.56295   -149.07275    140687.11   -37869.985    2675.9941   -40545.979 
    8000    219.41487    170.64243    140583.87   -37944.601    2603.0555   -40547.656 
    8100    219.49356    76.585086    140786.74   -37933.084    2603.9891   -40537.073 
    8200    220.85173    230.83526     141019.2   -37942.339    2620.1018   -40562.441 
    8300    224.42245   -10.121683    141452.87   -37934.651    2662.4635   -40597.114 
    8400     224.6623   -159.23477    141447.69   -37919.131    2665.3091    -40584.44 
    8500     225.0891   -108.21563    140968.56   -37854.555    2670.3725   -40524.927 
    8600    224.33654    44.084279    140952.08   -37873.192    2661.4443   -40534.637 
    8700    220.73794    44.312321     141334.8   -37871.653     2618.752   -40490.405 
    8800    225.15645    276.27638    141079.97   -37878.949    2671.1715    -40550.12 
    8900    222.95607    182.41281    141384.35    -37929.58     2645.067   -40574.647 
    9000     224.3867   -73.006961    141539.89   -37917.742    2662.0395   -40579.781 
    9100    219.63265   -183.28102     141106.6   -37987.177    2605.6392   -40592.816 
    9200    223.66571   -142.14947    141278.84   -37889.759    2653.4859   -40543.245 
    9300    228.87103    77.226191    140816.76    -37791.49    2715.2399    -40506.73 
    9400    223.23539    209.47818    140785.55   -37907.695    2648.3808   -40556.076 
    9500    225.11313   -112.63042    141337.43   -37814.093    2670.6575    -40484.75 
    9600    221.31128    12.774988    140833.25   -37823.992    2625.5539   -40449.546 
    9700    228.31088   -7.0259879    140842.59   -37752.485    2708.5944   -40461.079 
    9800    221.12009   -72.188072    140638.98   -37769.683    2623.2856   -40392.968 
    9900     222.7756   -174.87739    140563.24   -37784.872    2642.9259   -40427.798 
   10000    221.39435    54.467412       140660   -37821.435    2626.5393   -40447.974 
   10100    221.33126    -64.07309    141039.83   -37824.692    2625.7908   -40450.482 
   10200    229.09378   -86.735564    141614.85   -37806.199    2717.8825   -40524.081 
   10300    218.28261     62.93921     141677.4   -38015.435    2589.6229   -40605.057 
   10400    225.87359    58.648018    141635.22   -37849.945    2679.6794   -40529.625 
   10500    220.65435   -178.29971    142042.83   -37863.177    2617.7602   -40480.937 
   10600    227.48401    -16.08495    141414.25   -37795.731    2698.7847   -40494.515 
   10700    226.71525    149.87485    141441.78   -37757.603    2689.6645   -40447.267 
   10800    224.04101   -164.96978    141908.51    -37770.99    2657.9383   -40428.928 
   10900    225.84898   -45.493635    141763.47   -37801.698    2679.3874   -40481.086 
   11000    225.83406    23.104308    141422.45   -37794.455    2679.2104   -40473.665 
   11100    229.32639    105.35205    141288.17   -37829.399     2720.642   -40550.041 
   11200    225.04739    27.764744    141392.21   -37859.073    2669.8776   -40528.951 
   11300     226.6956    142.51791    141220.78   -37833.454    2689.4314   -40522.885 
   11400     225.3886   -32.330395    141339.55   -37792.958    2673.9256   -40466.883 
   11500    224.42323   -102.50565    141261.18   -37858.527    2662.4728       -40521 
   11600    227.02102    67.305733    141310.99   -37875.815    2693.2921   -40569.107 
   11700     229.6826    34.187102    141626.16   -37848.698     2724.868   -40573.566 
   11800    228.25089   -101.59339    141598.06   -37856.375    2707.8827   -40564.258 
   11900     226.6548   -60.690482    141467.18   -37875.103    2688.9473    -40564.05 
   12000    223.52209    163.82204    141583.71   -37960.607    2651.7821   -40612.389 
   12100     224.0397   -13.433179    141856.87   -37892.085    2657.9228   -40550.008 
   12200    228.88811    -90.15637    141543.74   -37832.057    2715.4424   -40547.499 
   12300    226.79399   -93.377968    142019.18   -37954.811    2690.5987   -40645.409 
   12400    227.19791   -129.59007    141164.82   -37920.654    2695.3905   -40616.045 
   12500    220.30013    45.481037    141463.24    -37975.06    2613.5579   -40588.618 
   12600    232.64574    47.699053    141446.82   -37869.511    2760.0215   -40629.533 
   12700    224.99646  -0.82699376    141058.82   -37831.579    2669.2734   -40500.852 
   12800    226.63062   -14.524246    140945.19    -37824.81    2688.6604    -40513.47 
   12900    224.83849    20.019139    141052.23   -37890.319    2667.3993   -40557.718 
   13000    223.52567   -127.30242    141194.63   -37926.418    2651.8245   -40578.243 
   13100    224.63164    115.60362    141148.43     -37802.4    2664.9453   -40467.345 
   13200    226.01719    116.71496    141206.86   -37800.814     2681.383   -40482.197 
   13300    222.88317   -71.391623    141148.75   -37766.601    2644.2021   -40410.803 
   13400    224.45875    85.197946    141002.96   -37804.551    2662.8942   -40467.445 
   13500    224.18281   -79.917589    141020.69   -37852.421    2659.6205   -40512.042 
   13600    223.17447   -92.368274    140820.07    -37850.38     2647.658   -40498.038 
   13700    222.01521   -76.252296    140553.53   -37814.872     2633.905   -40448.777 
   13800    224.12595   -63.170523    141122.85   -37802.253     2658.946   -40461.199 
   13900    223.88841    29.397867    141114.39   -37752.097    2656.1279   -40408.225 
   14000    229.34919   -72.305148    141004.59   -37742.431    2720.9126   -40463.343 
   14100    224.38932    26.898347    140753.45   -37736.639    2662.0705    -40398.71 
   14200    224.25716    207.96548    141161.34   -37793.189    2660.5026   -40453.691 
   14300     222.9311    309.93533     141795.2   -37787.628    2644.7708   -40432.399 
   14400    220.65849   -7.7528419     141154.5   -37829.913    2617.8094   -40447.722 
   14500    224.50304    60.484241    141334.62   -37782.478    2663.4197   -40445.898 
   14600    224.18639    139.46164    141173.05   -37788.129    2659.6631   -40447.792 
   14700    223.49849    93.254052     141409.5   -37829.723     2651.502   -40481.225 
   14800    224.46009   -160.29426    141335.04   -37870.352    2662.9101   -40533.263 
   14900    222.67569   -68.069762    141307.04    -37966.56    2641.7406   -40608.301 
   15000    218.23551   -17.136436    141223.94   -37983.287    2589.0641   -40572.351 
   15100    222.86532    33.015466    141148.88   -37991.296    2643.9903   -40635.286 
   15200    223.32483    180.49795    141051.87   -37928.235    2649.4419   -40577.677 
   15300    221.79651    -14.42041    140953.58   -37916.728    2631.3104   -40548.039 
   15400    225.85055    17.604686    141454.34    -37893.74     2679.406   -40573.146 
   15500    227.68654    126.74509    141047.49   -37864.271    2701.1875   -40565.459 
   15600    229.23413   -137.24175    140816.85    -37896.28    2719.5476   -40615.827 
   15700    223.38305   -148.13794    140956.54   -37921.911    2650.1325   -40572.043 
   15800    221.75199    44.305414    140701.13   -37899.639    2630.7822   -40530.421 
   15900     223.4869   -144.40702     140859.2   -37920.142    2651.3645   -40571.506 
   16000    221.78724   -36.424882    140375.71    -37917.03    2631.2004   -40548.231 
   16100    225.88174    139.28902    140904.37   -37809.647    2679.7761   -40489.423 
   16200    223.42294    73.931832    140801.48   -37830.351    2650.6057   -40480.957 
   16300    227.55929    183.98005    140896.11   -37896.096    2699.6779   -40595.774 
   16400     227.0701   -98.803091    140993.55   -37809.104    2693.8742   -40502.978 
   16500    224.88139   -7.2966947    141383.44   -37717.948    2667.9083   -40385.856 
   16600    225.38078   -54.889701    141341.77   -37793.903    2673.8328   -40467.736 
   16700     225.8707   -135.51871    141165.76   -37821.442     2679.645   -40501.087 
   16800     224.2328    74.515654    140487.56   -37830.033    2660.2136   -40490.247 
   16900    232.46142    169.88213    140718.66   -37722.727    2757.8349   -40480.562 
   17000    226.90046    36.528895    141236.98   -37807.709    2691.8617   -40499.571 
   17100    229.69985   -95.735198    141179.62   -37721.099    2725.0727   -40446.172 
   17200    233.68331    81.131393    141485.57   -37721.029     2772.331    -40493.36 
   17300    229.72232   -41.152594    141631.87   -37841.645    2725.3392   -40566.984 
   17400    221.66603    64.639811    141571.78   -37875.046    2629.7625   -40504.809 
   17500    230.96316    77.491594     141603.2    -37844.88    2740.0601    -40584.94 
   17600    223.67301   -7.4983718    141868.49   -37954.804    2653.5725   -40608.377 
   17700    225.02859    103.69397    141796.09   -37892.336    2669.6546    -40561.99 
   17800    227.78136   -129.33634    142164.28   -37851.843    2702.3124   -40554.156 
   17900    226.85879    9.2797591    142091.62   -37837.239    2691.3674   -40528.606 
   18000    226.82522    56.368422    141671.68   -37782.464    2690.9691   -40473.433 
   18100    221.76441    153.37401    141584.46   -37861.354    2630.9295   -40492.283 
   18200    223.37162    87.575906     141511.3   -37849.193    2649.9969   -40499.189 
   18300    227.33576    8.5973993     141467.5   -37737.255     2697.026   -40434.281 
   18400    225.13359    19.411986     141621.7   -37820.949    2670.9003   -40491.849 
   18500    225.84971   -51.739545    141367.49   -37793.155     2679.396   -40472.551 
   18600    228.08186    -114.8633    141489.83    -37817.63    2705.8774   -40523.508 
   18700    230.05658   -161.14024    141439.82   -37814.664    2729.3048   -40543.969 
   18800    223.07099    118.95927    140879.78   -37836.954    2646.4304   -40483.384 
   18900    225.55996    29.199961    140971.05   -37858.772    2675.9585   -40534.731 
   19000    231.89571    1.1316969     140830.4   -37833.438    2751.1235   -40584.562 
   19100    228.20409    157.53932    141307.49   -37837.429    2707.3275   -40544.756 
   19200    223.50421   -44.177112    141318.22   -37904.141    2651.5699   -40555.711 
   19300    223.66395    218.75928    141373.87   -37795.484     2653.465   -40448.949 
   19400    226.08652   -237.23967    141152.56   -37802.961    2682.2055   -40485.166 
   19500    225.85289    125.02214    140876.39   -37847.118    2679.4338   -40526.552 
   19600     226.5639   -8.1932987    141075.98   -37810.795     2687.869   -40498.664 
   19700    222.97999   -32.046012    141284.15   -37868.202    2645.3508   -40513.553 
   19800    225.56044    46.071359    141024.23   -37825.778    2675.9642   -40501.743 
   19900    229.33173    47.791299    140607.89   -37832.363    2720.7054   -40553.068 
   20000     223.3395   -52.115965    140630.67    -37857.85    2649.6158   -40507.466 
   20100    226.29965    51.914903    141080.47    -37760.73     2684.734   -40445.464 
   20200     225.7208    219.61873     140897.9   -37885.716    2677.8667   -40563.583 
   20300    221.50569    122.33993    141185.65   -37905.569    2627.8602   -40533.429 
   20400    224.55472   0.99576686    141284.65   -37870.352    2664.0328   -40534.384 
   20500    223.47961     112.1119    140895.89   -37829.019     2651.278   -40480.297 
   20600    225.09325    87.603433    140345.88   -37837.625    2670.4216   -40508.047 
   20700    224.40609    107.79695    140662.57   -37803.096    2662.2695   -40465.365 
   20800    223.01747   -7.5165207    140865.71   -37713.853    2645.7954   -40359.649 
   20900    221.07602   -27.100953    140443.78     -37775.1    2622.7628   -40397.863 
   21000    222.98854    55.263975    140167.68    -37833.12    2645.4522   -40478.572 
   21100    219.24836    265.55082     140717.1   -37879.061    2601.0801   -40480.141 
   21200    222.63703   -132.33027    140723.71   -37865.979    2641.2821   -40507.261 
   21300    219.94003    130.95362    140898.77   -37851.969    2609.2859   -40461.255 
   21400    221.94664    131.97847    140838.45   -37861.519    2633.0915   -40494.611 
   21500    225.40411    179.25035    140962.85   -37798.506    2674.1096   -40472.615 
   21600    224.68128   -31.834736    141303.99   -37773.878    2665.5342   -40439.413 
   21700    225.80095    77.547141    140870.47   -37775.927    2678.8176   -40454.745 
   21800    227.13133   -138.12649    141102.58   -37757.184    2694.6007   -40451.785 
   21900    226.95709   -22.420558    141334.11    -37789.34    2692.5336   -40481.873 
   22000    222.02037   -13.945787    141191.96   -37821.357    2633.9662   -40455.323 
   22100    222.75506   -49.565623    141400.54   -37768.795    2642.6822   -40411.477 
   22200    226.30706   -142.16677    140949.31   -37809.034    2684.8218   -40493.856 
   22300    229.24853     133.5157    140971.95    -37789.34    2719.7184   -40509.059 
   22400    224.90701    40.178346    141121.02   -37775.794    2668.2122   -40444.006 
   22500    223.06527   -103.73756    141244.15   -37766.161    2646.3625   -40412.523 
   22600    230.73984   -76.902905    141272.43   -37663.882    2737.4107   -40401.293 
   22700    227.39899   -23.835039    141574.87   -37751.289    2697.7761   -40449.065 
   22800    224.57586    188.70712    141594.86   -37784.597    2664.2835   -40448.881 
   22900      227.558    7.6344899    141358.14   -37787.944    2699.6626   -40487.607 
   23000    227.11781    12.490435    141296.21   -37812.956    2694.4403   -40507.396 
   23100    223.67413    14.889662    141302.56   -37871.263    2653.5858   -40524.848 
   23200    227.01724   -93.743301    141364.75   -37870.693    2693.2471    -40563.94 
   23300    223.53035      56.8563    141193.73   -37912.126    2651.8801   -40564.006 
   23400    220.52115   0.48027994    141190.77   -37900.442      2616.18   -40516.622 
   23500    225.55477     204.7464    141218.43   -37842.545     2675.897   -40518.442 
   23600    226.31546   -32.464988    140877.21   -37797.266    2684.9216   -40482.188 
   23700    224.04488   -95.149479    140864.72   -37854.592    2657.9842   -40512.576 
   23800    218.99605    167.17985     140721.9   -37849.128    2598.0868   -40447.215 
   23900    222.22494   -7.1298334    141022.48   -37814.427    2636.3931    -40450.82 
   24000    224.28799   -45.836946    140668.19   -37759.456    2660.8684   -40420.324 
   24100    224.59272   -18.354331    140828.25   -37749.387    2664.4836    -40413.87 
   24200    218.30381    63.285257    140323.36   -37864.625    2589.8744   -40454.499 
   24300    223.04669    68.358228    140456.59   -37813.857    2646.1421   -40459.999 
   24400    221.68189   -77.488966    140173.99   -37783.095    2629.9506   -40413.046 
   24500    221.45735     10.72178    140040.34   -37859.185    2627.2868   -40486.472 
   24600    227.19479    198.56577    140433.81   -37831.462    2695.3536   -40526.816 
   24700    223.20973     16.87413    140880.57   -37803.243    2648.0763   -40451.319 
   24800    224.96476   -258.10886    140542.05   -37843.624    2668.8973   -40512.521 
   24900    223.95741    114.81743    140724.41   -37770.698    2656.9465   -40427.645 
   25000    221.87029    41.007795    140975.19   -37745.936    2632.1857   -40378.122 
   25100    229.46301    31.659085    141026.44    -37739.91    2722.2629   -40462.173 
   25200    221.23458   -37.927903    140720.13   -37829.414    2624.6438   -40454.058 
   25300     224.7471   -178.28686    140433.84   -37802.383    2666.3151   -40468.698 
   25400    226.61395    183.21171    140518.05   -37790.137    2688.4627     -40478.6 
   25500    227.82959    22.953131    140445.37   -37783.977    2702.8846   -40486.861 
   25600    225.52195   -50.733022    140818.85    -37798.46    2675.5076   -40473.968 
   25700    225.92182    101.00475     140740.5   -37819.753    2680.2515   -40500.005 
   25800    224.16615     43.71148    140764.47   -37840.947    2659.4229    -40500.37 
   25900    228.24073    183.77419    140988.61   -37818.535    2707.7622   -40526.297 
   26000    226.18146    49.536871    140938.18   -37767.406    2683.3318   -40450.738 
   26100    227.43093    80.328629    140793.65   -37853.127     2698.155   -40551.282 
   26200    225.29589    28.327458    140892.97   -37838.284    2672.8257   -40511.109 
   26300    226.00092    102.06217    140673.72   -37766.765    2681.1899   -40447.955 
   26400    226.36107     192.5537    140240.27   -37737.448    2685.4626    -40422.91 
   26500    222.71348    55.806764    140295.23   -37784.136     2642.189   -40426.325 
   26600    222.65482    56.659746    140325.04   -37829.669    2641.4931   -40471.162 
   26700    221.39076    73.209576     140197.3   -37845.428    2626.4968   -40471.925 
   26800    222.62958   -129.14103     140278.6   -37771.775    2641.1937   -40412.969 
   26900    222.55512   -84.326417     140344.4   -37735.891    2640.3102   -40376.202 
   27000    220.15693    80.418559    140196.92   -37849.571     2611.859    -40461.43 
   27100    226.45201    10.486083    140502.09   -37883.917    2686.5416   -40570.458 
   27200    227.72325   -164.34948    140394.31   -37874.906     2701.623   -40576.529 
   27300    224.32236   -53.332133    140461.07   -37885.342    2661.2761   -40546.618 
   27400      224.629   -150.50528    140447.25   -37842.221     2664.914   -40507.135 
   27500    227.14618   -87.784318    140129.31   -37774.775    2694.7769   -40469.552 
   27600    222.66861   -214.75328    140304.97   -37785.186    2641.6566   -40426.842 
   27700    227.76069    73.956052    140452.76   -37833.548    2702.0672   -40535.615 
   27800     225.5044    14.681223    140999.99   -37710.734    2675.2995   -40386.034 
   27900     229.1598   -125.24363    140654.63   -37751.995    2718.6657   -40470.661 
   28000    222.91688    69.363131    140891.18   -37892.943     2644.602   -40537.545 
   28100    227.40654    52.689472    141199.44   -37776.696    2697.8657   -40474.562 
   28200    222.39322   -127.93252    140551.39   -37789.883    2638.3895   -40428.272 
   28300    226.23236   -11.517505    140294.49   -37794.537    2683.9357   -40478.473 
   28400     228.6003   -51.375686    140431.62   -37797.956     2712.028   -40509.983 
   28500    221.60697    69.563528    140651.17   -37895.646    2629.0617   -40524.708 
   28600    223.46833   -85.909813    140735.95    -37832.49    2651.1443   -40483.635 
   28700    227.58055   -72.266605    141037.03   -37877.796    2699.9301   -40577.726 
   28800    228.22776    175.69781    141022.86    -37816.11    2707.6083   -40523.718 
   28900    228.90016    -168.5662    140675.25   -37796.267    2715.5854   -40511.852 
   29000    224.88368    5.1786928    140704.31   -37824.765    2667.9354     -40492.7 
   29100     227.2367    21.003472    140508.77   -37776.365    2695.8508   -40472.215 
   29200    228.13665    96.444925    140520.21   -37682.174    2706.5274   -40388.701 
   29300    225.88872    11.535554    140814.27   -37774.281    2679.8588    -40454.14 
   29400    218.77908    5.7309054    140698.59   -37851.714    2595.5127   -40447.226 
   29500      220.687    -28.73804    140655.47    -37878.85    2618.1476   -40496.998 
   29600    224.13313    78.739879    140496.35   -37864.649    2659.0311    -40523.68 
   29700     221.7019    38.500273    140548.04   -37828.639     2630.188   -40458.827 
   29800    226.07038    130.31256    140547.97   -37850.539     2682.014   -40532.553 
   29900    227.94473   -142.50037    140372.62   -37828.812    2704.2505   -40533.063 
   30000    225.23081    27.860385    140679.71   -37802.168    2672.0536   -40474.221 
   30100    229.01274    64.993127    140399.36    -37817.64     2716.921   -40534.561 
   30200    220.84277    113.33327    140742.66   -37827.124    2619.9956    -40447.12 
   30300     224.2808   -106.24749    140985.52   -37867.209    2660.7831   -40527.992 
   30400    227.50915    120.81005    140562.38   -37796.884     2699.083   -40495.967 
   30500    225.95268    117.04875       141043   -37803.501    2680.6176   -40484.119 
   30600    227.34941   -120.85337    140721.39   -37769.954     2697.188   -40467.142 
   30700    229.53724    73.052112     140469.5   -37769.318    2723.1436   -40492.461 
   30800    226.88931   -136.81501    140819.34   -37736.407    2691.7295   -40428.137 
   30900    221.17929   -24.888627    140077.69   -37796.186    2623.9879   -40420.174 
   31000    223.80568    79.786811    140327.12   -37795.212    2655.1465   -40450.358 
   31100    219.45051   -196.40819    140349.44   -37826.507    2603.4784   -40429.985 
   31200     218.4213   -38.181741    140404.74   -37807.276    2591.2682   -40398.544 
   31300    219.30944    158.38545    140345.56   -37868.239    2601.8047   -40470.044 
   31400    228.44788   -91.650774    140184.46   -37664.407    2710.2198   -40374.627 
   31500    224.19248    108.30568    140017.98   -37825.051    2659.7352   -40484.787 
   31600    227.82639    65.011805    140121.36   -37778.258    2702.8467   -40481.105 
   31700    219.65173   -36.553402    140436.97   -37774.948    2605.8656   -40380.814 
   31800    229.06633    122.83098    140442.36   -37679.417    2717.5568   -40396.974 
   31900    226.43045   -47.507258    140180.96   -37676.285    2686.2857   -40362.571 
   32000    221.48611   -118.08837    140383.51     -37665.4    2627.6279   -40293.028 
   32100    223.59959    17.661373    140258.22   -37615.083    2652.7014   -40267.785 
   32200    225.98265    210.08589    140313.47    -37622.31    2680.9732   -40303.283 
   32300    231.26097    -298.0034    140482.41   -37600.486    2743.5932   -40344.079 
   32400    226.02793    252.24119    140304.98   -37622.709    2681.5104   -40304.219 
   32500    222.31388   -96.626691     140421.6    -37689.89    2637.4483   -40327.339 
   32600    227.41292   -50.462294    140320.65   -37633.226    2697.9413   -40331.168 
   32700    224.50129    63.621173    140484.59   -37705.757    2663.3989   -40369.156 
   32800    222.90151    7.4123093     140301.7    -37744.73    2644.4196    -40389.15 
   32900    221.63138   -45.577818     140357.5   -37792.421    2629.3513   -40421.773 
   33000    221.34365    77.233936    140509.88   -37817.641    2625.9379   -40443.579 
   33100    224.60544    71.515396    140928.12   -37765.494    2664.6344   -40430.129 
   33200    223.86216    15.041066    141182.22   -37737.757    2655.8165   -40393.573 
   33300    229.68633    52.225313    140881.52   -37714.098    2724.9123    -40439.01 
   33400    221.67388   -79.801717    140645.69   -37841.542    2629.8556   -40471.397 
   33500    229.61612    14.339743    140900.04   -37814.963    2724.0793   -40539.042 
   33600    224.94607    32.580094    140756.18   -37774.388    2668.6756   -40443.064 
   33700    223.72726   -187.15652    140823.87   -37763.776    2654.2161   -40417.993 
   33800    225.97724    309.03127    140503.62   -37761.658    2680.9091   -40442.567 
   33900    220.96322   -221.30187    140653.66   -37786.534    2621.4246   -40407.959 
   34000    223.74819     82.74282    140617.39   -37770.346    2654.4644    -40424.81 
   34100    223.63567   -82.877599    140472.95   -37740.939    2653.1295   -40394.068 
   34200    227.06717    93.545821    140317.73   -37708.266    2693.8395   -40402.105 
   34300    223.69579   -155.65222     140739.8   -37793.278    2653.8427    -40447.12 
   34400    225.93594     217.3052     140618.1    -37647.39     2680.419   -40327.809 
   34500    228.02576    5.8181749    140943.19    -37686.56    2705.2119   -40391.772 
   34600    223.52658   -5.7203883    140964.27   -37639.983    2651.8353   -40291.818 
   34700    226.91443   -127.42631    140581.71   -37753.811    2692.0275   -40445.838 
   34800    224.68368    42.559445    140725.62   -37779.232    2665.5627   -40444.795 
   34900    224.89798    -93.01516    140558.22   -37817.805    2668.1051   -40485.911 
   35000    221.87932    260.16362    140963.82   -37892.192    2632.2929   -40524.485 
   35100    224.23777   -128.06706    141249.12   -37852.489    2660.2726   -40512.762 
   35200    223.04384    -116.2308     141107.2   -37884.346    2646.1083   -40530.454 
   35300    222.99017   -40.858347    141049.83   -37843.915    2645.4716   -40489.387 
   35400    225.46455    97.190229    141433.79   -37823.043    2674.8267    -40497.87 
   35500    223.81507    50.572146    141078.71   -37797.691    2655.2579   -40452.949 
   35600    223.62867    238.34161     141331.9   -37804.173    2653.0464   -40457.219 
   35700    227.08252    79.560942    141146.78   -37806.298    2694.0216   -40500.319 
   35800    224.61108   -193.74322    140891.85   -37818.073    2664.7014   -40482.775 
   35900    224.78891    73.567199    140870.42   -37839.302    2666.8112   -40506.113 
   36000    234.55743   -23.439688    140743.09   -37670.995    2782.7012   -40453.696 
   36100    227.30433   -52.985106    140811.75   -37715.975    2696.6532   -40412.628 
   36200    224.80233    222.30585    140802.22   -37791.342    2666.9704   -40458.312 
   36300    223.86462     50.52356    141268.89   -37837.917    2655.8456   -40493.763 
   36400    225.75312   -44.755298    141139.53   -37834.447    2678.2501   -40512.697 
   36500    226.92904   -124.51816    140726.87   -37733.576    2692.2008   -40425.776 
   36600     222.4745   -15.883646    140476.28   -37862.109    2639.3538   -40501.463 
   36700    229.32799   -160.71563    141257.02   -37849.709    2720.6611    -40570.37 
   36800     224.2097   -148.38078    140804.87    -37831.71    2659.9396    -40491.65 
   36900     225.4375    2.5502398    141021.83   -37837.932    2674.5057   -40512.438 
   37000    224.15681   -159.54688    140699.59    -37778.54    2659.3121   -40437.853 
   37100    226.25296   -165.93069    140609.87   -37714.418      2684.18   -40398.598 
   37200    219.22054    60.460626    140594.25   -37797.497    2600.7501   -40398.247 
   37300    222.37966   -43.476736    140525.74   -37800.233    2638.2287   -40438.461 
   37400    227.45682   -119.20871    140392.56   -37787.579    2698.4622   -40486.041 
   37500    222.53523   -201.28931    140459.95   -37802.598    2640.0743   -40442.672 
   37600    226.63605    95.557789    140210.73   -37783.953    2688.7249   -40472.678 
   37700    225.28302    51.059362    140783.88   -37781.952     2672.673   -40454.625 
   37800    220.90832    32.144776    140812.43   -37902.016    2620.7732   -40522.789 
   37900    222.26433   -52.120974    140378.49   -37858.383    2636.8605   -40495.244 
   38000    222.76837    226.96595    140648.74   -37857.802    2642.8402   -40500.642 
   38100    228.46112     123.0963    140699.36   -37863.458    2710.3768   -40573.835 
   38200    224.59656   -61.673967     140461.7   -37811.192    2664.5292   -40475.721 
   38300    227.44144    77.729705    140794.76   -37767.016    2698.2798   -40465.296 
   38400    225.06988   -44.434278    140871.56   -37837.981    2670.1444   -40508.125 
   38500     224.8091    53.913782    141119.73   -37847.277    2667.0506   -40514.328 
   38600    227.50624    157.67763    141153.75   -37795.306    2699.0484   -40494.354 
   38700    221.28369    148.41416    141184.65   -37810.956    2625.2265   -40436.183 
   38800    227.68337    89.802566    141362.31   -37784.402    2701.1499   -40485.552 
   38900    225.24669   -87.540716    141283.83   -37777.059     2672.242   -40449.301 
   39000    220.54964   -31.777284       141156     -37833.5     2616.518   -40450.018 
   39100    223.11011    99.562429    140979.09   -37848.571    2646.8944   -40495.466 
   39200    227.47661    182.80256    141046.29    -37828.84    2698.6969   -40527.537 
   39300    227.34456   -95.828515    141055.63   -37824.732    2697.1304   -40521.862 
   39400    225.63567   -132.80756    140896.83   -37840.455    2676.8568   -40517.311 
   39500     223.2616   -75.740086    140144.61   -37855.688    2648.6917    -40504.38 
   39600    226.24611    135.04991    140809.22   -37813.926    2684.0988   -40498.025 
   39700    227.32898    168.14329    140604.56   -37756.249    2696.9456   -40453.194 
   39800    226.70929    17.883556    140699.88   -37824.205    2689.5938   -40513.798 
   39900    220.24622   -63.033682    140862.99   -37875.559    2612.9184   -40488.477 
   40000    223.65296    3.2925187     140540.1   -37779.013    2653.3347   -40432.347 
   40100    225.50165   -101.64529    140504.98   -37808.919    2675.2668   -40484.186 
   40200    230.54322    125.60836    140509.96   -37795.329    2735.0781   -40530.407 
   40300    220.56053    32.393568    140710.75   -37842.205    2616.6472   -40458.852 
   40400    230.05386     78.85158    140321.96   -37706.186    2729.2724   -40435.458 
   40500    229.05141   -213.03991    140325.77   -37638.912    2717.3798   -40356.292 
   40600    221.43979   -218.75849    140031.24   -37740.897    2627.0784   -40367.975 
   40700    225.57315    74.558972    140177.28   -37759.886     2676.115   -40436.001 
   40800    219.93422   -71.198942    139899.26   -37784.931    2609.2169   -40394.148 
   40900    222.00584    171.69523    139376.18   -37826.366    2633.7938    -40460.16 
   41000    228.28442   -122.07867    139814.74    -37734.12    2708.2805   -40442.401 
   41100    221.45013    200.07004    140247.85   -37673.763    2627.2011   -40300.964 
   41200    230.53136    86.284883    140477.93   -37651.693    2734.9374   -40386.631 
   41300    223.63746    15.266401    140722.07   -37819.972    2653.1508   -40473.123 
   41400    226.44033    55.874706    140687.29   -37819.961    2686.4029   -40506.364 
   41500    226.29846    46.464753    140831.17    -37826.12    2684.7198   -40510.839 
   41600    224.66811      58.4598     140943.7   -37763.748     2665.378   -40429.126 
   41700    227.57361   -42.932261    141168.51   -37724.308    2699.8478   -40424.156 
   41800    224.50932   -37.127001    141405.28   -37768.445    2663.4941   -40431.939 
   41900    226.36958    -240.7365    141143.46   -37723.074    2685.5636   -40408.637 
   42000    227.93926   -132.53521    141163.14   -37735.402    2704.1856   -40439.587 
   42100    223.12483   -117.73567    141136.33   -37714.528    2647.0691   -40361.597 
   42200    226.90776     81.33312    140795.65   -37692.829    2691.9484   -40384.778 
   42300    228.98842   -64.902681    140901.09   -37629.785    2716.6325   -40346.417 
   42400    229.39096   -38.043395    140775.18    -37704.43    2721.4081   -40425.838 
   42500    226.87058    190.56456    140604.39   -37721.364    2691.5072   -40412.871 
   42600    228.14711   -130.76842    140952.94   -37674.898    2706.6515   -40381.549 
   42700    224.48217   -51.012652    140702.02   -37738.445    2663.1721   -40401.617 
   42800    228.71168   -57.008611    140867.25   -37708.573    2713.3493   -40421.922 
   42900    223.65905    29.700215    141092.89   -37761.171    2653.4069   -40414.578 
   43000    224.96528   -70.362882    140970.96   -37844.553    2668.9034   -40513.456 
   43100    226.73354   -10.164058    141024.02   -37815.676    2689.8814   -40505.558 
   43200    225.77926    38.964614    141138.35   -37800.015    2678.5602   -40478.575 
   43300    225.14039   -24.714454    141263.07    -37843.46    2670.9809   -40514.441 
   43400    228.29524    5.8466079    141497.15   -37824.045    2708.4089   -40532.454 
   43500    223.83546     33.23159    141699.24   -37794.152    2655.4997   -40449.652 
   43600    227.86754   -124.07544     141305.3   -37715.004    2703.3348   -40418.339 
   43700    225.20886    96.336683    141195.91   -37726.997    2671.7932    -40398.79 
   43800    229.12914   -35.650721    140946.07   -37654.925     2718.302   -40373.227 
   43900    226.84789   -54.481147    140691.09   -37779.999     2691.238   -40471.237 
   44000    222.76875    152.78863    141062.32   -37743.023    2642.8447   -40385.868 
   44100    223.15384    96.276869    141539.44   -37779.478    2647.4133   -40426.892 
   44200    220.44179   -46.827107    141278.31   -37809.496    2615.2385   -40424.734 
   44300    224.52297   -76.302941    141392.73   -37816.156    2663.6561   -40479.813 
   44400    225.09473   -13.541075    141313.99   -37759.381    2670.4392    -40429.82 
   44500     223.4836    194.86575    141521.19   -37835.858    2651.3255   -40487.183 
   44600    219.73769    68.934704     141589.8   -37890.534    2606.8853    -40497.42 
   44700    219.55678    3.8945875    141605.23   -37865.833    2604.7391   -40470.572 
   44800    229.35272   -90.071699    141373.29    -37782.97    2720.9545   -40503.925 
   44900     225.4707     40.73313    141309.35    -37760.19    2674.8997   -40435.089 
   45000    226.71348    128.43083    140946.99   -37750.242    2689.6435   -40439.885 
   45100     227.6143    39.146437    141329.14   -37690.206    2700.3305   -40390.536 
   45200    225.67254   -6.1653199    141138.55   -37719.914    2677.2942   -40397.208 
   45300    224.66088    105.30187    140916.79   -37783.041    2665.2922   -40448.333 
   45400    222.99036    59.475845    140849.05   -37814.253    2645.4737   -40459.727 
   45500    226.23414   -72.152701    140762.09   -37833.531    2683.9567   -40517.487 
   45600    223.54868    189.18817    141063.86   -37840.147    2652.0974   -40492.245 
   45700    225.52683   -185.22927    140745.49   -37809.975    2675.5655   -40485.541 
   45800    226.99722   -142.06273     140847.7   -37785.069    2693.0097   -40478.079 
   45900    232.31047    24.382227    140870.46   -37676.234    2756.0441   -40432.279 
   46000    232.55666    73.046904    140653.87   -37612.672    2758.9648   -40371.637 
   46100    226.78241   -152.18242    141041.53   -37602.206    2690.4612   -40292.668 
   46200    229.11531    91.593525    140885.51   -37663.246    2718.1379   -40381.384 
   46300    224.55559    80.319651    140951.38   -37649.275    2664.0431   -40313.318 
   46400    224.51991    124.82733    141108.24   -37709.679    2663.6197   -40373.299 
   46500    222.27927    8.0927059    141119.33   -37762.277    2637.0377   -40399.315 
   46600     229.6815    74.589403    141284.28   -37687.809    2724.8549   -40412.664 
   46700    227.14448    206.33414       141196    -37719.57    2694.7567   -40414.327 
   46800    223.69859      77.5221    140993.72   -37825.362     2653.876   -40479.238 
   46900    224.46188   -54.727302    140994.05    -37728.69    2662.9313   -40391.621 
   47000     225.2965   -165.59999       140616   -37759.247    2672.8329    -40432.08 
   47100    226.80021   -48.873221     140371.6   -37686.039    2690.6724   -40376.712 
   47200    222.41521   -123.05062    140720.64   -37840.483    2638.6504   -40479.133 
   47300    223.26138   -122.97353    140855.12   -37778.619    2648.6891   -40427.309 
   47400    223.77984    5.9904001    140834.61   -37758.674    2654.8399   -40413.514 
   47500    225.89673    5.2820888    140833.64   -37705.055    2679.9538   -40385.009 
   47600    232.60975   -140.49607    140777.41   -37677.423    2759.5947   -40437.018 
   47700    228.36859    81.575831    141008.91   -37631.828    2709.2791   -40341.107 
   47800    223.84027   -96.748378    140614.86   -37748.115    2655.5568   -40403.672 
   47900    223.75681   -4.1591569    140746.12   -37765.911    2654.5666   -40420.477 
   48000    226.03816   -110.87348    140473.36   -37789.144    2681.6317   -40470.776 
   48100    223.84722    189.32715    140858.96   -37746.158    2655.6392   -40401.797 
   48200    225.57625     -79.3988    140853.36   -37830.968    2676.1518    -40507.12 
   48300    220.74487     57.36734    140567.22   -37823.144    2618.8341   -40441.978 
   48400    224.07901   -69.689384    140612.49   -37758.752    2658.3891   -40417.142 
   48500    227.71567   -244.34552    140944.92   -37770.936    2701.5331    -40472.47 
   48600    226.40471   -11.605946    141243.15   -37795.261    2685.9804   -40481.241 
   48700     223.6948   -149.51063    140828.55   -37798.822    2653.8311   -40452.653 
   48800    223.46515   -199.43464    140730.68   -37715.417    2651.1065   -40366.524 
   48900    230.09699    208.89148    140880.32   -37769.593    2729.7842   -40499.377 
   49000    222.22327    52.618353    140678.57     -37895.1    2636.3733   -40531.474 
   49100    225.68486   -32.516698     141304.7   -37833.019    2677.4403   -40510.459 
   49200    225.59666   -6.5667718    141448.35   -37897.998    2676.3939   -40574.392 
   49300    225.37284   -116.36555     141287.2   -37835.261    2673.7386   -40508.999 
   49400    225.20074    31.972772    141174.84   -37852.216    2671.6969   -40523.913 
   49500      223.167    -37.47655    140825.29   -37858.235    2647.5694   -40505.805 
   49600    224.16846   -81.012456    140691.81   -37781.496    2659.4503   -40440.947 
   49700    226.57659   -24.075012    140538.27   -37775.508    2688.0194   -40463.527 
   49800    227.27164   -84.553646    140608.17   -37801.728    2696.2653   -40497.993 
   49900    221.75675    -59.98843    140813.88   -37768.202    2630.8387   -40399.041 
   50000    226.76257   -93.764534    140728.64   -37754.135    2690.2258    -40444.36 
   50100    225.61575    195.25931    140843.66   -37781.602    2676.6205   -40458.222 
   50200    221.07317   -41.516146    140856.52   -37886.893    2622.7289   -40509.622 
   50300     227.8224   -1.7547553    140947.17   -37881.612    2702.7992   -40584.411 
   50400    224.32136   -97.916657    141142.41   -37809.049    2661.2642   -40470.314 
   50500    222.07194    25.719135    141163.88   -37926.256     2634.578   -40560.834 
   50600    223.64143    250.65215    141159.16   -37872.466    2653.1978   -40525.664 
   50668    221.51804   -127.49685    141178.49   -37850.605    2628.0067   -40478.612 
Loop time of 57.3351 on 6 procs for 50000 steps with 3981 atoms

Performance: 753.466 ns/day, 0.032 hours/ns, 872.067 timesteps/s
99.5% CPU use with 6 MPI tasks x no OpenMP threads

MPI task timing breakdown:
Section |  min time  |  avg time  |  max time  |%varavg| %total
---------------------------------------------------------------
Pair    | 26.451     | 38.123     | 44.799     | 127.8 | 66.49
Neigh   | 3.5962     | 4.9551     | 5.6537     |  42.4 |  8.64
Comm    | 5.1753     | 12.527     | 25.518     | 248.6 | 21.85
Output  | 0.090209   | 0.09107    | 0.093767   |   0.4 |  0.16
Modify  | 1.286      | 1.3134     | 1.3304     |   1.3 |  2.29
Other   |            | 0.3257     |            |       |  0.57

Nlocal:        663.500 ave         763 max         474 min
Histogram: 2 0 0 0 0 0 0 0 0 4
Nghost:        1212.00 ave        1297 max        1051 min
Histogram: 2 0 0 0 0 0 0 0 0 4
Neighs:        0.00000 ave           0 max           0 min
Histogram: 6 0 0 0 0 0 0 0 0 0
FullNghs:      18440.3 ave       21593 max       12752 min
Histogram: 2 0 0 0 0 0 0 0 0 4

Total # of neighbors = 110642
Ave neighs/atom = 27.792514
Neighbor list builds = 5611
Dangerous builds = 0
write_data data.${NAME}
write_data data.15A_cavity_eq_fix10
System init for write_data ...

Total wall time: 0:00:58
