

################################################
#######         Run Simulation         #########
################################################

read_data		data.15A_cavity_eq_fix10
Reading data file ...
  orthogonal box = (0.19542624 0.19542624 0.081799841) to (69.804574 69.804574 29.218200)
  2 by 3 by 1 MPI processor grid
  reading atoms ...
  3981 atoms
  reading velocities ...
  3981 velocities
  read_data CPU = 0.005 seconds
fix 		       5 all indent 10.0 cylinder z 35 35 15 side out units box

## Real units, atomic atom style (no bonded interactions)
#
timestep            2.0

# Define potential
#
pair_style          sw
pair_coeff          * * ML_mW.sw mW
Reading sw potential file ML_mW.sw with DATE: 2019-02-27

# Set production fixes - Nose/Hoover
#
fix                 2 all nvt temp ${TEMP} ${TEMP} 1000.0
fix                 2 all nvt temp 225 ${TEMP} 1000.0
fix                 2 all nvt temp 225 225 1000.0

# divide "droplet" into core and surface
region		core_reg cylinder z 35 35 25 INF INF units box side out
region		surface_reg cylinder z 35 35 25 INF INF units box side in
group		core dynamic all region core_reg
dynamic group core defined
group		surface dynamic all region surface_reg
dynamic group surface defined

# compute pressure core
compute        peratom_core core stress/atom NULL
compute        p_core core reduce sum c_peratom_core[1] c_peratom_core[2] c_peratom_core[3]
variable       press_core equal -(c_p_core[1]+c_p_core[2]+c_p_core[3])/(3*86039.58)


# compute pressure surface
compute        peratom_surf surface stress/atom NULL
compute        p_surf surface reduce sum c_peratom_surf[1] c_peratom_surf[2] c_peratom_surf[3]
variable       press_surf equal -(c_p_surf[1]+c_p_surf[2]+c_p_surf[3])/(3*36819.46)

# compute order parameter
compute	order all orientorder/atom nnn NULL cutoff 3.5
compute        peratom all stress/atom NULL
compute        p all reduce sum c_peratom[1] c_peratom[2] c_peratom[3]
variable       press equal -(c_p[1]+c_p[2]+c_p[3])/(3*122859.05)

# Run 5ns simulation
thermo_style        custom step temp press vol etotal ke pe v_press v_press_core v_press_surf
thermo              200
dump		        1 all custom 400 prod.${NAME}.dump id type x y z vx vy vz c_order[*] c_peratom[*]
dump		        1 all custom 400 prod.15A_cavity_run10.dump id type x y z vx vy vz c_order[*] c_peratom[*]
run                 2500000
Neighbor list info ...
  update every 1 steps, delay 10 steps, check yes
  max neighbors/atom: 2000, page size: 100000
  master list distance cutoff = 6.0032907
  ghost atom cutoff = 6.0032907
  binsize = 3.0016454, bins = 24 24 10
  2 neighbor lists, perpetual/occasional/extra = 1 1 0
  (1) pair sw, perpetual
      attributes: full, newton on
      pair build: full/bin/atomonly
      stencil: full/bin/3d
      bin: standard
  (2) compute orientorder/atom, occasional, copy from (1)
      attributes: full, newton on
      pair build: copy
      stencil: none
      bin: none
Per MPI rank memory allocation (min/avg/max) = 6.967 | 6.975 | 6.979 Mbytes
Step Temp Press Volume TotEng KinEng PotEng v_press v_press_core v_press_surf 
       0    221.51804   -117.25774    141178.49   -37850.734    2628.0067    -40478.74   -134.74197   -95.698336   -225.97903 
     200    229.53503    -123.2467    141178.49   -37855.279    2723.1172   -40578.397   -141.62394   -222.07555    46.375058 
     400    228.62294   -182.41258    141178.49   -37866.662    2712.2965   -40578.959   -209.61201   -319.99298    48.325786 
     600    228.18313    -267.5578    141178.49   -37883.779    2707.0788   -40590.858   -307.45317    -330.3633   -253.91697 
     800    225.41571   -66.488886    141178.49   -37910.198    2674.2472   -40584.445   -76.403003   -54.182993   -128.32666 
    1000     223.0371    -119.1366    141178.49   -37947.662    2646.0282    -40593.69   -136.90099   -146.96914   -113.37381 
    1200    223.57422    158.12193    141178.49   -37985.606    2652.4005   -40638.007    181.69939    358.15256    -230.6357 
    1400    222.13748    240.14085    141178.49   -38005.067    2635.3556   -40640.423    275.94811    343.50496    118.08157 
    1600    223.79335    109.45378    141178.49   -38007.635    2655.0002   -40662.635    125.77436    383.69018   -476.92234 
    1800    223.74524   -78.830237    141178.49   -38003.481    2654.4294    -40657.91   -90.584566    55.648352   -432.30114 
    2000    226.25721   -69.133129    141178.49   -37999.437    2684.2305   -40683.667   -79.441527   -87.547846   -60.498733 
    2200    225.42051    126.04371    141178.49   -37991.142    2674.3042   -40665.446    144.83801    108.06897    230.75982 
    2400    226.49525    174.57277    141178.49   -37987.251    2687.0544   -40674.306    200.60321     215.1479    166.61527 
    2600    223.41687    353.85168    141178.49   -37973.946    2650.5337    -40624.48    406.61429    578.58901    4.7445051 
    2800    224.98337    196.04327    141178.49   -37956.872    2669.1181    -40625.99    225.27516    408.83611   -203.66934 
    3000    222.39114    102.92102    141178.49   -37928.596    2638.3648   -40566.961    118.26751    372.61896   -476.09999 
    3200    224.06263   -150.88451    141178.49   -37888.275    2658.1947    -40546.47   -173.38281    15.736575   -615.31634 
    3400    229.08882    69.422482    141178.49   -37847.904    2717.8236   -40565.728    79.774026    186.27155   -169.08899 
    3600    226.18369    158.15198    141178.49   -37830.899    2683.3582   -40514.257    181.73392    217.95695     97.08813 
    3800    223.85823   -188.50892    141178.49   -37828.814    2655.7699   -40484.583   -216.61737   -121.67285   -438.48342 
    4000     232.8313   -46.353417    141178.49   -37835.169     2762.223   -40597.392   -53.265147    37.547099   -265.47489 
    4200    227.04525    97.839624    141178.49   -37849.806    2693.5795   -40543.386    112.42843    567.10697   -950.06269 
    4400    223.57913     121.5703    141178.49   -37870.771    2652.4587   -40523.229    139.69757    227.34534   -65.117377 
    4600    221.99516    14.854516    141178.49   -37893.707    2633.6672   -40527.374    17.069464   -114.88057    325.40983 
    4800    225.91692   -259.74217    141178.49   -37909.712    2680.1934   -40589.906   -298.47217   -230.65494   -456.94731 
    5000    220.29894    184.68082    141178.49   -37914.411    2613.5438   -40527.955    212.21846    467.00464   -383.16488 
    5200    225.04876    287.93099    141178.49   -37913.064    2669.8939   -40582.958    330.86421    533.43629   -142.50542 
    5400    222.48466   -291.18557    141178.49   -37904.871    2639.4743   -40544.345   -334.60407   -347.21359    -305.1383 
    5600     226.0189    -164.6205    141178.49   -37894.265    2681.4033   -40575.668   -189.16697   -472.69331    473.37632 
    5800    226.06278   -133.53082    141178.49   -37867.996    2681.9238   -40549.919   -153.44152     38.14847   -601.14835 
    6000    229.44721   -24.906438    141178.49   -37821.829    2722.0754   -40543.905   -28.620222    36.352849   -180.44907 
    6200    226.55344    187.43991    141178.49   -37784.943    2687.7449   -40472.688    215.38896    422.53375   -268.66617 
    6400    231.78783    138.17931    141178.49   -37769.794    2749.8437   -40519.638    158.78314    25.193715    470.95447 
    6600    230.90126   -294.21652    141178.49   -37776.084    2739.3257    -40515.41   -338.08697   -313.40599   -395.76147 
    6800    233.01215   -199.44214    141178.49   -37797.791    2764.3686   -40562.159   -229.18084   -274.65982   -122.90577 
    7000    231.29181   -112.32961    141178.49   -37828.435     2743.959   -40572.394     -129.079   -40.416034   -336.26635 
    7200    223.10166    241.49644    141178.49   -37858.761    2646.7942   -40505.555    277.50583    378.29687    41.977756 
    7400    223.25694 -0.045253388    141178.49   -37886.629    2648.6364   -40535.266 -0.052001093      33.6145   -78.723757 
    7600    225.98863   -181.02443    141178.49   -37904.877    2681.0441   -40585.921   -208.01687   -203.64499   -218.23313 
    7800     232.1964    54.224964    141178.49   -37916.683    2754.6908   -40671.374    62.310415    62.822047    61.114853 
    8000     226.0756    -278.6793    141178.49   -37931.212    2682.0759   -40613.288     -320.233   -374.37298   -193.71899 
    8200    223.32013   -278.32395    141178.49   -37945.701     2649.386   -40595.087   -319.82467   -185.78826   -633.04056 
    8400    225.12838   -309.27998    141178.49   -37956.479    2670.8384   -40627.317   -355.39653   -278.22341    -535.7345 
    8600    223.71623   -190.82674    141178.49    -37963.33    2654.0853   -40617.415    -219.2808   -225.19322   -205.46472 
    8800    229.73837   -105.69311    141178.49   -37975.838    2725.5297   -40701.368   -121.45294    142.97713    -739.3722 
    9000    225.20588   -86.189584    141178.49   -38001.693    2671.7578   -40673.451   -99.041261    103.18065    -571.5927 
    9200    220.18977   -29.301001    141178.49   -38031.314    2612.2486   -40643.563   -33.670055   -110.00692    144.71364 
    9400    224.53198    130.29772    141178.49   -38057.306     2663.763   -40721.069    149.72634   -29.023685    567.42878 
    9600    218.98989   -8.7720136    141178.49   -38078.674    2598.0138   -40676.688   -10.080003    241.62163   -598.25546 
    9800     224.1068    54.609926    141178.49   -38089.397    2658.7188   -40748.116    62.752778    206.09177   -272.20123 
   10000    225.51597   -182.36059    141178.49    -38093.13    2675.4367   -40768.567   -209.55226   -290.56274   -20.247332 
   10200       221.52    101.87426    141178.49   -38083.538      2628.03   -40711.568    117.06467    48.532436    277.21059 
   10400    224.55315    356.29115    141178.49    -38039.08    2664.0142   -40703.094    409.41751    541.50343    100.75972 
   10600    226.75876     253.0952    141178.49   -37990.367    2690.1807   -40680.548    290.83407    475.38485   -140.42343 
   10800    229.43127    54.688612    141178.49   -37964.577    2721.8863   -40686.463    62.843198     141.4102   -120.75187 
   11000    228.50308   -136.75293    141178.49   -37954.618    2710.8746   -40665.493   -157.14408   -321.59376     227.1413 
   11200    227.65014    11.598197    141178.49   -37952.569    2700.7557   -40653.325    13.327597   -63.098398    191.91959 
   11400    229.57646    97.172896    141178.49   -37954.775    2723.6088   -40678.384    111.66229    179.77978   -47.514396 
   11600    219.88114   -45.806004    141178.49   -37966.071    2608.5871   -40574.658   -52.636109   -40.546772   -80.886441 
   11800    226.00481   -248.00526    141178.49   -37979.848    2681.2361   -40661.084   -284.98517   -23.779307   -895.37017 
   12000    225.77727    -112.7576    141178.49   -37999.493    2678.5366   -40678.029   -129.57082   -25.939731    -371.7356 
   12200     225.8056   -333.63089    141178.49   -38021.332    2678.8727   -40700.205   -383.37839   -493.86251   -125.19961 
   12400    225.00819    185.38149    141178.49   -38049.936    2669.4126   -40719.349    213.02362    570.96886   -623.42147 
   12600    219.86823    106.24163    141178.49   -38074.266     2608.434     -40682.7    122.08326    470.12382   -691.21664 
   12800    220.40641    45.830029    141178.49   -38095.421    2614.8188    -40710.24    52.663717     66.19596    21.041635 
   13000    221.98728    92.568232    141178.49   -38116.671    2633.5737   -40750.244    106.37102    209.11865   -133.72923 
   13200     219.4885   -127.87855    141178.49   -38128.224    2603.9291   -40732.153   -146.94644   -66.715596   -334.42961 
   13400    220.41613   -206.10207    141178.49   -38137.868    2614.9341   -40752.802   -236.83382   -359.68216     50.23766 
   13600    217.71655   -117.76588    141178.49   -38141.343    2582.9073    -40724.25   -135.32588    105.93204   -699.09655 
   13800    218.36112    9.0372945    141178.49   -38121.441    2590.5543   -40711.995     10.38484    314.48118   -700.22637 
   14000    222.07826    -228.2247    141178.49   -38078.525     2634.653   -40713.178   -262.25515     165.1619   -1261.0418 
   14200    225.40606   -170.15447    141178.49    -38038.14    2674.1327   -40712.273    -195.5261   -295.73666    38.645516 
   14400    220.93054   -165.25658    141178.49   -38008.413    2621.0369   -40629.449   -189.89789   -176.37497   -221.49825 
   14600    222.86943   -274.48991    141178.49   -37987.824    2644.0391   -40631.864   -315.41893    -228.4408    -518.6692 
   14800    224.19046   -133.81839    141178.49   -37966.469    2659.7113    -40626.18   -153.77197   -337.04965    274.51063 
   15000    228.54144    110.34915    141178.49   -37952.053    2711.3297   -40663.383    126.80325    41.247805    326.72893 
   15200    225.05895   -147.66429    141178.49   -37943.506    2670.0147   -40613.521   -169.68243    89.444644   -775.20967 
   15400    225.64036   -34.406952    141178.49   -37939.328    2676.9124    -40616.24   -39.537352    148.73024   -479.48039 
   15600    225.44982   -30.693161    141178.49   -37934.522    2674.6518   -40609.174   -35.269799    54.211463    -244.3693 
   15800    223.60863   -60.650957    141178.49   -37925.527    2652.8087   -40578.336   -69.694584   -209.80038    257.70412 
   16000    222.95459   -16.343296    141178.49   -37912.005    2645.0494   -40557.054   -18.780235   -72.110088    105.84077 
   16200    229.25269    27.777785    141178.49   -37905.567    2719.7678   -40625.335    31.919714    293.63061   -579.64534 
   16400    228.19606    52.226625    141178.49    -37902.34    2707.2322   -40609.572    60.014106    28.421956    133.83854 
   16600    227.67546    188.66836    141178.49   -37909.645    2701.0561   -40610.701    216.80059    170.58861    324.78862 
   16800    226.28091    240.87026    141178.49    -37934.55    2684.5116   -40619.062    276.78627    498.32469   -240.90382 
   17000    226.22648   -175.70281    141178.49   -37966.306    2683.8659   -40650.172   -201.90175   -101.68831   -436.08021 
   17200    221.02918   -56.680426    141178.49   -37992.025    2622.2071   -40614.232    -65.13201   -91.904603   -2.5699288 
   17400    221.36797   -76.671957    141178.49   -38005.878    2626.2264   -40632.105   -88.104466   -79.358514     -108.542 
   17600    222.46407   -217.38924    141178.49   -38008.256    2639.2301   -40647.486   -249.80402  -0.88279106    -831.4823 
   17800    223.26439   -151.57628    141178.49   -38006.734    2648.7248   -40655.459   -174.17773   -242.69139   -14.075313 
   18000    224.62835   -99.750833    141178.49   -38000.848    2664.9062   -40665.754   -114.62462   -41.275657   -286.02624 
   18200    225.65233    -287.3866    141178.49   -37986.061    2677.0544   -40663.116   -330.23864   -252.28672   -512.39649 
   18400    227.51936   -122.94716    141178.49   -37955.898    2699.2042   -40655.102   -141.27974   -194.93536   -15.897514 
   18600    228.69633    316.49842    141178.49   -37920.607    2713.1673   -40633.774     363.6913    348.52589    399.12987 
   18800    231.54943    366.64922    141178.49   -37898.592    2747.0153   -40645.607    421.32006    584.69522    39.545698 
   19000    227.37697     215.1212    141178.49   -37893.152    2697.5149   -40590.667    247.19779    256.39272    225.71117 
   19200    228.55733    99.452735    141178.49   -37904.473    2711.5183   -40615.991    114.28207   -19.860797    427.74667 
   19400    229.61203   -144.64199    141178.49   -37933.398    2724.0308   -40657.429   -166.20947    62.630433   -700.96176 
   19600     225.8977    159.19878    141178.49   -37980.915    2679.9654    -40660.88    182.93682    222.54791    90.373814 
   19800    222.04827   -122.24324    141178.49   -38016.053    2634.2971    -40650.35   -140.47086   -81.957138   -277.20554 
   20000    225.93171   -107.88646    141178.49   -38023.273    2680.3689   -40703.642   -123.97334   -27.705042   -348.93278 
   20200    224.19415    211.40134    141178.49   -38024.088    2659.7551   -40683.843    242.92326    273.08975     172.4304 
   20400    227.62099    158.58463    141178.49   -38023.623    2700.4098   -40724.033    182.23109    424.05848   -382.87024 
   20600    223.68317    183.91166    141178.49   -38016.843     2653.693   -40670.536    211.33462    516.43507   -501.62296 
   20800    222.41336    201.20497    141178.49   -38022.282    2638.6285    -40660.91    231.20652     300.8685    68.420729 
   21000     224.6242   -51.928825    141178.49   -38032.913    2664.8571    -40697.77     -59.6719   -341.21038    598.22619 
   21200     224.6412   -14.590996    141178.49   -38054.492    2665.0587   -40719.551    -16.76665    76.907004   -235.66291 
   21400    225.42372    98.163144    141178.49   -38082.059    2674.3423   -40756.401    112.80019    202.79911   -97.508921 
   21600    225.13979    73.059052    141178.49   -38107.459    2670.9738   -40778.433    83.952842    57.079606    146.75014 
   21800    223.80291    456.62472    141178.49   -38129.127    2655.1136   -40784.241    524.71175    604.34455    338.62626 
   22000    218.72589    160.02255    141178.49   -38146.532    2594.8817   -40741.414    183.88342     551.8514   -675.98277 
   22200    219.53437    159.86815    141178.49   -38149.936    2604.4732    -40754.41    183.70599    166.26848    224.45395 
   22400    221.10095    149.56044    141178.49   -38142.231    2623.0585    -40765.29    171.86131    353.90219   -253.53112 
   22600    222.88652    152.78695    141178.49    -38105.84    2644.2419   -40750.082    175.56892    10.960701    560.22485 
   22800     223.3002    249.85819    141178.49    -38055.52    2649.1496   -40704.669    287.11439    444.26357   -80.111182 
   23000    226.01817   -125.51931    141178.49   -38022.779    2681.3945   -40704.173   -144.23542   -123.15766    -193.4899 
   23200      228.114     89.94852    141178.49   -38008.241    2706.2587   -40714.499    103.36069    96.666922    119.00269 
   23400    229.30085    93.783343    141178.49   -38002.945     2720.339   -40723.284    107.76732    170.74458    -39.39768 
   23600    222.47413   -106.22574    141178.49   -37996.923    2639.3494   -40636.272     -122.065    53.867571   -533.18362 
   23800    223.81762    83.778595    141178.49   -37997.955    2655.2881   -40653.243     96.27077    194.40633   -133.05203 
   24000    224.91634    81.321131    141178.49   -37996.775    2668.3229   -40665.098    93.446875    159.91465   -61.874761 
   24200    225.88046    495.65335    141178.49   -38014.346    2679.7608   -40694.107    569.55992    567.33346    574.76286 
   24400    230.06978    200.81654    141178.49   -38040.553    2729.4614   -40770.014    230.76018     385.4864   -130.80343 
   24600    221.94795    226.79063    141178.49   -38077.763     2633.107    -40710.87    260.60724    124.79358    577.97619 
   24800      225.599   -89.428743    141178.49   -38105.003    2676.4217   -40781.424   -102.76341   -191.19108    103.87402 
   25000     226.3005   -47.025241    141178.49   -38123.429    2684.7441   -40808.173   -54.037146   -68.545255   -20.134663 
   25200    225.28826    426.30646    141178.49   -38127.573    2672.7353   -40800.308    489.87276    627.35675     168.6008 
   25400    221.30839    338.45605    141178.49   -38134.098    2625.5195   -40759.617    388.92302    509.66996    106.76212 
   25600    218.72651    82.362928    141178.49   -38136.162    2594.8891   -40731.052    94.644014    254.52409   -278.96314 
   25800    222.78104   -42.576638    141178.49   -38124.844    2642.9905   -40767.834   -48.925214   -144.11835    173.52174 
   26000    222.22755    246.77757    141178.49   -38107.294    2636.4241   -40743.718    283.57442    272.10223    310.38266 
   26200    226.41935    409.74139    141178.49    -38084.67     2686.154   -40770.824    470.83768     577.0171    222.71813 
   26400    223.73791     82.72449    141178.49   -38070.055    2654.3425   -40724.398    95.059488    192.70623   -133.12103 
   26600    226.71899    378.05038    141178.49   -38064.526    2689.7088   -40754.235    434.42124    529.48928    212.26669 
   26800    223.17949   -20.878549    141178.49   -38060.723    2647.7176    -40708.44   -23.991736   -106.56282    168.96007 
   27000     225.4555    182.49824    141178.49   -38059.576    2674.7193   -40734.295    209.71044    246.50985    123.71778 
   27200     222.1889     40.54091    141178.49   -38058.373    2635.9656   -40694.338     46.58594   -96.761202    381.55903 
   27400    224.88915     295.6812    141178.49   -38056.576    2668.0003   -40724.576    339.77004    339.21229    341.07348 
   27600    225.80328   -1.7801627    141178.49     -38057.6    2678.8452   -40736.445   -2.0456016    174.31832   -414.17216 
   27800    225.00165    176.40553    141178.49   -38061.807    2669.3349   -40731.142    202.70924    193.06278    225.25112 
   28000    223.30311    95.843398    141178.49   -38061.782    2649.1842   -40710.967    110.13455    21.928509    316.25413 
   28200    229.12784    183.90665    141178.49    -38057.34    2718.2865   -40775.626    211.32885    456.58783   -361.79137 
   28400    227.08351    319.17115    141178.49   -38053.728    2694.0334   -40747.762    366.76257    522.34417    3.2001568 
   28600     229.4566   -38.484479    141178.49   -38049.006    2722.1868   -40771.193   -44.222876    202.35119   -620.41628 
   28800    225.27484    246.83561    141178.49   -38043.041    2672.5759   -40715.617    283.64112    318.57545    202.00677 
   29000    226.33272    74.982258    141178.49   -38037.483    2685.1263    -40722.61    86.162817    158.98615    -84.01045 
   29200    226.86675    176.05839    141178.49   -38026.116    2691.4618   -40717.578    202.31035    142.47936    342.12324 
   29400    223.92734   -46.741507    141178.49   -38010.256    2656.5898   -40666.846   -53.711104    71.477415   -346.25119 
   29600    224.75231   -113.60653    141178.49   -37990.006    2666.3769   -40656.383   -130.54633   -133.85796   -122.80778 
   29800    225.47993     159.5317    141178.49   -37975.198    2675.0092   -40650.207    183.31938    376.78072   -268.76033 
   30000    224.91895    257.16473    141178.49   -37959.805    2668.3538   -40628.159     295.5104    631.54495   -489.73382 
   30200    227.86013   -14.516544    141178.49   -37943.189    2703.2469   -40646.436   -16.681097   -200.58576    413.06665 
   30400    229.01235   -53.467811    141178.49   -37931.865    2716.9164   -40648.782   -61.440363   -236.36438    347.32142 
   30600    226.56264   -159.89435    141178.49   -37932.269    2687.8539   -40620.123    -183.7361   -187.88495   -174.04113 
   30800    228.58857    60.262279    141178.49   -37942.447    2711.8888   -40654.336    69.247951    33.302213    153.24584 
   31000    224.34524   -176.57238    141178.49   -37963.256    2661.5475   -40624.803   -202.90097    48.787406   -791.04552 
   31200    224.52633      24.2115    141178.49   -37992.772    2663.6959   -40656.467    27.821662    89.375716   -116.01762 
   31400    226.04081   -75.079089    141178.49   -38023.682    2681.6632   -40705.345   -86.274086    1.8547833   -292.21333 
   31600     222.5188    202.16481    141178.49   -38047.057    2639.8794   -40686.937    232.30948    201.34991    304.65576 
   31800    217.03866    259.46746    141178.49   -38053.355     2574.865   -40628.221     298.1565    259.20627    389.17533 
   32000    220.10643    233.29995    141178.49   -38048.031      2611.26   -40659.291    268.08716    322.77227    140.29926 
   32200    226.20806    118.65938    141178.49   -38037.257    2683.6473   -40720.904     136.3526    320.49858   -293.95901 
   32400     226.5057    292.67032    141178.49   -38020.634    2687.1785   -40707.813    336.31021    555.92616   -176.88744 
   32600    229.40063   -20.991109    141178.49   -37993.975    2721.5229   -40715.498    -24.12108    38.835221   -171.23714 
   32800    226.62527    127.77856    141178.49   -37951.439     2688.597   -40640.036    146.83155      174.911     81.21561 
   33000    223.49078    155.73512    141178.49   -37912.503    2651.4106   -40563.913    178.95669    138.70836    273.00888 
   33200    226.70185    203.51825    141178.49   -37892.233    2689.5056   -40581.738    233.86473    239.68835    220.25618 
   33400    228.71709    53.266592    141178.49   -37886.801    2713.4136   -40600.214    61.209141   -62.655913    350.65656 
   33600    231.19282    22.130721    141178.49   -37894.897    2742.7847   -40637.682    25.430619    41.262288   -11.564761 
   33800    225.14634    16.132552    141178.49    -37907.78    2671.0516   -40578.832    18.538067   -79.022698    246.51771 
   34000    226.58599    43.747593    141178.49   -37924.599     2688.131    -40612.73    50.270769    467.19896   -924.00549 
   34200    229.82611    68.713647    141178.49   -37943.329    2726.5705   -40669.899    78.959497    179.21723    -155.3224 
   34400    221.38016    11.563313    141178.49   -37966.986     2626.371   -40593.357    13.287511     151.7086   -310.17438 
   34600    223.12328    272.99346    141178.49   -37982.116    2647.0508   -40629.167    313.69934     329.7289    276.24161 
   34800    222.56247   -108.72638    141178.49   -37996.558    2640.3974   -40636.955    -124.9385   -49.112152   -302.12927 
   35000    222.48532    65.084099    141178.49   -38005.635    2639.4822   -40645.117    74.788749    380.61193   -639.85773 
   35200    230.08033    96.037781    141178.49   -38007.233    2729.5865    -40736.82    110.35792    286.09998   -300.31547 
   35400    228.87884   -229.74713    141178.49   -38010.575    2715.3325   -40725.907   -264.00458   -78.999928   -696.32286 
   35600    223.86606   -313.11864    141178.49   -38017.802    2655.8627   -40673.665   -359.80757   -318.55262    -456.2121 
   35800     228.8562   -137.97136    141178.49   -38029.139    2715.0639   -40744.203   -158.54418    55.604739   -658.96664 
   36000    223.27604    236.14077    141178.49   -38030.063     2648.863   -40678.926    271.35157     418.3529    -72.16052 
   36200    224.33115    317.70357    141178.49   -38031.149    2661.3804    -40692.53    365.07615    545.06146   -55.512767 
   36400    224.88424    88.711363    141178.49   -38028.312    2667.9421   -40696.254    101.93906    112.90914    76.304239 
   36600    224.41803    118.35406    141178.49   -38023.965    2662.4111   -40686.376    136.00177    191.44746    6.4365166 
   36800    227.50238    320.08572    141178.49   -38018.383    2699.0026   -40717.386     367.8135    372.79021    356.18406 
   37000    226.73111    151.82648    141178.49   -38009.117    2689.8527   -40698.969    174.46524    96.111439    357.56215 
   37200    220.95135   -126.82031    141178.49    -37991.43    2621.2837   -40612.713   -145.73041    192.87615   -936.98502 
   37400    229.12134    236.64985    141178.49   -37964.934    2718.2095   -40683.144    271.93656    95.475342    684.29058 
   37600    231.82265    219.65806    141178.49   -37940.479    2750.2568   -40690.736    252.41113    415.54717    -128.8045 
   37800    227.92163    344.74741    141178.49   -37940.172    2703.9765   -40644.149    396.15248    589.71418   -56.161681 
   38000    224.02882    145.62588    141178.49   -37961.825    2657.7937   -40619.619    167.34006    166.62215    169.01774 
   38200    227.23338    497.04022    141178.49    -37999.98    2695.8113   -40695.791    571.15359    465.40305    818.27121 
   38400    224.32699     155.8629    141178.49   -38034.832     2661.331   -40696.163    179.10352    214.32449    96.799352 
   38600    225.01666    131.81479    141178.49   -38056.671    2669.5131   -40726.184    151.46961    126.91519    208.84833 
   38800    223.31614     217.6798    141178.49   -38073.982    2649.3387    -40723.32     250.1379    476.03748   -277.74334 
   39000    224.88678    8.2879177    141178.49   -38084.235    2667.9722   -40752.208     9.523724    234.92575   -517.19492 
   39200    220.99115    -161.8302    141178.49   -38089.405     2621.756   -40711.161    -185.9606   -443.89168    416.77178 
   39400    224.92877    19.004755    141178.49     -38090.2    2668.4703   -40758.671    21.838543    251.25851    -514.2692 
   39600    223.55368    438.06577    141178.49   -38086.093    2652.1568    -40738.25    503.38549    569.54342      348.788 
   39800    224.06444    263.29814    141178.49   -38069.024    2658.2163    -40727.24    302.55837    594.96668   -380.74023 
   40000    227.97007    105.83251    141178.49   -38037.898    2704.5512   -40742.449    121.61313    287.70735    -266.5152 
   40200    225.96156    53.954094    141178.49   -38003.111     2680.723   -40683.834    61.999156    66.868705     50.62003 
   40400    229.86151    330.10761    141178.49   -37978.203    2726.9905   -40705.194    379.32975    430.28581    260.25593 
   40600    230.82879    331.18311    141178.49   -37972.251    2738.4659   -40710.716    380.56562     442.9552    234.77396 
   40800    227.19206    37.615303    141178.49   -37984.129    2695.3212    -40679.45    43.224097    239.56207   -415.57774 
   41000    232.88865    250.45639    141178.49   -38006.318    2762.9034   -40769.222    287.80179    246.03651    385.39883 
   41200    227.79815    165.48934    141178.49   -38025.523    2702.5116   -40728.034    190.16536    282.84545   -26.409096 
   41400    228.21321    296.18111    141178.49   -38043.222    2707.4358   -40750.657    340.34449    497.34546   -26.534696 
   41600    230.90784    60.302223    141178.49   -38059.269    2739.4038   -40798.672     69.29385    109.16892   -23.886047 
   41800    221.72784    175.36757    141178.49    -38075.93    2630.4958   -40706.426    201.51652    504.05734   -505.45971 
   42000    228.14163     128.4531    141178.49    -38094.98    2706.5865   -40801.567    147.60666    319.73676   -254.62629 
   42200    226.36478    45.795387    141178.49   -38112.057    2685.5066   -40797.563    52.623909    100.83802   -60.042642 
   42400    221.51275    297.01435    141178.49   -38126.376     2627.944    -40754.32    341.30198    415.40067    168.14852 
   42600    224.53392    161.63436    141178.49    -38139.05    2663.7861   -40802.836    185.73556     365.8785   -235.22178 
   42800    221.32074   -15.784281    141178.49    -38149.09    2625.6661   -40774.756   -18.137866    414.15629   -1028.3213 
   43000    223.79472    248.89762    141178.49   -38144.181    2655.0164   -40799.197    286.01059    292.95024    269.79412 
   43200    225.08329   -81.949184    141178.49   -38132.881    2670.3036   -40803.184   -94.168576   -61.747075   -169.93105 
   43400    224.82074     -127.531    141178.49   -38096.077    2667.1888   -40763.266   -146.54707    230.30649   -1027.1771 
   43600     227.9506    311.13686    141178.49   -38045.712    2704.3202   -40750.033    357.53029    401.94364    253.74542 
   43800     228.0975    69.739365    141178.49   -38017.535    2706.0629   -40723.598    80.138159    248.49038   -313.26668 
   44000     229.4639    8.0040299    141178.49   -38009.024    2722.2734   -40731.297    9.1975059     90.37028   -180.48673 
   44200    227.04847    204.33523    141178.49   -38007.043    2693.6177   -40700.661    234.80353    357.08626   -50.946233 
   44400    223.50958      -137.04    141178.49   -38019.524    2651.6337   -40671.157   -157.47396    103.46504   -767.23528 
   44600    221.62097      127.654    141178.49   -38038.546    2629.2278   -40667.774    146.68841    196.27455    30.815756 
   44800    229.08795    71.315205    141178.49   -38059.119    2717.8133   -40776.932    81.948972    165.33781   -112.91373 
   45000    225.03984    247.62256    141178.49   -38083.788     2669.788   -40753.576    284.54541    468.34291   -144.95183 
   45200     222.1461    191.44057    141178.49    -38108.75    2635.4578   -40744.208    219.98616    422.69221   -253.69655 
   45400    226.87555    280.09175    141178.49   -38119.483    2691.5662   -40811.049    321.85606    347.42172    262.11441 
   45600    223.58097    22.044563    141178.49   -38124.312    2652.4805   -40776.792    25.331614   -8.6597789    104.76258 
   45800    221.22402   -46.284069    141178.49   -38120.267    2624.5185   -40744.786   -53.185458    113.76152   -443.30657 
   46000    216.57057    248.68672    141178.49   -38107.337    2569.3118   -40676.649    285.76824    599.83242   -448.13572 
   46200    222.25953   -3.3046299    141178.49   -38094.588    2636.8035   -40731.391   -3.7973812    176.31657   -424.68701 
   46400    225.65563   -361.01515    141178.49   -38080.785    2677.0935   -40757.879    -414.8459    -196.1279   -925.94543 
   46600    224.39442   -53.566012    141178.49   -38067.193     2662.131   -40729.324   -61.553208   -115.17378    63.747131 
   46800    227.05194     99.74312    141178.49   -38058.087    2693.6589   -40751.745    114.61576    168.32485   -10.891439 
   47000    227.85932   -26.028489    141178.49   -38048.923    2703.2372    -40752.16   -29.909581    143.10055   -434.19903 
   47200    227.69374    162.85081    141178.49   -38042.989    2701.2729   -40744.262     187.1334    206.74943    141.29477 
   47400    227.47958    -13.68684    141178.49   -38037.559    2698.7322   -40736.291   -15.727676     123.6939   -341.52752 
   47600    226.89626   -245.77966    141178.49   -38031.068    2691.8119    -40722.88   -282.42772   -206.64671   -459.51259 
   47800    225.71727    120.68412    141178.49   -38018.251    2677.8249   -40696.076    138.67926    177.81647    47.223603 
   48000    222.99833    -165.3749    141178.49   -38009.576    2645.5683   -40655.144   -190.03385   -286.92181    36.373519 
   48200    223.80526     155.7376    141178.49   -37994.721    2655.1415   -40649.862    178.95954     305.5594    -116.8785 
   48400    225.12776    394.41956    141178.49   -37979.313    2670.8311   -40650.144    453.23122    262.23721    899.54543 
   48600    226.46101   -334.38925    141178.49   -37966.205    2686.6483   -40652.853   -384.24983   -292.34084   -599.02253 
   48800    229.81339    205.94094    141178.49   -37955.921    2726.4197    -40682.34    236.64867    68.639482    629.25198 
   49000    225.77712   -180.22384    141178.49   -37960.155    2678.5349    -40638.69   -207.09691   -31.673076   -617.02674 
   49200    227.45919     212.3405    141178.49   -37970.959    2698.4903   -40669.449    244.00247    462.42123   -266.39764 
   49400    226.98469    4.9248071    141178.49   -37993.383     2692.861   -40686.244    5.6591421      117.404   -255.46584 
   49600    222.60011   -43.345032    141178.49   -38021.656     2640.844     -40662.5   -49.808183    107.29861   -416.93479 
   49800    225.50028   -1.2470396    141178.49   -38052.387    2675.2506   -40727.638    -1.432985    15.278538   -40.484411 
   50000    220.43491    27.746776    141178.49   -38073.026    2615.1569   -40688.183    31.884081    70.102214   -57.423904 
   50200    225.57337   -163.01194    141178.49   -38080.613    2676.1176    -40756.73   -187.31855   -119.71996   -345.28274 
   50400     224.4081   -102.56369    141178.49   -38080.996    2662.2934   -40743.289    -117.8569   -130.46575   -88.392632 
   50600    225.89207   -86.800437    141178.49    -38066.97    2679.8986   -40746.868   -99.743197    -77.92664   -150.72407 
   50800    223.98077    65.632248    141178.49   -38051.977    2657.2237     -40709.2    75.418633    303.15417   -456.75292 
   51000    227.76667    59.856722    141178.49   -38034.172    2702.1381    -40736.31    68.781921    103.42902   -12.181285 
   51200    224.71439   -90.765831    141178.49   -38016.033     2665.927    -40681.96   -104.29987   -186.13336    86.928321 
   51400    231.01885   -91.597797    141178.49   -37993.001    2740.7207   -40733.722   -105.25589    -150.2838 -0.034862955 
   51600    229.94064    -264.5834    141178.49   -37948.361    2727.9293    -40676.29   -304.03527    -262.0699   -402.09987 
   51800    233.16446    94.995297    141178.49   -37888.814    2766.1754    -40654.99    109.15999    496.05299   -794.93015 
   52000    229.12251   -9.2842105    141178.49   -37859.687    2718.2233    -40577.91   -10.668573   -99.119248    196.02264 
   52200    229.26422  -0.71275695    141178.49   -37859.223    2719.9045   -40579.127   -0.8190357    106.43001   -251.43823 
   52400    224.23282   -223.58347    141178.49   -37872.417    2660.2139   -40532.631   -256.92187   -113.69124   -591.62275 
   52600    226.28223    47.730396    141178.49   -37893.798    2684.5273   -40578.325    54.847446    164.24925   -200.80227 
   52800    223.70726    91.698462    141178.49   -37922.448    2653.9788   -40576.427    105.37156    362.41609   -495.28912 
   53000    225.31429   -20.120595    141178.49   -37953.727     2673.044   -40626.771   -23.120765    18.489956   -120.35655 
   53200    223.40668   -96.126493    141178.49   -37977.999    2650.4129   -40628.412   -110.45986    18.701993   -412.28482 
   53400    227.53913    62.664451    141178.49   -37992.539    2699.4387   -40691.978    72.008309     133.6427   -72.018697 
   53600    221.78651   -18.754126    141178.49    -38002.75    2631.1917   -40633.942   -21.550543    174.46104    -479.5897 
   53800    222.51608   -9.5580259    141178.49   -38004.329    2639.8471   -40644.177   -10.983217    329.18996   -805.89867 
   54000    225.39229   -182.49788    141178.49    -38007.86    2673.9694   -40681.829   -209.71002   -189.65951   -256.56405 
   54200    227.25138   -162.83416    141178.49   -38011.666    2696.0249   -40707.691   -187.11426   -193.56553   -172.03901 
   54400    231.67746    36.876777    141178.49   -38020.576    2748.5343   -40769.111     42.37545    113.28266   -123.32025 
   54600    221.60275   -244.96563    141178.49   -38044.661    2629.0117   -40673.672    -281.4923   -286.74923   -269.20801 
   54800    223.32906    185.82639    141178.49   -38078.012     2649.492   -40727.504    213.53485    321.65927   -39.129842 
   55000    222.46651   -61.199275    141178.49   -38105.923    2639.2591   -40745.183   -70.324662     62.01555   -379.57681 
   55200    217.05579   -218.01157    141178.49   -38115.476    2575.0683   -40690.544   -250.51914   -6.3457631   -821.10267 
   55400    227.13982    24.638705    141178.49   -38112.157    2694.7015   -40806.859    28.312567   -14.167399     127.5796 
   55600    223.98442    190.10269    141178.49   -38092.045    2657.2669   -40749.312    218.44879   -6.3022319    743.64621 
   55800     223.6192    301.06038    141178.49   -38064.334     2652.934   -40717.268    345.95131    204.95645    675.42766 
   56000    227.30688    11.585617    141178.49   -38036.716    2696.6834   -40733.399    13.313142    64.601121   -106.53642 
   56200    219.98367    -7.435184    141178.49   -38010.714    2609.8035   -40620.518   -8.5438397   -35.644616    54.785153 
   56400    224.40017    191.34573    141178.49   -37995.808    2662.1992   -40658.007    219.87718    215.22404    230.75068 
   56600    224.02355    192.01989    141178.49   -37991.005    2657.7312   -40648.736    220.65186     506.1018   -446.38648 
   56800     222.9482   -8.1030281    141178.49   -37994.831    2644.9736   -40639.804   -9.3112657    94.707651   -252.38229 
   57000    227.99749   -246.52546    141178.49   -38000.015    2704.8765   -40704.892   -283.28472   -133.40752   -633.51729 
   57200    224.77423   -104.70989    141178.49   -38005.689     2666.637   -40672.326   -120.32311    167.64215   -793.23933 
   57400    222.60826   -1.0343353    141178.49    -38011.66    2640.9407   -40652.601   -1.1885644    55.515685   -133.69485 
   57600    229.07813   -37.870368    141178.49   -38023.268    2717.6968   -40740.965   -43.517195    172.10786   -547.38905 
   57800    227.82504    410.71282    141178.49   -38031.781    2702.8306   -40734.611    471.95396    697.86369   -55.950956 
   58000    221.98733    316.49298    141178.49   -38054.112    2633.5742   -40687.686    363.68506     359.2479    374.05388 
   58200    223.87431    53.329052    141178.49    -38071.74    2655.9606     -40727.7    61.280915   -90.730906     416.5016 
   58400    223.46445    220.05772    141178.49    -38092.16    2651.0982   -40743.258    252.87039    159.43439    471.21135 
   58600     225.1205   -103.48789    141178.49   -38112.503    2670.7449   -40783.248   -118.91891    122.09839   -682.12729 
   58800    222.59969    -46.83232    141178.49   -38130.793    2640.8391   -40771.632   -53.815459    75.137016   -355.15115 
   59000    222.40539    30.028273    141178.49   -38154.061    2638.5339   -40792.595     34.50577    249.53879    -467.9826 
   59200    221.02629    265.50952    141178.49   -38171.478    2622.1728   -40793.651    305.09948    265.77939     396.9826 
   59400    217.36315   -31.263299    141178.49   -38189.178    2578.7147   -40767.893   -35.924951     20.40604   -167.55902 
   59600    218.63348    41.583554    141178.49   -38192.056    2593.7854   -40785.841    47.784052    179.86958   -260.87292 
   59800     222.8279   -60.268813    141178.49    -38171.87    2643.5464   -40815.416   -69.255459    144.48144   -568.71507 
   60000    224.75486    195.62586    141178.49   -38130.882    2666.4071   -40797.289    224.79551   -37.232459    837.10157 
   60200    225.95482     131.7657    141178.49   -38098.482    2680.6431   -40779.125     151.4132    357.16286   -329.38181 
   60400    230.50243    122.73944    141178.49   -38078.496    2734.5941    -40813.09    141.04104    312.04195   -258.55323 
   60600    219.40824    1.7249176    141178.49   -38065.636    2602.9769   -40668.612     1.982119    10.743838   -18.492235 
   60800    225.23963   -55.143882    141178.49   -38062.192    2672.1583    -40734.35   -63.366352     91.80945   -425.98062 
   61000    225.51985    143.96887    141178.49   -38052.326    2675.4827   -40727.809    165.43598    250.25408   -32.766621 
   61200     226.9018   -197.35142    141178.49   -38057.923    2691.8776     -40749.8   -226.77837    37.727833   -844.87557 
   61400    225.91497   -76.579226    141178.49   -38065.639    2680.1703    -40745.81   -87.997907    3.5758079   -301.98705 
   61600    223.98748   -140.80842    141178.49    -38082.93    2657.3032   -40740.233   -161.80428   -162.45886   -160.27469 
   61800    218.52162   -403.49595    141178.49   -38111.447    2592.4583   -40703.905   -463.66099   -192.99772   -1096.1461 
   62000    222.40902   -195.84896    141178.49   -38140.003     2638.577    -40778.58   -225.05188   -83.844457   -555.02492 
   62200    218.21464   -150.74487    141178.49   -38158.343    2588.8165   -40747.159   -173.22235    50.540001   -696.10944 
   62400    222.10956    29.268493    141178.49   -38160.326    2635.0243    -40795.35      33.6327    196.43071   -346.79309 
   62600    227.69607   -190.84944    141178.49   -38147.154    2701.3006   -40848.455   -219.30689   -171.73853   -330.46451 
   62800    226.41425   -53.245837    141178.49   -38108.643    2686.0935   -40794.736   -61.185292    29.730443   -273.63687 
   63000    222.06314   -73.739589    141178.49   -38061.286    2634.4736    -40695.76   -84.734854    172.18382   -685.10149 
   63200    221.78579     165.8901    141178.49   -38035.892    2631.1832   -40667.076    190.62587    272.55134  -0.81721805 
   63400    229.72573    104.00872    141178.49   -38024.289    2725.3797   -40749.668     119.5174    67.905074    240.12492 
   63600    227.67366    190.65773    141178.49   -38028.519    2701.0348   -40729.554    219.08659    284.70162    65.757681 
   63800    225.18539    162.59888    141178.49   -38036.818    2671.5148   -40708.333     186.8439    354.99513   -206.09121 
   64000    227.82382    143.28289    141178.49   -38045.014    2702.8161    -40747.83    164.64771   -20.738345    597.85722 
   64200    225.28171    184.16506    141178.49   -38064.047    2672.6575   -40736.705     211.6258    387.91807   -200.33327 
   64400    218.82168   -34.780052    141178.49   -38076.591    2596.0181   -40672.609   -39.966084    197.70306   -595.35049 
   64600    222.48339      98.8644    141178.49   -38082.731    2639.4593    -40722.19    113.60601    -56.34839    510.75486 
   64800    224.33772    81.113998    141178.49   -38084.019    2661.4584   -40745.477    93.208856    93.409641    92.739689 
   65000    219.32647    133.59864    141178.49   -38073.808    2602.0068   -40675.815    153.51945    424.68781   -480.14575 
   65200    231.08483    187.43735    141178.49   -38048.416    2741.5036    -40789.92    215.38601    406.50467   -231.21932 
   65400    227.09762   -45.816854    141178.49   -38011.223    2694.2008   -40705.423   -52.648577    100.66789   -410.91796 
   65600    224.94737   -154.41817    141178.49   -37979.213     2668.691   -40647.904   -177.44337    189.82631   -1035.6779 
   65800    223.75269    136.34938    141178.49   -37959.183    2654.5178   -40613.701    156.68035    272.97181   -115.06907 
   66000    225.97712    -242.6101    141178.49   -37952.645    2680.9076   -40633.552   -278.78555   -197.87178   -467.86461 
   66200    227.21991   -49.090289    141178.49   -37947.948    2695.6516   -40643.599   -56.410112    14.586299   -222.31428 
   66400    224.89352    74.793434    141178.49   -37945.715    2668.0521   -40613.767    85.945837    69.806756    123.65961 
   66600    228.86252   -210.36003    141178.49   -37946.016    2715.1389   -40661.155   -241.72668   -89.766332   -596.82715 
   66800    226.07962    25.670898    141178.49   -37953.596    2682.1236    -40635.72     29.49867    115.78653   -172.13849 
   67000    224.74817   -50.606328    141178.49    -37971.14    2666.3278   -40637.468   -58.152206    388.75139   -1102.4749 
   67200    227.19449   -58.750196    141178.49    -38005.97      2695.35    -40701.32   -67.510402    53.527548   -350.35146 
   67400    222.05672   -305.92481    141178.49   -38048.108    2634.3974   -40682.505   -351.54107   -350.04576   -355.03542 
   67600    221.73249    37.251956    141178.49   -38068.278    2630.5509   -40698.829    42.806573    69.890681    -20.48346 
   67800    220.03769   -66.665026    141178.49   -38076.616    2610.4444   -40687.061   -76.605408    78.328198   -438.65371 
   68000    224.64852    47.919634    141178.49   -38073.974    2665.1456    -40739.12    55.064901   -156.91788    550.42552 
   68200    224.13308    67.723964    141178.49   -38058.991    2659.0306   -40718.022    77.822242    190.78968   -186.15964 
   68400    227.71949    123.52207    141178.49   -38036.503    2701.5784   -40738.081    141.94037    97.706112    245.30688 
   68600    227.64009   -39.580108    141178.49   -38008.637    2700.6364   -40709.274   -45.481873    54.077152   -278.13105 
   68800    225.16193    152.79429    141178.49   -37977.196    2671.2365   -40648.432    175.57736    187.62211    147.43127 
   69000     225.7377    112.44765    141178.49   -37961.775    2678.0672   -40639.842    129.21465    86.381392    229.30729 
   69200    226.59979    409.08676    141178.49   -37957.076    2688.2948    -40645.37    470.08544    518.51265    356.92104 
   69400    224.75324    87.429702    141178.49   -37961.444     2666.388   -40627.832    100.46629    116.14726    63.823088 
   69600    225.91649   -100.81864    141178.49   -37967.185    2680.1883   -40647.373   -115.85164   -136.74425   -67.029914 
   69800    224.78422    216.53051    141178.49   -37972.354    2666.7555   -40639.109    248.81725    414.07495   -137.35629 
   70000    221.10666   -81.497162    141178.49   -37982.018    2623.1263   -40605.144   -93.649154    116.14322   -583.89125 
   70200    224.34502    94.759882    141178.49   -37991.266     2661.545   -40652.811    108.88947    301.46748    -341.1261 
   70400    221.74677    189.03684    141178.49   -37999.464    2630.7203   -40630.185    217.22401    318.54811   -19.549724 
   70600    225.77282     283.1914    141178.49   -37999.546    2678.4838    -40678.03     325.4179    443.56562     49.33083 
   70800    223.68855    417.44948    141178.49   -38003.408    2653.7568   -40657.165    479.69511    734.60816   -115.98464 
   71000    223.50885    179.87031    141178.49   -38000.623    2651.6249   -40652.248    206.69066    368.34661   -171.06632 
   71200    225.38337   -85.305172    141178.49   -37999.105    2673.8636   -40672.969   -98.024974    190.55707   -772.38246 
   71400    225.82752   -75.063655    141178.49   -37998.675    2679.1328   -40677.808   -86.256351    105.85261   -535.17589 
   71600    223.60434    586.66013    141178.49   -37999.187    2652.7579   -40651.945    674.13667    526.40165    1019.3635 
   71800    222.43578    363.57431    141178.49   -38005.936    2638.8944    -40644.83    417.78666    603.72299    -16.70858 
   72000    221.92219    24.629768    141178.49   -38016.155    2632.8014   -40648.956    28.302298    179.75489   -325.61155 
   72200    227.06487    121.19788    141178.49   -38031.559    2693.8123   -40725.371    139.26962    214.76946   -37.158092 
   72400     225.8727    118.47227    141178.49   -38050.855    2679.6687   -40730.524     136.1376    13.733118    422.17199 
   72600     225.6351    95.305069    141178.49   -38069.446      2676.85   -40746.296    109.51595     166.5672   -23.801178 
   72800    223.91623    230.43661    141178.49   -38090.896    2656.4579   -40747.354    264.79687    297.95044    187.32382 
   73000    222.61434    -32.23062    141178.49    -38110.47    2641.0128   -40751.483   -37.036508    159.53655   -496.38772 
   73200    220.35432    288.08801    141178.49   -38122.991    2614.2008   -40737.192    331.04464    261.46276    493.64342 
   73400    219.98196    278.74509    141178.49   -38125.062    2609.7833   -40734.845     320.3086    271.85885    433.52587 
   73600    223.95725   -303.44731    141178.49    -38117.85    2656.9446   -40774.794   -348.69415   -242.16785   -597.62452 
   73800    225.15751   -23.040105    141178.49    -38093.96     2671.184   -40765.144   -26.475601    -5.916161   -74.518834 
   74000    224.36625    133.90338    141178.49   -38049.714    2661.7968   -40711.511    153.86963    229.15461   -22.055975 
   74200    229.66033    79.937538    141178.49   -38011.822    2724.6038   -40736.426    91.856975     42.81439    206.45954 
   74400    226.18918    151.47583    141178.49   -37993.604    2683.4233   -40677.027     174.0623    99.398231    348.53706 
   74600     229.9299    107.67051    141178.49   -37987.592    2727.8019   -40715.394    123.72519    129.61636    109.95878 
   74800    226.20417    -56.49512    141178.49   -37988.828    2683.6012   -40672.429   -64.919073    21.717824   -267.37188 
   75000    223.06747   -135.29184    141178.49    -38000.97    2646.3886   -40647.358   -155.46512   -176.79275   -105.62684 
   75200    222.96707   -276.67903    141178.49   -38019.546    2645.1974   -40664.744   -317.93447   -184.69486    -629.2884 
   75400    226.61442    -52.27729    141178.49   -38036.525    2688.4683   -40724.993   -60.072325   -180.34576    220.98218 
   75600    224.76769    8.5476418    141178.49   -38057.319    2666.5594   -40723.879    9.8221754    105.86613   -214.61298 
   75800    221.71814    90.625608    141178.49     -38085.8    2630.3807    -40716.18    104.13874    261.83622   -264.36814 
   76000    223.47356   -79.337915    141178.49   -38113.895    2651.2063   -40765.102   -91.167943   -203.86018    172.17084 
   76200    219.52658    149.37747    141178.49   -38139.289    2604.3808    -40743.67    171.65106    115.76632    302.24234 
   76400    224.45992    150.50064    141178.49   -38154.703    2662.9081   -40817.611     172.9417    187.38587    139.18865 
   76600    225.79083    -50.81037    141178.49   -38162.161    2678.6975   -40840.859   -58.386673    48.530577   -308.23053 
   76800    223.06122    -202.4888    141178.49   -38158.342    2646.3145   -40804.657   -232.68178   -149.53411   -426.98103 
   77000     223.5845  -0.87691503    141178.49    -38126.06    2652.5225   -40778.583   -1.0076713    242.89805   -570.96568 
   77200    225.13388    140.72674    141178.49   -38075.883    2670.9037   -40746.787    161.71041    373.17354   -332.43581 
   77400    228.33744    267.55558    141178.49   -38041.879    2708.9096   -40750.788    307.45063    434.38599    10.828614 
   77600    223.34207   -136.22625    141178.49   -38031.326    2649.6463   -40680.972   -156.53886    26.949551   -585.31395 
   77800    228.61961   -183.31208    141178.49   -38022.225    2712.2571   -40734.483   -210.64563   -427.60766    296.35039 
   78000    225.96873    348.79149    141178.49    -38029.45    2680.8081   -40710.258    400.79958    406.27332    388.00866 
   78200    227.34325    183.27964    141178.49   -38045.836    2697.1149   -40742.951    210.60836     234.8019    154.07302 
   78400    226.92138    48.907501    141178.49   -38074.427    2692.1099   -40766.537    56.200068    108.24403   -65.416063 
   78600    222.83561   -98.349994    141178.49    -38108.96    2643.6379   -40752.598    -113.0149    50.500871   -495.11799 
   78800    222.28855   -54.432073    141178.49   -38133.796    2637.1478   -40770.944   -62.548406   -130.60287    96.480994 
   79000    223.79536    253.32833    141178.49   -38150.479     2655.024   -40805.503    291.10196    406.51984    21.393962 
   79200    222.79549    100.65736    141178.49    -38161.54    2643.1619   -40804.702    115.66632   -12.974935    416.27475 
   79400    226.11497   -24.949747    141178.49   -38164.912     2682.543   -40847.455   -28.669989    131.13683   -402.10598 
   79600    223.76375   -68.712634    141178.49   -38161.357     2654.649   -40816.006   -78.958333   -90.071769   -52.988517 
   79800     225.0816    99.690628    141178.49   -38146.991    2670.2835   -40817.275    114.55544    43.684346    280.16677 
   80000    225.41356    112.57719    141178.49   -38128.844    2674.2217   -40803.066    129.36351    368.24627   -428.85683 
   80200    224.58866   -42.128884    141178.49   -38101.952    2664.4354   -40766.388   -48.410696    119.61643   -441.05588 
   80400    224.56423   -77.560405    141178.49   -38069.601    2664.1456   -40733.746    -89.12539    113.62163   -562.90391 
   80600    228.76795    116.60477    141178.49    -38028.81    2714.0169   -40742.827    133.99164    105.05332    201.61464 
   80800    228.41758     370.8491    141178.49   -38010.016    2709.8603   -40719.876    426.14618    711.49062   -240.64555 
   81000    228.64167    28.593251    141178.49   -38012.967    2712.5188   -40725.486    32.856773    173.63021   -296.10207 
   81200    222.05076    36.871078    141178.49   -38024.381    2634.3267   -40658.707    42.368902    170.75522   -257.64376 
   81400    227.49718    329.90833    141178.49   -38035.571     2698.941   -40734.512    379.10076    314.32243    530.47461 
   81600     226.0938    421.60574    141178.49   -38046.028    2682.2919   -40728.319    484.47111    638.65049    124.18544 
   81800    223.66829    135.18294    141178.49   -38061.723    2653.5165   -40715.239    155.33998    211.90737    23.153562 
   82000    224.28708    407.00672    141178.49   -38066.879    2660.8576   -40727.737    467.69525    468.77343    465.17589 
   82200    219.50607    257.24337    141178.49   -38080.062    2604.1375   -40684.199    295.60077    411.02516    25.877567 
   82400    220.41188   -163.64643    141178.49   -38093.848    2614.8837   -40708.731   -188.04764   -166.25103   -238.98193 
   82600    221.14742   -107.87058    141178.49   -38103.081    2623.6098   -40726.691   -123.95509   -175.26555   -4.0530366 
   82800    226.90944   -110.10478    141178.49   -38108.502    2691.9683    -40800.47   -126.52243   -111.48527   -161.66125 
   83000    225.58383   -121.51938    141178.49   -38116.315    2676.2418   -40792.557   -139.63906   -100.33331   -231.48865 
   83200    225.70231    492.49072    141178.49   -38133.496    2677.6474   -40811.143    565.92571    905.15845   -226.79198 
   83400    222.26066    38.839449    141178.49    -38154.65    2636.8169   -40791.466    44.630776     5.497676    136.07687 
   83600    222.52572    64.160855    141178.49   -38185.386    2639.9614   -40825.347    73.727841   -82.261329    438.24278 
   83800    224.09056     144.6483    141178.49   -38201.727    2658.5262   -40860.253    166.21672    356.17831   -277.68479 
   84000    219.74828    304.58485    141178.49   -38215.884     2607.011   -40822.895    350.00131    218.93218    656.28328 
   84200    220.00863    318.69672    141178.49   -38217.785    2610.0997   -40827.885     366.2174     489.1868    78.863044 
   84400    222.16124    120.47038    141178.49   -38208.605    2635.6375   -40844.242    138.43364    314.05459   -271.95671 
   84600    220.70295    -106.4287    141178.49   -38175.242    2618.3368   -40793.579   -122.29822    55.045579   -536.71459 
   84800    229.31847    47.338235    141178.49   -38127.896    2720.5482   -40848.444     54.39681    268.83457   -446.70055 
   85000    229.08624    139.23172    141178.49   -38107.585     2717.793   -40825.378    159.99248     442.9489     -501.219 
   85200    227.81423    35.010439    141178.49   -38096.007    2702.7024    -40798.71    40.230824     55.43827    4.6941321 
   85400    231.66162    252.82554    141178.49   -38099.956    2748.3463   -40848.302    290.52421    523.51829   -253.93543 
   85600    228.04015    382.60684    141178.49   -38116.756    2705.3825   -40822.138    439.65711    689.14606   -143.34762 
   85800    225.11108   -42.971676    141178.49   -38142.783    2670.6332   -40813.416   -49.379156    203.88689   -641.21035 
   86000    224.30038    93.533349    141178.49   -38162.926    2661.0154   -40823.941    107.48005    210.67863   -133.67398 
   86200     222.6176    130.97844    141178.49    -38176.02    2641.0515   -40817.071    150.50855    237.78525   -53.439284 
   86400      218.248    221.52947    141178.49    -38181.38    2589.2123   -40770.593    254.56159    382.37879   -44.121116 
   86600      223.384   -91.992042    141178.49   -38171.668    2650.1438   -40821.811   -105.70892   -9.5033491   -330.52177 
   86800    222.14076    23.541681    141178.49   -38142.535    2635.3944   -40777.929    27.051967    225.13435   -435.82622 
   87000    228.17545    123.72605    141178.49   -38099.661    2706.9877   -40806.649    142.17476    222.85309    -46.35403 
   87200    227.05819    45.547539    141178.49   -38071.841     2693.733   -40765.574    52.339105    304.37456    -536.6164 
   87400    222.88206    102.53319    141178.49   -38063.672     2644.189   -40707.861    117.82185    172.12341   -9.0698005 
   87600    226.36428    45.541252    141178.49   -38056.895    2685.5007   -40742.395     52.33188    189.95491    -269.2651 
   87800    224.56208   -234.39546    141178.49   -38055.274    2664.1201   -40719.394   -269.34603   -88.851358   -691.12538 
   88000    220.01427    -27.09261    141178.49   -38055.254    2610.1666   -40665.421   -31.132372    -164.4089    280.30773 
   88200    227.11003    61.963192    141178.49   -38049.125     2694.348   -40743.473    71.202486    337.11067   -550.17077 
   88400    223.02701   -79.990428    141178.49    -38053.57    2645.9085   -40699.479   -91.917752    70.136212   -470.60489 
   88600    224.14388    158.88981    141178.49   -38055.689    2659.1587   -40714.848    182.58177    269.59046    -20.73979 
   88800     228.1533    -48.93373    141178.49    -38052.15    2706.7249   -40758.875   -56.230208    68.963361    -348.7821 
   89000    223.71966   -12.325931    141178.49   -38053.465    2654.1259   -40707.591   -14.163843   -177.37097    367.21796 
   89200     221.7523    131.89993    141178.49   -38051.782    2630.7859   -40682.568    151.56744    149.03636    157.48211 
   89400    225.56848    138.30641    141178.49   -38046.288    2676.0596   -40722.347    158.92919    216.43871    24.541206 
   89600    224.54427    157.97897    141178.49   -38041.244    2663.9088   -40705.153    181.53511    372.40635   -264.49204 
   89800    226.31535    62.062568    141178.49   -38032.949    2684.9202   -40717.869     71.31668    330.60014   -534.57594 
   90000    225.00464   -104.20073    141178.49   -38028.127    2669.3704   -40697.498   -119.73803    36.741553   -485.39899 
   90200    222.46873    90.080599    141178.49    -38022.74    2639.2853   -40662.025    103.51246    204.63028   -132.77925 
   90400    224.83402   -31.343276    141178.49   -38020.648    2667.3463   -40687.994   -36.016853   -62.752234    26.458276 
   90600    224.37629   -235.24576    141178.49   -38020.333    2661.9159   -40682.249   -270.32311   -111.47898   -641.50957 
   90800     223.7959   -142.11272    141178.49     -38017.1    2655.0304   -40672.131   -163.30306   -182.27816   -118.96218 
   91000    223.07304    243.71594    141178.49   -38012.907    2646.4547   -40659.362    280.05627    521.79275   -284.83257 
   91200    226.03777   -152.96843    141178.49   -38007.943    2681.6271    -40689.57   -175.77745   -233.05862   -41.923074 
   91400    226.21897     45.17981    141178.49   -38000.503    2683.7768    -40684.28    51.916544    5.1288983    161.24976 
   91600    226.15693    16.866963    141178.49   -37991.554    2683.0407   -40674.594    19.381985    49.151484   -50.183267 
   91800    229.02799   -20.888196    141178.49   -37979.722    2717.1019   -40696.823   -24.002822   -175.81315      330.747 
   92000    225.45214    259.51297    141178.49   -37968.866    2674.6794   -40643.545    298.20879     250.5329    409.61771 
   92200    233.22669    59.702621    141178.49   -37962.371    2766.9138   -40729.285    68.604842   -58.596912    365.84946 
   92400     224.3472    28.021212    141178.49   -37971.078    2661.5708   -40632.648    32.199438   -62.505966    253.50669 
   92600    229.55651    151.33438    141178.49   -37985.301    2723.3721   -40708.673    173.89975    373.66045   -292.90027 
   92800    225.22564    151.16582    141178.49   -38008.637    2671.9923   -40680.629    173.70606     54.65437    451.90566 
   93000    223.42298    42.569617    141178.49   -38041.974    2650.6062    -40692.58    48.917147   -50.728053     281.7677 
   93200    222.89735    146.60294    141178.49   -38067.507    2644.3704   -40711.878    168.46282     152.2746    206.29143 
   93400    224.18715    320.45996    141178.49       -38086     2659.672   -40745.672    368.24355    120.15684    947.97178 
   93600    223.61892    12.960518    141178.49   -38095.342    2652.9308   -40748.273    14.893053    254.55688    -545.1525 
   93800     227.9028     83.59688    141178.49   -38097.101    2703.7532   -40800.854     96.06196    39.008505    229.38429 
   94000    223.32506      42.4969    141178.49   -38087.531    2649.4446   -40736.975    48.833586    205.66631   -317.65253 
   94200    222.83643   -325.35408    141178.49    -38071.49    2643.6476   -40715.138   -373.86743   -471.93984   -144.69228 
   94400    224.94973    86.202541    141178.49   -38040.237     2668.719   -40708.956    99.056149    291.46454   -350.56306 
   94600    226.51274    250.18338    141178.49    -38001.18    2687.2619   -40688.442    287.48807    431.20884   -48.358026 
   94800    229.16201    31.348726    141178.49   -37972.504    2718.6919   -40691.196    36.023116    195.44774   -336.51977 
   95000    225.10439    87.697239    141178.49   -37963.558    2670.5538   -40634.112    100.77372    166.61814    -53.09124 
   95200    228.46514    187.72541    141178.49   -37965.854    2710.4245   -40676.279    215.71703    396.96663   -207.82634 
   95400    224.49843    87.411193    141178.49   -37982.148     2663.365   -40645.513    100.44502    200.93135   -134.37104 
   95600     225.9989    325.14708    141178.49   -38006.242     2681.166   -40687.408    373.62956    377.40533    364.80645 
   95800    228.30419    192.96564    141178.49   -38031.396    2708.5151   -40739.911    221.73862    694.13932   -882.16555 
   96000    223.11345   -309.59477    141178.49   -38058.235    2646.9341    -40705.17   -355.75826   -412.25625   -223.73405 
   96200    219.75158    227.00432    141178.49   -38075.237    2607.0501   -40682.288     260.8528    260.38696    261.94145 
   96400    221.66737    259.50665    141178.49   -38082.619    2629.7783   -40712.397    298.20153    532.80865   -250.02745 
   96600    224.02373    353.14381    141178.49   -38090.864    2657.7333   -40748.597    405.80086    623.68999   -103.36155 
   96800    225.80808    83.375181    141178.49   -38093.272    2678.9022   -40772.174    95.807203    223.93489   -203.60108 
   97000    225.65162    270.31154    141178.49   -38081.642     2677.046   -40758.688    310.61752    189.18364    594.38386 
   97200    224.33699   -136.26836    141178.49   -38051.394    2661.4497   -40712.844   -156.58725    18.009123   -564.58346 
   97400    222.70531     22.06028    141178.49   -38008.169    2642.0921   -40650.261    25.349675   -38.837823    175.34279 
   97600    228.96501    232.19077    141178.49   -37978.194    2716.3548   -40694.549    266.81259    256.38519    291.17938 
   97800     225.8685    276.73114    141178.49   -37966.654     2679.619   -40646.273    317.99435    493.68852   -92.567078 
   98000    227.34186    17.196921    141178.49   -37965.732    2697.0983    -40662.83    19.761143   -47.172875    176.17232 
   98200    224.52982    188.61876    141178.49   -37966.015    2663.7373   -40629.753    216.74359      283.095    61.693912 
   98400    223.99958   -14.026926    141178.49   -37974.278    2657.4468   -40631.725   -16.118472    35.121217    -135.8552 
   98600     224.0267   -210.13675    141178.49   -37976.381    2657.7686    -40634.15   -241.47012   -350.95701    14.378396 
   98800    226.67323   -17.016989    141178.49   -37980.371    2689.1659   -40669.537   -19.554381   -45.172495    40.309928 
   99000    225.78129     313.8191    141178.49   -37984.458    2678.5844   -40663.042    360.61247     323.5824    447.14431 
   99200    222.13924    119.23723    141178.49   -38003.064    2635.3764    -40638.44    137.01662    282.32322   -202.53528 
   99400    224.99916    27.016469    141178.49   -38033.768    2669.3054   -40703.074    31.044878     -87.6328    308.37045 
   99600    220.78988    372.11985    141178.49     -38067.3    2619.3682   -40686.669    427.60641    475.93725    314.66719 
   99800    221.84989    377.41752    141178.49   -38092.848    2631.9437   -40724.791    433.69401    528.83518     211.3686 
  100000    223.56623    74.807369    141178.49   -38107.574    2652.3057    -40759.88     85.96185    32.522088    210.83972 
  100200    223.66303    170.27496    141178.49   -38113.639    2653.4541   -40767.093    195.66455    323.22863   -102.42667 
  100400    218.10709   -10.441698    141178.49   -38105.255    2587.5405   -40692.796   -11.998654   -28.622134    26.847031 
  100600    221.20826    247.19961    141178.49    -38077.86    2624.3316   -40702.192     284.0594    207.56791     462.8045 
  100800    222.58898    257.25764    141178.49   -38037.322    2640.7119   -40678.034    295.61717    330.10104    215.03546 
  101000    225.18846    286.56175    141178.49   -38010.943    2671.5513   -40682.494    329.29079     204.3135    621.33736 
  101200    225.27205    29.461981    141178.49   -37997.852    2672.5429   -40670.395    33.855038    187.76127   -325.79247 
  101400    223.49805    43.930661    141178.49   -37983.539    2651.4968   -40635.035    50.481135    118.13297   -107.60741 
  101600    227.80225    290.59777    141178.49   -37970.073    2702.5602   -40672.633    333.92862    375.92351     235.7952 
  101800    224.03999     64.27601    141178.49   -37955.157    2657.9262   -40613.083    73.860166    365.17318     -606.879 
  102000    228.32393    257.08879    141178.49   -37943.556    2708.7492   -40652.306    295.42315    229.37636    449.76112 
  102200    229.38963    247.77652    141178.49   -37936.822    2721.3924   -40658.215    284.72232    567.85341    -376.8973 
  102400    227.11419    271.98273    141178.49   -37933.497    2694.3973   -40627.894    312.53791    320.62214    293.64681 
  102600    226.28187   -66.686707    141178.49   -37941.967     2684.523    -40626.49   -76.630321    38.486761   -345.63552 
  102800    222.93908  -0.82446358    141178.49   -37956.745    2644.8654    -40601.61  -0.94739884    46.654473   -112.18328 
  103000    226.06145    -97.21331    141178.49   -37984.911     2681.908   -40666.819   -111.70873   -104.20513   -129.24313 
  103200    220.21622    111.69914    141178.49   -38015.852    2612.5624   -40628.415    128.35453    269.86984    -202.3379 
  103400    221.45858    94.869183    141178.49   -38041.231    2627.3013   -40668.532    109.01507    255.27339   -232.76081 
  103600    221.57507    205.49734    141178.49    -38051.87    2628.6833   -40680.553    236.13892    459.97873   -286.92907 
  103800    222.95496    -8.781635    141178.49   -38056.696    2645.0538    -40701.75   -10.091059    29.676671   -103.02015 
  104000    221.07061   -222.48241    141178.49   -38050.551    2622.6986    -40673.25   -255.65662    49.649779   -969.09558 
  104200    224.96811    21.904381    141178.49   -38024.587    2668.9371   -40693.524     25.17053    384.91947   -815.48948 
  104400    225.01412   -200.54811    141178.49    -37978.83    2669.4829   -40648.313   -230.45171   -259.47572   -162.62858 
  104600    226.08081    26.027151    141178.49   -37932.738    2682.1377   -40614.876    29.908043    119.95918   -180.52313 
  104800    225.04382   -268.99142    141178.49   -37914.335    2669.8353    -40584.17   -309.10057   -290.01276   -353.70496 
  105000    227.42286   -58.897017    141178.49   -37907.175    2698.0592   -40605.235   -67.679115     129.2076   -527.76329 
  105200    229.22138    274.41886    141178.49   -37901.788    2719.3962   -40621.184    315.33728    613.30222   -380.94599 
  105400    227.22702    220.03781    141178.49   -37901.368     2695.736   -40597.104    252.84751    472.63143    -260.7427 
  105600    226.71581   -114.17885    141178.49   -37908.401    2689.6711   -40598.072   -131.20399   -271.25392    196.06416 
  105800     225.2602    47.513902    141178.49   -37916.109    2672.4023   -40588.511    54.598671    14.124265    149.17913 
  106000    225.52773   -32.014749    141178.49     -37924.4    2675.5762   -40599.976   -36.788449    75.593236   -299.40157 
  106200    229.23499    -35.38255    141178.49   -37934.653    2719.5578   -40654.211    -40.65842   -226.59577    393.83928 
  106400    224.41524   -45.250801    141178.49   -37959.741    2662.3781   -40622.119    -51.99812    97.403105   -401.11837 
  106600     229.5667    416.01719    141178.49   -37992.812     2723.493   -40716.305    478.04926    506.65878    411.19478 
  106800    222.40133    4.5381245    141178.49   -38025.031    2638.4857   -40663.517    5.2148015    62.834653   -129.43106 
  107000    222.11188    -241.2733    141178.49   -38043.719    2635.0519   -40678.771   -277.24941   -195.92983   -467.27679 
  107200    225.93095   -31.341011    141178.49   -38051.772    2680.3599   -40732.132    -36.01425   -157.60851    248.12677 
  107400    220.92472   -31.106994    141178.49   -38052.787    2620.9678   -40673.755   -35.745339    79.122154   -304.16729 
  107600    220.63576    53.398758    141178.49    -38049.65    2617.5397    -40667.19    61.361014   -56.166764    335.99951 
  107800     225.7424    401.06245    141178.49   -38041.904    2678.1229   -40720.027    460.86462    709.78927   -120.82145 
  108000    224.91562    113.71665    141178.49   -38030.475    2668.3143    -40698.79    130.67287    87.038748    232.63697 
  108200    227.69352    21.520968    141178.49    -38006.13    2701.2703     -40707.4    24.729946    328.52001   -685.16556 
  108400    227.45219    34.432535    141178.49   -37965.427    2698.4073   -40663.834     39.56675    60.389726   -9.0922961 
  108600    229.39543    277.21246    141178.49    -37920.74    2721.4611   -40642.202    318.54745    289.40512    386.64721 
  108800    228.23243    30.709628    141178.49   -37897.099    2707.6637   -40604.762    35.288722    256.76443    -482.2549 
  109000    230.32822    116.45096    141178.49   -37895.801    2732.5274   -40628.328    133.81489    173.92167    40.093551 
  109200    227.36746    194.67853    141178.49   -37910.037     2697.402   -40607.439    223.70692    411.70885   -215.61524 
  109400    226.48758   -46.529975    141178.49   -37933.873    2686.9635   -40620.836   -53.468031     59.76418   -318.06866 
  109600    226.53961    106.73857    141178.49   -37951.012    2687.5808   -40638.592    122.65429    174.93574   0.48323958 
  109800    223.29427    -240.4041    141178.49   -37967.906    2649.0793   -40616.985   -276.25061    28.753169    -988.9824 
  110000    220.43778    127.18674    141178.49   -37985.629     2615.191    -40600.82    146.15147    370.60739   -378.35627 
  110200    224.65306   -202.96138    141178.49   -37996.927    2665.1995   -40662.126   -233.22483    99.710145   -1011.2261 
  110400    226.55819   -499.40449    141178.49   -38003.412    2687.8012   -40691.213   -573.87038   -513.90146   -714.00571 
  110600    225.01618   -471.59578    141178.49   -38002.333    2669.5074    -40671.84   -541.91514   -356.64288   -974.85882 
  110800    224.97319    248.97551    141178.49   -38006.194    2668.9973   -40675.191     286.1001    435.03618   -61.933126 
  111000    223.62908   -28.104056    141178.49   -38014.113    2653.0513   -40667.164   -32.294635     171.7374   -509.07596 
  111200    224.11653   -147.94498    141178.49    -38035.01    2658.8343   -40693.844   -170.00497    110.19807   -824.78245 
  111400    221.11935   -219.75231    141178.49   -38069.218    2623.2768   -40692.494   -252.51944   -259.24212   -236.80996 
  111600     223.5283   -123.45596    141178.49   -38101.837    2651.8557   -40753.692    -141.8644    89.168832   -681.74205 
  111800    224.40327   -112.26963    141178.49   -38118.927     2662.236   -40781.163   -129.01009    340.35623   -1225.8236 
  112000    222.04266    274.70735    141178.49   -38124.422    2634.2306   -40758.652    315.66879    534.78618   -196.36384 
  112200     223.7156   -52.519108    141178.49   -38108.563    2654.0778   -40762.641     -60.3502    64.511669   -352.12698 
  112400     219.3342   -220.75775    141178.49   -38081.078    2602.0985   -40683.176    -253.6748   -261.39798   -235.62737 
  112600    225.89425    150.92283    141178.49   -38047.519    2679.9244   -40727.443    173.42684    270.13306   -52.555847 
  112800    229.15823    193.21267    141178.49   -38025.821     2718.647   -40744.468    222.02249    458.47909   -330.52836 
  113000    220.62596    283.20832    141178.49   -38013.316    2617.4234   -40630.739    325.43734    309.51847     362.6366 
  113200    228.08743    8.1425997    141178.49   -38005.768    2705.9435   -40711.711    9.3567378    83.634408   -164.21505 
  113400    228.45906   -161.48193    141178.49   -37998.183    2710.3524   -40708.536    -185.5604   -108.66481   -365.24979 
  113600     223.7388   -132.16489    141178.49   -37987.891     2654.353   -40642.244   -151.87192     -316.125    231.95405 
  113800    224.07721    98.613871    141178.49   -37974.603    2658.3677   -40632.971    113.31812    213.92082   -121.76985 
  114000    227.09335    36.676199    141178.49   -37962.433    2694.1502   -40656.583    42.144965    140.95129   -188.74528 
  114200    227.97791    -191.3343    141178.49   -37956.521    2704.6442   -40661.166   -219.86404   -101.99817   -495.29263 
  114400    223.74072     159.0868    141178.49    -37952.36    2654.3758   -40606.736    182.80814    217.88823    100.83316 
  114600    227.32408    40.535964    141178.49   -37958.917    2696.8874   -40655.804    46.580257    41.189004    59.178528 
  114800    226.46753    137.24465    141178.49   -37976.586    2686.7256   -40663.312    157.70911    161.87963     147.9635 
  115000    227.09498    155.47336    141178.49   -38010.464    2694.1695   -40704.633    178.65589    203.56631    120.44537 
  115200    222.86894   -42.084809    141178.49   -38042.894    2644.0333   -40686.928   -48.360049    102.93251   -401.89996 
  115400    222.62335   -91.167772    141178.49   -38062.664    2641.1197   -40703.784   -104.76174   -237.74474    205.99241 
  115600    225.83329    16.708648    141178.49    -38063.85    2679.2013   -40743.051    19.200064    287.74878    -608.3436 
  115800    221.68902     120.8377    141178.49    -38059.81    2630.0352   -40689.846    138.85573    296.77028   -230.15836 
  116000    220.17571    52.172003    141178.49   -38042.249    2612.0818   -40654.331    59.951338    43.124063    99.273269 
  116200    223.15317   -177.03142    141178.49   -38009.643    2647.4053   -40657.049   -203.42847   -99.076984    -447.2767 
  116400    221.70245    81.507711    141178.49   -37972.246    2630.1945    -40602.44    93.661276    187.02836   -124.51856 
  116600    225.59944     78.02314    141178.49   -37953.686    2676.4269   -40630.113    89.657122    203.39318   -176.12087 
  116800    229.33244    110.35037    141178.49   -37945.469    2720.7138   -40666.183    126.80464    58.520784    286.37015 
  117000    229.51227    108.45833    141178.49   -37943.144    2722.8473   -40665.991    124.63049    139.05237    90.929505 
  117200    225.33341    54.653341    141178.49   -37949.672    2673.2709   -40622.942    62.802667    259.96796   -397.93245 
  117400    226.87822    174.97491    141178.49   -37957.909    2691.5979   -40649.507    201.06531    156.79412    304.51811 
  117600    222.92358   -146.53572    141178.49    -37964.87    2644.6816   -40609.551   -168.38557   -134.52472   -247.51155 
  117800    226.23833   -128.49685    141178.49   -37978.315    2684.0065   -40662.321   -147.65694   -180.74735   -70.331425 
  118000    220.38985   -124.20883    141178.49   -38006.086    2614.6224   -40620.708   -142.72953    91.623523   -690.36494 
  118200    220.69406    156.98345    141178.49   -38040.705    2618.2313   -40658.937    180.39116    271.71213     -33.0073 
  118400    221.29653   -16.017245    141178.49    -38075.95    2625.3788   -40701.328   -18.405567    158.65627   -432.16303 
  118600     223.6283   -170.43853    141178.49   -38095.558     2653.042     -40748.6   -195.85252     17.22738    -693.7769 
  118800    220.84372   -71.191499    141178.49   -38100.471    2620.0069   -40720.478    -81.80682    78.925285   -457.40504 
  119000    222.23941   -76.645705    141178.49    -38096.48    2636.5648   -40733.045   -88.074299    20.788699   -342.46498 
  119200    227.64581     103.2984    141178.49   -38091.426    2700.7044    -40792.13    118.70116    301.04868   -307.40784 
  119400    221.56359    327.38714    141178.49   -38080.945    2628.5472   -40709.492    376.20364    428.23874    254.60829 
  119600    224.93357     122.4204    141178.49    -38071.73    2668.5273   -40740.257    140.67443      190.657     23.87536 
  119800    221.16987   -215.13999    141178.49   -38064.639    2623.8761   -40688.515   -247.21939   -272.97531   -187.03311 
  120000    221.41664   -103.28194    141178.49   -38052.432    2626.8037   -40679.236   -118.68225   -416.84882    578.07228 
  120200      229.296   -29.839261    141178.49   -38024.694    2720.2815   -40744.975   -34.288575    175.92199   -525.50786 
  120400    225.13981    110.00711    141178.49   -37994.467    2670.9741   -40665.442    126.41021    68.609707    261.47823 
  120600    231.29321     81.75199    141178.49    -37969.56    2743.9757   -40713.536    93.941979    123.22709    25.508671 
  120800    227.63413    180.94666    141178.49   -37953.075    2700.5658    -40653.64    207.92751   -20.791995    742.39847 
[...]
 2470800    225.28231   -155.27938    141178.49   -37967.063    2672.6646   -40639.728     -178.433   -49.128281   -480.59183 
 2471000    227.27379    147.09387    141178.49   -37950.499    2696.2908    -40646.79    169.02695    418.36482   -413.62483 
 2471200    230.21249    120.09194    141178.49   -37944.666    2731.1545    -40675.82    137.99877    318.27892   -283.27917 
 2471400    229.64923    55.575371    141178.49   -37947.502    2724.4721   -40671.974     63.86218    372.89737   -658.29012 
 2471600    223.98063   -127.22389    141178.49    -37954.71     2657.222   -40611.932   -146.19417    56.675376   -620.25902 
 2471800    226.10107    225.50456    141178.49   -37965.563    2682.3781   -40647.941    259.12941    353.96162    37.525931 
 2472000    223.15472    46.351067    141178.49   -37971.813    2647.4237   -40619.237    53.262446    70.581379    12.791642 
 2472200    225.55483    134.14057    141178.49   -37977.273    2675.8977    -40653.17    154.14218    304.84638   -198.02279 
 2472400    230.63854    139.36804    141178.49   -37980.167    2736.2089   -40716.376    160.14912    252.46834   -55.582054 
 2472600    227.17933    51.135067    141178.49   -37987.782    2695.1702   -40682.952    58.759785     132.9737   -114.66301 
 2472800    224.84712   -233.58193    141178.49   -37991.338    2667.5017    -40658.84   -268.41118   -307.62777   -176.77009 
 2473000    223.40387   -52.643175    141178.49   -37991.635    2650.3795   -40642.014   -60.492767    14.422434   -235.55435 
 2473200    224.02155    298.21297    141178.49   -37989.289    2657.7074   -40646.996    342.67932    581.65398   -215.75571 
 2473400    223.45493    161.40137    141178.49   -37986.347    2650.9852   -40637.332    185.46783    116.35565    346.96898 
 2473600    226.61823    192.56431    141178.49   -37979.188    2688.5135   -40667.702    221.27745    604.27029   -673.69876 
 2473800    224.94255   -71.831985    141178.49   -37972.099    2668.6338   -40640.732   -82.542808    -1.655081   -271.56098 
 2474000    226.97877   -328.59022    141178.49   -37960.336    2692.7908   -40653.127    -377.5861   -253.85751   -666.71474 
 2474200    228.08339    98.998775    141178.49   -37939.923    2705.8956   -40645.819    113.76042     87.01937    176.24884 
 2474400    226.49026   -73.817693    141178.49   -37908.253    2686.9953   -40595.249   -84.824603    21.963926   -334.36767 
 2474600     228.9448   -114.80251    141178.49   -37865.446    2716.1151   -40581.561   -131.92064   -158.90465   -68.864546 
 2474800    231.14416    18.959844    141178.49   -37836.622    2742.2075   -40578.829    21.786934    430.27583   -932.76842 
 2475000    234.02655   -4.8303851    141178.49   -37825.761     2776.403   -40602.164   -5.5506409    53.022393   -142.42389 
 2475200    232.03859   -270.35291    141178.49   -37837.642    2752.8185   -40590.461   -310.66506   -23.162706   -982.49961 
 2475400    228.39185   -204.15543    141178.49   -37868.323     2709.555   -40577.878   -234.59692   -376.80244    97.708363 
 2475600    227.41121    277.34703    141178.49    -37900.91    2697.9211   -40598.831    318.70207    313.78629    330.18933 
 2475800    227.81859    94.295448    141178.49   -37927.514    2702.7541   -40630.269    108.35578    284.42838   -303.08998 
 2476000    226.34254   -40.293045    141178.49   -37945.837    2685.2428    -40631.08   -46.301117   -45.624605      -47.882 
 2476200    225.05468   -219.01897    141178.49   -37960.894    2669.9641   -40630.858   -251.67675   -134.26629   -526.04118 
 2476400    227.27032   -108.55481    141178.49   -37976.791    2696.2497   -40673.041   -124.74135   -157.00454   -49.348885 
 2476600     227.5644    54.992314    141178.49    -37990.52    2699.7385   -40690.259    63.192185    269.43121    -418.7464 
 2476800    219.94323    90.690767    141178.49    -38004.97    2609.3238   -40614.294    104.21361    353.45881   -478.22163 
 2477000    227.63229    190.09089    141178.49   -38014.898    2700.5439   -40715.441    218.43523    304.68494    16.887263 
 2477200    223.28742   -51.057934    141178.49   -38027.857     2648.998   -40676.855   -58.671151   -28.277767   -129.69432 
 2477400    223.81987    15.345884    141178.49   -38045.789    2655.3148   -40701.104    17.634099    249.67716   -524.60328 
 2477600      222.571    184.00443    141178.49   -38059.211    2640.4987   -40699.709    211.44122    251.70122    117.36185 
 2477800    222.60379    146.40101    141178.49   -38084.033    2640.8877   -40724.921    168.23077    377.56201   -320.93366 
 2478000    227.91063   -68.644157    141178.49   -38112.284     2703.846    -40816.13   -78.879645   -61.588321   -119.28597 
 2478200    223.71636    377.85964    141178.49   -38147.128    2654.0868   -40801.215    434.20206    642.27689   -52.026314 
 2478400    217.26137     406.5299    141178.49   -38168.364    2577.5072   -40745.872    467.14732    752.67287   -200.06761 
 2478600    221.64481    290.39229    141178.49   -38180.365    2629.5107   -40809.875    333.69251    335.16152    330.25983 
 2478800    218.30212    49.248294    141178.49   -38172.347    2589.8543   -40762.201    56.591677   -79.518398    374.65322 
 2479000    220.63234    253.30418    141178.49   -38153.896    2617.4991   -40771.395    291.07421    198.31674     507.8296 
 2479200    223.29352    314.86383    141178.49   -38138.048    2649.0703   -40787.119    361.81298    384.86893    307.93601 
 2479400    221.01837    133.89822    141178.49   -38117.229    2622.0789   -40739.307     153.8637    457.78178    -556.3309 
 2479600    220.70204    148.27886    141178.49   -38101.487    2618.3261   -40719.813    170.38863    150.12833    217.73287 
 2479800    229.47028     311.8742    141178.49   -38085.361    2722.3491    -40807.71    358.37757    436.86297    174.97328 
 2480000    228.74658    146.33877    141178.49   -38076.434    2713.7634   -40790.198    168.15926    286.05607   -107.34153 
 2480200    222.03129    347.11491    141178.49   -38078.281    2634.0958   -40712.377      398.873    498.07593    167.05607 
 2480400    223.54019    108.50325    141178.49   -38079.904    2651.9967   -40731.901    124.68211    327.14019   -348.42117 
 2480600    223.47211    288.60066    141178.49   -38074.443    2651.1891   -40725.632    331.63373    334.83162    324.16098 
 2480800    226.74228    109.27768    141178.49   -38064.666    2689.9852   -40754.651    125.57201    154.77859    57.322197 
 2481000    225.55087   -110.01236    141178.49    -38041.01    2675.8507    -40716.86   -126.41623    181.66136   -846.33086 
 2481200    227.37757   -22.153243    141178.49   -38008.114     2697.522   -40705.636   -25.456499   -80.111334    102.26071 
 2481400    227.82459    29.498577    141178.49   -37976.697    2702.8252   -40679.522    33.897091    124.30885   -177.37677 
 2481600    227.08876    161.91195    141178.49   -37960.203    2694.0957   -40654.298    186.05454    274.83426   -21.405543 
 2481800    226.57872    205.95391    141178.49   -37950.816    2688.0447   -40638.861    236.66357    432.06794   -219.95657 
 2482000    223.01418    278.75255    141178.49   -37954.858    2645.7564   -40600.614    320.31717    357.52517    233.36975 
 2482200    225.63192    188.86187    141178.49   -37972.273    2676.8123   -40649.086    217.02294    421.26692   -260.25357 
 2482400    222.60867    100.02266    141178.49   -37989.928    2640.9456   -40630.873    114.93698     331.2094   -390.44761 
 2482600    224.02056      392.595    141178.49   -38010.276    2657.6957   -40667.972    451.13459    692.49954     -112.886 
 2482800    223.39034    67.268039    141178.49   -38034.516    2650.2189   -40684.735    77.298335    101.89982    19.809699 
 2483000    225.59953    151.72821    141178.49   -38075.545     2676.428   -40751.973    174.35231    207.13744    97.740169 
 2483200    220.65046    159.64529    141178.49   -38131.976     2617.714    -40749.69     183.4499    316.95387   -128.52165 
 2483400     220.3324    229.18716    141178.49   -38155.107    2613.9407   -40769.048    263.36111    443.85289   -158.41134 
 2483600    221.65524    214.32049    141178.49   -38154.988    2629.6345   -40784.623    246.27769    316.97522    81.072036 
 2483800     220.3958    143.37205    141178.49   -38142.397    2614.6928    -40757.09    164.75017    251.81504   -38.702655 
 2484000    220.24819   -7.4888892    141178.49   -38118.856    2612.9417   -40731.798   -8.6055529    170.98218   -428.26552 
 2484200    218.85868     149.0803    141178.49   -38089.586    2596.4571   -40686.044    171.30957    391.09539   -342.28509 
 2484400    222.15872   -99.318004    141178.49   -38058.453    2635.6076    -40694.06   -114.12725    -162.7086  -0.60256723 
 2484600    224.86508    167.61602    141178.49   -38034.611    2667.7148   -40702.326    192.60914    451.61193    -412.6276 
 2484800    225.31349    122.49663    141178.49   -38021.176    2673.0345    -40694.21    140.76202    83.913252    273.60606 
 2485000    224.36154   -223.51018    141178.49   -38009.221     2661.741   -40670.962   -256.83764   -187.57417   -418.69234 
 2485200    227.22049    250.67831    141178.49   -38003.304    2695.6584   -40698.963     288.0568    372.79535    90.040151 
 2485400    224.60063    138.93872    141178.49   -38001.288    2664.5775   -40665.866    159.65579    240.87081   -30.127117 
 2485600    226.23329    161.21125    141178.49    -38000.57    2683.9466   -40684.516    185.24936    141.37592    287.77269 
 2485800    226.56391   -88.539256    141178.49   -38000.187     2687.869   -40688.056   -101.74129   -248.89549    242.12808 
 2486000    220.90168    111.99632    141178.49   -38004.085    2620.6945    -40624.78    128.69602    373.08159   -442.38326 
 2486200    231.89077    188.07573    141178.49   -38008.619    2751.0649   -40759.684    216.11959    389.03941   -187.95876 
 2486400    224.65169    374.83667    141178.49   -38021.474    2665.1832   -40686.657    430.72834    510.38614    244.58438 
 2486600    223.63543    19.913424    141178.49    -38034.99    2653.1267   -40688.117    22.882702    60.947643   -66.067306 
 2486800    227.56604    152.55447    141178.49   -38056.077     2699.758   -40755.835    175.30177     526.4363   -645.22806 
 2487000    224.59365    258.05906    141178.49   -38077.467    2664.4946   -40741.962    296.53809    297.05678    295.32609 
 2487200     222.5378    238.34866    141178.49   -38088.571    2640.1048   -40728.675    273.88869    508.57776    -274.5318 
 2487400     224.0618    234.46353    141178.49   -38088.142     2658.185   -40746.327    269.42424    447.18913   -145.97603 
 2487600    218.18402    90.503742    141178.49   -38076.242    2588.4532   -40664.695     103.9987      240.001   -213.81094 
 2487800    220.43535   -60.172159    141178.49    -38044.36    2615.1621   -40659.523   -69.144392   -115.88282    40.073784 
 2488000    230.72942   -32.673494    141178.49   -38008.846    2737.2871   -40746.133   -37.545419   -4.3992281   -115.00133 
 2488200    226.81116    152.32644    141178.49   -37982.756    2690.8024   -40673.559    175.03974    257.11639   -16.756628 
 2488400    229.28282    93.281476    141178.49   -37967.514    2720.1252   -40687.639    107.19062    222.26807   -161.72192 
 2488600    225.78622   -69.253604    141178.49   -37965.366    2678.6428   -40644.009   -79.579966    238.58531   -823.06744 
 2488800    230.26685   -237.97247    141178.49   -37964.556    2731.7993   -40696.356    -273.4564   -551.30141    375.81072 
 2489000    224.14272   -302.15269    141178.49   -37964.626     2659.145   -40623.771   -347.20649   -498.31707     5.908058 
 2489200    224.79601     119.0535    141178.49   -37967.985    2666.8954   -40634.881     136.8055    322.96049   -298.20078 
 2489400    223.19198    135.55592    141178.49   -37972.998    2647.8657   -40620.864    155.76858    178.44145    102.78675 
 2489600     220.4822    45.095674    141178.49   -37973.577    2615.7179   -40589.295    51.819863    144.89594   -165.67996 
 2489800    227.28151    347.11752    141178.49   -37981.769    2696.3824   -40678.152    398.87601    294.92474    641.78906 
 2490000    218.98546    195.39521    141178.49   -37988.678    2597.9612   -40586.639    224.53047    143.33619    414.26505 
 2490200    225.17668   -159.59783    141178.49    -38006.11    2671.4115   -40677.521   -183.39537    19.026528   -656.41416 
 2490400     218.2051   -18.885836    141178.49   -38013.663    2588.7033   -40602.366   -21.701891    17.670396   -113.70691 
 2490600     222.0605     233.1628    141178.49    -38017.74    2634.4422   -40652.182    267.92956     413.7841   -72.902707 
 2490800     223.2698    8.7413619    141178.49    -38015.75     2648.789   -40664.539    10.044781    155.06641   -328.84124 
 2491000    224.05407     102.4898    141178.49   -37998.258    2658.0932   -40656.351    117.77199   -29.869399    462.77989 
 2491200    221.64924    38.846617    141178.49   -37975.266    2629.5633   -40604.829    44.639013    302.09928    -556.9932 
 2491400    227.87025    63.932062    141178.49   -37944.978    2703.3669   -40648.345    73.464933   -83.601097    440.49628 
 2491600     226.6949    -123.2509    141178.49   -37927.883     2689.423   -40617.306   -141.62876    207.13208   -956.61186 
 2491800    231.11968    230.46975    141178.49   -37910.271     2741.917   -40652.188    264.83495    186.80794    447.16825 
 2492000    223.54093    102.08502    141178.49   -37912.667    2652.0055   -40564.672    117.30686    172.81037   -12.393502 
 2492200    226.31465    390.47826    141178.49   -37924.182     2684.912   -40609.094    448.70224    289.95213    819.66904 
 2492400    220.30279   -102.37619    141178.49   -37945.949    2613.5894   -40559.539   -117.64145     179.7331   -812.54523 
 2492600    223.86108    147.37441    141178.49   -37978.001    2655.8036   -40633.805    169.34931    262.22909   -47.691771 
 2492800    223.73139     321.6981    141178.49   -38003.827    2654.2651   -40658.092    369.66631    221.37894     716.1838 
 2493000    222.19332    -298.9076    141178.49   -38023.652     2636.018    -40659.67   -343.47753   -429.38727   -142.72406 
 2493200    221.24552   -106.11183    141178.49   -38021.989    2624.7737   -40646.763    -121.9341   -307.42216    311.51369 
 2493400    225.83138    364.40836    141178.49   -38016.028    2679.1786   -40695.207    418.74506      360.342    555.22124 
 2493600    221.32637    272.91077    141178.49   -38009.591    2625.7329   -40635.324    313.60433    390.07534    134.90723 
 2493800    226.21465    288.16217    141178.49    -38004.66    2683.7256   -40688.385    331.12985    411.04686    144.38018 
 2494000     226.6605   -164.30609    141178.49   -37998.409     2689.015   -40687.424   -188.80567     143.4559   -965.23335 
 2494200    222.69027    233.38136    141178.49   -37985.267    2641.9136   -40627.181    268.18071    287.29869    223.50596 
 2494400    225.11783    52.731244    141178.49   -37965.387    2670.7133     -40636.1    60.593968    145.28176   -137.30414 
 2494600    225.26112    139.48709    141178.49   -37934.833    2672.4133   -40607.246    160.28593    77.168502    354.51447 
 2494800    226.20456   -19.470736    141178.49   -37906.729    2683.6059   -40590.335   -22.374006    173.84654   -480.90146 
 2495000    228.27705   -215.38624    141178.49   -37889.685    2708.1931   -40597.878   -247.50235   -91.137547   -612.89514 
 2495200    226.44981   -225.59709    141178.49    -37879.76    2686.5154   -40566.276   -259.23573   -320.22145    -116.7246 
 2495400    222.70158   -32.132915    141178.49   -37873.494    2642.0478   -40515.542   -36.924234   -47.299007   -12.680511 
 2495600    222.68113   -110.84019    141178.49   -37871.882    2641.8052   -40513.687    -127.3675   -83.258349   -230.44163 
 2495800    227.19232   -34.956836    141178.49   -37869.221    2695.3242   -40564.545   -40.169228   -12.545869    -104.7194 
 2496000      227.751   -63.645811    141178.49   -37870.966    2701.9522   -40572.918   -73.135999    62.149266   -389.27013 
 2496200    222.16379    62.911317    141178.49   -37875.958    2635.6677   -40511.626    72.291985    73.428367    69.636513 
 2496400     224.6787   -285.01304    141178.49   -37885.141    2665.5036   -40550.645   -327.51116   -209.88873   -602.37091 
 2496600    229.16129   -113.58201    141178.49   -37893.472    2718.6833   -40612.156   -130.51815   -191.94317    13.019561 
 2496800    227.49918   -99.860902    141178.49   -37908.006    2698.9647   -40606.971    -114.7511   -386.18494    519.53448 
 2497000    230.89547   -367.67343    141178.49   -37924.097    2739.2571   -40663.354   -422.49699   -134.44028    -1095.627 
 2497200    225.73007   -23.689388    141178.49   -37937.223    2677.9766     -40615.2   -27.221699    275.02507   -733.51086 
 2497400    224.06449    2.0271086    141178.49   -37945.249    2658.2169   -40603.466    2.3293695    111.88977   -253.69096 
 2497600    227.11378   -278.03464    141178.49   -37951.129    2694.3924   -40645.521   -319.49221   -258.81681   -461.27835 
 2497800    226.47781   -190.03245    141178.49   -37954.656    2686.8476   -40641.504   -218.36808   -267.09707    -104.4984 
 2498000    224.39202   -85.317526    141178.49   -37958.361    2662.1025   -40620.464    -98.03917   -164.58179    57.457348 
 2498200    225.33275    63.007589    141178.49   -37964.089     2673.263   -40637.352    72.402612    223.76308   -281.29597 
 2498400    225.88105   -32.368734    141178.49     -37969.4    2679.7679   -40649.167   -37.195216    183.05672   -551.87915 
 2498600     225.1829    54.663058    141178.49   -37979.829    2671.4852   -40651.314    62.813834    278.54534   -441.30675 
 2498800    227.61636    -3.368727    141178.49   -37991.239     2700.355   -40691.594   -3.8710358    77.689757     -194.462 
 2499000     226.5715    18.850862    141178.49    -38009.83    2687.9591   -40697.789    21.661702     51.48405   -48.027045 
 2499200    219.38611    152.55388    141178.49   -38034.498    2602.7144   -40637.212    175.30109    189.76913    141.49226 
 2499400    218.59315    85.598891    141178.49   -38066.081    2593.3069   -40659.388    98.362489    277.19651   -319.53618 
 2499600    218.75363    388.21743    141178.49    -38097.14    2595.2109   -40692.351    446.10429     559.8267    180.35828 
 2499800    217.52044    4.8629328    141178.49   -38117.512    2580.5807   -40698.093    5.5880418    28.121816   -47.068797 
 2500000    221.34984     36.73228    141178.49   -38123.863    2626.0113   -40749.874    42.209408    112.75984   -122.65256 
Loop time of 2445.49 on 6 procs for 2500000 steps with 3981 atoms

Performance: 176.652 ns/day, 0.136 hours/ns, 1022.289 timesteps/s
99.4% CPU use with 6 MPI tasks x no OpenMP threads

MPI task timing breakdown:
Section |  min time  |  avg time  |  max time  |%varavg| %total
---------------------------------------------------------------
Pair    | 1264       | 1776       | 2040.2     | 857.6 | 72.62
Neigh   | 36.535     | 49.848     | 56.61      | 132.5 |  2.04
Comm    | 207.81     | 478.03     | 1001.2     |1690.4 | 19.55
Output  | 59.668     | 59.687     | 59.764     |   0.5 |  2.44
Modify  | 64.927     | 68.102     | 70.083     |  25.5 |  2.78
Other   |            | 13.79      |            |       |  0.56

Nlocal:        663.500 ave         754 max         486 min
Histogram: 2 0 0 0 0 0 0 0 0 4
Nghost:        1189.67 ave        1271 max        1036 min
Histogram: 2 0 0 0 0 0 0 0 0 4
Neighs:        0.00000 ave           0 max           0 min
Histogram: 6 0 0 0 0 0 0 0 0 0
FullNghs:      18414.0 ave       21245 max       13256 min
Histogram: 2 0 0 0 0 0 0 0 0 4

Total # of neighbors = 110484
Ave neighs/atom = 27.752826
Neighbor list builds = 57330
Dangerous builds = 0
write_data 		data.${NAME}_run
write_data 		data.15A_cavity_run10_run
System init for write_data ...
Total wall time: 0:40:45
