
### Dimensions ###


### IMPORT ATOMS ###
read_data ../Box_Setup/data.Ibeam_240K
  orthogonal box = (0 0 0) to (68.908 85.8483 27.9754)
  4 by 8 by 2 MPI processor grid
  reading atoms ...
  8493 atoms
  reading velocities ...
  8493 velocities
group water type 2
1689 atoms in group water
group graphite type 1
6804 atoms in group graphite


# Define potential
#
pair_style          sw
pair_coeff * * MLC_e.sw C mW

# Add velocity/set timestep
#

fix		1 graphite setforce 0.0 0.0 0.0
velocity 	graphite set 0.0 0.0 0.0
velocity            water create ${START_TEMP} ${SEED} rot yes dist gaussian
velocity            water create 240 ${SEED} rot yes dist gaussian
velocity            water create 240 20959 rot yes dist gaussian
timestep            5.0

# Define output
#
compute 1 water msd
compute 2 water temp


thermo	            100
thermo_style custom step c_2 press vol etotal ke pe c_1[4] density

# Neighbor lists
#
neigh_modify        delay 0 every 1 check yes


# Set fixes
#
fix                 2 water momentum 10 linear 1 1 1 rescale
fix                 3 all nve
fix                 4 water temp/csvr ${START_TEMP} ${START_TEMP} 500.0 928347
fix                 4 water temp/csvr 240 ${START_TEMP} 500.0 928347
fix                 4 water temp/csvr 240 240 500.0 928347

# Run 0.05 ns equilibration
#
dump                1 all custom 100 ${DIR}/eq.${NAME}.dump id type x y z vx vy vz
dump                1 all custom 100 run_19/eq.${NAME}.dump id type x y z vx vy vz
dump                1 all custom 100 run_19/eq.ibeam_cooling_19.dump id type x y z vx vy vz
run                 10000
Neighbor list info ...
  update every 1 steps, delay 0 steps, check yes
  max neighbors/atom: 2000, page size: 100000
  master list distance cutoff = 6.67472
  ghost atom cutoff = 6.67472
  binsize = 3.33736, bins = 21 26 9
  1 neighbor lists, perpetual/occasional/extra = 1 0 0
  (1) pair sw, perpetual
      attributes: full, newton on
      pair build: full/bin/atomonly
      stencil: full/bin/3d
      bin: standard
Per MPI rank memory allocation (min/avg/max) = 3.384 | 4.425 | 4.753 Mbytes
Step c_2 Press Volume TotEng KinEng PotEng c_1[4] Density 
       0          240   -298.97748    165492.15   -16025.669    1207.5858   -17233.255            0    1.1252403 
     100    239.82293   -498.24939    165492.15   -15994.418    1206.6948   -17201.113   0.88496672    1.1252403 
     200    244.50521   -390.15504    165492.15   -16041.636    1230.2542    -17271.89    1.4004265    1.1252403 
     300    247.13394   -558.44365    165492.15   -16046.364     1243.481   -17289.845    2.0148016    1.1252403 
     400    238.40789   -509.65222    165492.15   -16049.593    1199.5749   -17249.168    2.6140047    1.1252403 
     500     239.6754   -431.55139    165492.15   -16058.619    1205.9525   -17264.572    2.9260841    1.1252403 
     600    236.39103   -566.64935    165492.15   -16147.434    1189.4269   -17336.861    3.2479219    1.1252403 
     700    237.70398   -504.34429    165492.15   -16124.732    1196.0331   -17320.765     3.420766    1.1252403 
     800    242.76281   -401.87277    165492.15   -16166.655    1221.4871   -17388.142    3.7377091    1.1252403 
     900     240.4822   -452.04801    165492.15   -16124.834     1210.012   -17334.846    4.1545167    1.1252403 
    1000      237.201   -583.14878    165492.15   -16078.644    1193.5023   -17272.146    4.6865534    1.1252403 
    1100    233.63355   -508.62849    165492.15   -16095.696    1175.5523   -17271.248    5.0569978    1.1252403 
    1200    235.53462   -514.11534    165492.15   -16135.502    1185.1177    -17320.62     5.341309    1.1252403 
    1300    237.45259   -326.26593    165492.15   -16095.029    1194.7682   -17289.797    5.9239855    1.1252403 
    1400    240.24486   -632.64378    165492.15   -16028.383    1208.8178     -17237.2    6.2554482    1.1252403 
    1500    238.78354   -527.98975    165492.15   -16038.993     1201.465   -17240.458    6.5275013    1.1252403 
    1600    244.08528   -287.35542    165492.15   -16023.397    1228.1413   -17251.538    6.8631086    1.1252403 
    1700    237.02374   -437.91897    165492.15    -16037.27    1192.6104    -17229.88    6.9350097    1.1252403 
    1800    239.78384    -651.7147    165492.15   -16041.781    1206.4981   -17248.279    7.0867505    1.1252403 
    1900     246.7719   -366.63382    165492.15   -15962.477    1241.6593   -17204.137    7.4249087    1.1252403 
    2000    251.54178   -490.27909    165492.15   -15940.546    1265.6595   -17206.206    7.9157429    1.1252403 
    2100    245.40185   -548.68799    165492.15    -15942.01    1234.7658   -17176.776    8.4661237    1.1252403 
    2200    249.04718   -487.53043    165492.15   -15939.683    1253.1076   -17192.791    9.1519209    1.1252403 
    2300    243.84121   -787.79478    165492.15   -15983.351    1226.9132   -17210.264    9.7441806    1.1252403 
    2400    246.59302   -457.02176    165492.15   -15990.138    1240.7593   -17230.897    10.273455    1.1252403 
    2500    244.55178   -496.64128    165492.15   -15990.281    1230.4885   -17220.769    10.766964    1.1252403 
    2600    232.76637   -727.07732    165492.15   -16023.501     1171.189    -17194.69    11.121486    1.1252403 
    2700    234.08175    -467.5901    165492.15   -15982.183    1177.8075   -17159.991    11.253745    1.1252403 
    2800    246.78923     -405.351    165492.15   -16003.122    1241.7465   -17244.868    11.443265    1.1252403 
    2900    242.13631   -366.37113    165492.15   -16067.917    1218.3349   -17286.252    11.930742    1.1252403 
    3000    235.35285   -532.09759    165492.15   -16090.512    1184.2031   -17274.715    12.640268    1.1252403 
    3100    237.79111   -459.12815    165492.15   -16081.937    1196.4715   -17278.409    13.051053    1.1252403 
    3200     234.5322   -433.68644    165492.15   -16098.148    1180.0739   -17278.222    13.637921    1.1252403 
    3300    235.44917   -708.30792    165492.15   -16064.466    1184.6878   -17249.154    14.385751    1.1252403 
    3400    240.28457   -543.51309    165492.15   -16069.108    1209.0176   -17278.126    15.090468    1.1252403 
    3500    236.16389   -444.72272    165492.15   -16064.488     1188.284   -17252.772    15.595227    1.1252403 
    3600    234.34079   -449.52444    165492.15   -16057.488    1179.1108   -17236.599    15.822882    1.1252403 
    3700    233.45124   -714.01935    165492.15   -16082.467     1174.635   -17257.102    16.019216    1.1252403 
    3800    245.03927   -627.88073    165492.15   -16075.378    1232.9414   -17308.319    16.255788    1.1252403 
    3900    239.22647   -377.41632    165492.15   -16087.576    1203.6937   -17291.269    16.220402    1.1252403 
    4000    237.25901   -510.18074    165492.15   -16109.008    1193.7942   -17302.802    16.276667    1.1252403 
    4100    238.61036   -523.42771    165492.15   -16067.299    1200.5937   -17267.893    16.576228    1.1252403 
    4200    239.12696    -237.5838    165492.15   -16043.544     1203.193   -17246.737    17.311458    1.1252403 
    4300    250.06682   -672.16645    165492.15   -15966.038    1258.2381   -17224.276    17.830423    1.1252403 
    4400    247.91706   -391.26124    165492.15   -15981.966    1247.4213   -17229.387    18.222789    1.1252403 
    4500    238.88287   -427.75215    165492.15   -16034.956    1201.9648    -17236.92    18.457294    1.1252403 
    4600    241.94652   -358.83489    165492.15   -16066.295    1217.3799   -17283.675    19.030541    1.1252403 
    4700     240.6406   -487.90534    165492.15    -16079.71     1210.809   -17290.519    19.314105    1.1252403 
    4800    233.12246   -410.01325    165492.15   -16046.333    1172.9807   -17219.314    19.758155    1.1252403 
    4900    244.38436   -711.07542    165492.15   -16067.898    1229.6461   -17297.545    20.407471    1.1252403 
    5000    241.84793    -379.4262    165492.15   -16106.054    1216.8838   -17322.938    20.837352    1.1252403 
    5100    233.47135   -519.25544    165492.15   -16126.743    1174.7362   -17301.479    21.475873    1.1252403 
    5200    231.89357   -525.45146    165492.15   -16087.125    1166.7974   -17253.922    21.769736    1.1252403 
    5300    234.08846   -381.62004    165492.15   -16132.122    1177.8412   -17309.963    22.294092    1.1252403 
    5400    245.00046   -535.54297    165492.15   -16093.084    1232.7461    -17325.83     22.71798    1.1252403 
    5500    237.36117   -356.89648    165492.15   -16121.693    1194.3082   -17316.001    22.777734    1.1252403 
    5600     242.2159   -453.82177    165492.15   -16133.205    1218.7353    -17351.94    22.875072    1.1252403 
    5700      237.634   -271.83076    165492.15   -16108.077     1195.681   -17303.758    23.086274    1.1252403 
    5800    248.58311   -617.34709    165492.15   -16042.424    1250.7726   -17293.196    23.590415    1.1252403 
    5900    240.80599   -433.75119    165492.15   -16073.915    1211.6412   -17285.556    23.671609    1.1252403 
    6000    231.30468   -484.39666    165492.15   -16153.159    1163.8343   -17316.993     24.03477    1.1252403 
    6100    240.06951   -550.43877    165492.15   -16148.789    1207.9355   -17356.724    24.269918    1.1252403 
    6200    239.70584   -591.16224    165492.15   -16118.486    1206.1057   -17324.592     24.73695    1.1252403 
    6300    237.01478   -361.91403    165492.15   -16083.134    1192.5653   -17275.699    25.221139    1.1252403 
    6400    237.14231   -464.58969    165492.15    -16072.29     1193.207   -17265.497    25.998264    1.1252403 
    6500     237.0174   -412.98854    165492.15   -16089.023    1192.5785   -17281.602     26.63798    1.1252403 
    6600    239.79555   -349.51834    165492.15   -16140.648     1206.557   -17347.205    26.988422    1.1252403 
    6700    227.69484   -335.06229    165492.15   -16184.477     1145.671   -17330.148    27.379023    1.1252403 
    6800    239.63533   -474.67272    165492.15   -16153.507    1205.7509   -17359.258    28.009222    1.1252403 
    6900    232.20758   -309.87809    165492.15   -16188.638    1168.3774   -17357.015    28.475808    1.1252403 
    7000    237.58067   -348.57221    165492.15   -16189.672    1195.4126   -17385.085    28.755732    1.1252403 
    7100    242.21724   -479.62739    165492.15   -16132.464     1218.742   -17351.206    28.714448    1.1252403 
    7200    238.70579   -452.85731    165492.15   -16133.031    1201.0738   -17334.104    28.982568    1.1252403 
    7300    231.03849   -429.50825    165492.15   -16174.229     1162.495   -17336.724    28.618768    1.1252403 
    7400    234.47194   -466.71298    165492.15   -16160.529    1179.7707   -17340.299    28.527151    1.1252403 
    7500    235.95213   -455.61158    165492.15   -16169.588    1187.2185   -17356.806    28.790334    1.1252403 
    7600    235.90202   -377.39793    165492.15    -16185.73    1186.9663   -17372.697    28.624549    1.1252403 
    7700    229.69363    -506.0554    165492.15   -16157.645    1155.7282   -17313.373    28.683573    1.1252403 
    7800    236.03534   -378.41729    165492.15   -16105.994    1187.6372   -17293.631    29.052426    1.1252403 
    7900    237.07094   -503.02432    165492.15   -16090.412    1192.8479    -17283.26     29.87566    1.1252403 
    8000    241.16384   -565.92635    165492.15   -16075.016    1213.4418   -17288.458     30.10546    1.1252403 
    8100    238.70323   -591.00673    165492.15   -16102.842    1201.0609   -17303.903    30.434536    1.1252403 
    8200    238.04726   -557.65379    165492.15   -16128.999    1197.7603    -17326.76    31.018544    1.1252403 
    8300    232.69551   -433.21751    165492.15   -16138.361    1170.8325   -17309.193    31.413833    1.1252403 
    8400    237.88492   -403.58118    165492.15   -16126.631    1196.9435   -17323.575    31.627566    1.1252403 
    8500    235.73061   -495.07307    165492.15   -16159.674    1186.1039   -17345.778    31.818379    1.1252403 
    8600     241.1087   -422.12368    165492.15   -16105.901    1213.1643   -17319.066    32.161666    1.1252403 
    8700    235.63513     -453.603    165492.15   -16168.611    1185.6235   -17354.234    32.877652    1.1252403 
    8800    230.61419   -458.82416    165492.15   -16113.591      1160.36   -17273.951    33.419833    1.1252403 
    8900    230.10718   -532.79108    165492.15   -16118.892     1157.809   -17276.701    33.764159    1.1252403 
    9000    241.79824   -598.11006    165492.15    -16065.06    1216.6338   -17281.693    34.133184    1.1252403 
    9100    249.43249   -398.52241    165492.15   -16049.491    1255.0464   -17304.538    34.725941    1.1252403 
    9200    241.18405   -285.09609    165492.15   -16086.781    1213.5435   -17300.325    34.994869    1.1252403 
    9300    237.69949   -595.64876    165492.15   -16119.446    1196.0105   -17315.456    35.692337    1.1252403 
    9400    232.35737   -550.15189    165492.15   -16158.535    1169.1311   -17327.667    36.091332    1.1252403 
    9500     240.9732   -496.18123    165492.15    -16117.13    1212.4825   -17329.613    36.703475    1.1252403 
    9600    235.86317   -297.37665    165492.15   -16176.511    1186.7709   -17363.282    36.913075    1.1252403 
    9700    236.07551   -489.28934    165492.15   -16143.332    1187.8393   -17331.172     37.09271    1.1252403 
    9800    232.37963   -364.45683    165492.15   -16137.625     1169.243   -17306.868    37.108972    1.1252403 
    9900    242.60839   -508.81983    165492.15   -16105.134    1220.7101   -17325.844    37.339643    1.1252403 
   10000    246.40548   -438.83006    165492.15   -16035.312    1239.8156   -17275.128    37.669369    1.1252403 
Loop time of 10.3966 on 64 procs for 10000 steps with 8493 atoms

Performance: 415.521 ns/day, 0.058 hours/ns, 961.855 timesteps/s
99.9% CPU use with 64 MPI tasks x no OpenMP threads

MPI task timing breakdown:
Section |  min time  |  avg time  |  max time  |%varavg| %total
---------------------------------------------------------------
Pair    | 0.0016534  | 3.5938     | 8.0718     | 154.8 | 34.57
Neigh   | 0.0079611  | 0.23866    | 0.50278    |  36.8 |  2.30
Comm    | 1.1691     | 4.2544     | 7.9041     | 107.8 | 40.92
Output  | 0.16819    | 0.16826    | 0.16894    |   0.0 |  1.62
Modify  | 0.30958    | 2.0201     | 7.7364     | 157.1 | 19.43
Other   |            | 0.1214     |            |       |  1.17

Nlocal:    132.703 ave 252 max 0 min
Histogram: 16 0 6 10 0 0 0 0 16 16
Nghost:    924.375 ave 1152 max 636 min
Histogram: 4 8 4 0 6 10 16 0 4 12
Neighs:    0 ave 0 max 0 min
Histogram: 64 0 0 0 0 0 0 0 0 0
FullNghs:  13909.3 ave 29739 max 0 min
Histogram: 18 14 0 0 0 0 0 6 15 11

Total # of neighbors = 890194
Ave neighs/atom = 104.815
Neighbor list builds = 565
Dangerous builds = 0
write_data 	    ${DIR}/data.${NAME}_eq
write_data 	    run_19/data.${NAME}_eq
write_data 	    run_19/data.ibeam_cooling_19_eq

undump              1
unfix               4



################################################
#######         Run Simulation         #########
################################################

reset_timestep      0
timestep	    10.0
log                 ${DIR}/log.run_${NAME}
log                 run_19/log.run_${NAME}
log                 run_19/log.run_ibeam_cooling_19
