
# Set production fixes - Nose/Hoover
#
fix                 4 water temp/csvr ${START_TEMP} ${END_TEMP} 500.0 928347
fix                 4 water temp/csvr 240 ${END_TEMP} 500.0 928347
fix                 4 water temp/csvr 240 227 500.0 928347


## divide "droplet" into core and surface
#region		core_reg cylinder z 135 135 44.6 20 INF units box
#region		surface_reg cylinder z 135 135 44.6 20 INF units box side out
#group		core dynamic all region core_reg
#group		surface dynamic all region surface_reg

## compute pressure core
#compute        peratom_core core stress/atom NULL
#compute        p_core core reduce sum c_peratom_core[1] c_peratom_core[2] c_peratom_core[3]
#variable       press_core equal -(c_p_core[1]+c_p_core[2]+c_p_core[3])/(3*1249982.5)


## compute pressure surface
#compute        peratom_surf surface stress/atom NULL
#compute        p_surf surface reduce sum c_peratom_surf[1] c_peratom_surf[2] #c_peratom_surf[3]
#variable       press_surf equal -(c_p_surf[1]+c_p_surf[2]+c_p_surf[3])/(3*42395)

## compute total pressure of drop
compute        peratom water stress/atom NULL
compute        p water reduce sum c_peratom[1] c_peratom[2] c_peratom[3]
variable       press equal -(c_p[1]+c_p[2]+c_p[3])/(3*58301)


# compute order parameter
compute        3 all orientorder/atom nnn NULL cutoff 3.5

# compute center of mass of bridge
compute 	4 water com

# Run simulation
thermo_style        custom step c_2 press vol etotal ke pe v_press c_1[4] c_4[*]
thermo              200
dump		     1 water custom 400 ${DIR}/prod.${NAME}.dump id type x y z vx vy vz c_3[*] c_peratom[*]
dump		     1 water custom 400 run_5/prod.${NAME}.dump id type x y z vx vy vz c_3[*] c_peratom[*]
dump		     1 water custom 400 run_5/prod.ibeam_cooling_5.dump id type x y z vx vy vz c_3[*] c_peratom[*]
run                 ${STEPS}
run                 5200000
Neighbor list info ...
  update every 1 steps, delay 0 steps, check yes
  max neighbors/atom: 2000, page size: 100000
  master list distance cutoff = 6.6747184
  ghost atom cutoff = 6.6747184
  binsize = 3.3373592, bins = 48 11 14
  2 neighbor lists, perpetual/occasional/extra = 1 1 0
  (1) pair sw, perpetual
      attributes: full, newton on
      pair build: full/bin/atomonly
      stencil: full/bin/3d
      bin: standard
  (2) compute orientorder/atom, occasional, copy from (1)
      attributes: full, newton on
      pair build: copy
      stencil: none
      bin: none
Per MPI rank memory allocation (min/avg/max) = 6.106 | 6.802 | 7.324 Mbytes
Step c_2 Press Volume TotEng KinEng PotEng v_press c_1[4] c_4[1] c_4[2] c_4[3] 
       0    237.89839   -186.74196    263624.46   -25758.178    1925.2877   -27683.465    -313.8051    38.922021     78.60844    18.368193    27.443966 
     200    239.81715    -333.5836    263624.46    -25776.49     1940.816   -27717.306   -971.68227    40.325217    78.608192       18.367    27.457807 
     400    238.21013   -128.35974    263624.46   -25730.111    1927.8106   -27657.921   -73.445733      41.7878     78.60699    18.366552    27.446388 
     600    249.87172   -246.37081    263624.46   -25597.042    2022.1866   -27619.229   -588.04699    42.609336    78.604871    18.365566    27.438267 
     800    239.89064    -209.4766    263624.46   -25596.202    1941.4108   -27537.613    -417.2937     44.50248    78.604522    18.363667    27.426955 
    1000    242.08762   -406.38489    263624.46   -25642.624    1959.1907   -27601.815   -1316.7069    46.848512    78.604929    18.362911    27.426327 
    1200    238.21956   -427.99686    263624.46   -25629.486    1927.8869   -27557.373   -1366.0485    47.696952    78.604895    18.364573    27.428042 
    1400    242.45185   -273.51223    263624.46   -25639.944    1962.1384   -27602.082   -713.94197    50.076283    78.603836    18.364628    27.428896 
    1600    242.15475   -255.57839    263624.46   -25625.433     1959.734   -27585.167   -579.91779    52.339125    78.602602    18.363485     27.43227 
    1800    240.98409   -302.00059    263624.46   -25577.928    1950.2599   -27528.188   -798.71245    53.792011    78.602217    18.362234    27.433497 
    2000    249.04485   -289.19971    263624.46   -25520.734    2015.4949   -27536.229   -835.16212    55.511556    78.603126    18.361752    27.437329 
    2200    241.11358   -192.94889    263624.46   -25638.568    1951.3079   -27589.876   -340.35978    57.273488    78.604174    18.362572    27.438725 
    2400     243.7044   -131.83445    263624.46   -25604.812    1972.2752   -27577.087    -73.37823     58.90048    78.605568    18.363344    27.439277 
    2600    237.87637   -352.27561    263624.46   -25661.557    1925.1095   -27586.667   -1103.7046    60.603129    78.604936    18.364097    27.414524 
    2800    245.01607   -309.44295    263624.46   -25578.598    1982.8904   -27561.489   -929.69357    61.788575      78.6032    18.364214    27.396868 
    3000    247.06341   -240.63065    263624.46   -25644.763    1999.4593   -27644.222   -582.54348    62.892822    78.602363    18.364418    27.400509 
    3200    237.62877   -232.14682    263624.46   -25713.327    1923.1057   -27636.433   -525.57034    64.915566    78.602171     18.36312     27.41073 
    3400    236.39609   -103.96717    263624.46    -25716.08    1913.1297   -27629.209   0.82232369    67.081859    78.602667    18.362645    27.404279 
    3600    242.40731   -218.44416    263624.46   -25724.226    1961.7779   -27686.004   -446.94447    68.328678    78.603134    18.362974    27.390258 
    3800    243.17883   -302.28694    263624.46   -25651.669    1968.0218    -27619.69   -850.75813    69.942019    78.603967    18.362359    27.394175 
    4000    242.48581   -228.02448    263624.46   -25714.546    1962.4133   -27676.959   -527.04167    71.903924    78.603622    18.362337    27.414709 
    4200    239.47072   -331.63868    263624.46   -25649.306    1938.0124   -27587.318   -977.72129    73.806391    78.603499    18.362747    27.404375 
    4400    241.93361   -306.28997    263624.46   -25681.483    1957.9443   -27639.428   -871.13628    75.528845    78.603271    18.360749    27.422651 
    4600    231.28767   -251.06062    263624.46   -25817.534    1871.7878   -27689.322   -622.54307    75.616325    78.602735    18.359481    27.454447 
    4800     236.7275   -299.61476    263624.46   -25644.961    1915.8118   -27560.772   -834.37788    76.821741    78.603831     18.35766    27.454963 
    5000    243.92342   -307.63855    263624.46   -25734.927    1974.0477   -27708.974   -911.13184     79.27686    78.605182    18.357341    27.466945 
    5200    240.27894   -297.70636    263624.46   -25751.606    1944.5533   -27696.159   -832.45778    80.096635    78.604752    18.357525    27.480698 
    5400    240.91144   -232.46958    263624.46   -25767.075     1949.672   -27716.747   -567.15031    82.286127    78.603679    18.359731     27.48164 
    5600    239.98835   -323.28728    263624.46   -25757.329    1942.2016    -27699.53    -937.6633    83.040446    78.602893    18.361165    27.465894 
    5800     243.7561   -222.36374    263624.46   -25723.424    1972.6936   -27696.117   -472.24537    84.617418    78.603894    18.359751    27.473057 
    6000    241.16988   -282.85681    263624.46   -25806.693    1951.7635   -27758.456   -774.93464    85.493515    78.603351    18.359056    27.453383 
    6200    241.55302   -273.46969    263624.46   -25788.784    1954.8643   -27743.648   -751.03558    85.364483    78.603967    18.359731    27.454152 
    6400     240.6176   -381.43035    263624.46   -25758.519     1947.294   -27705.813    -1188.522    86.828057    78.604908    18.360102    27.439821 
    6600    241.48775   -381.35131    263624.46   -25753.943     1954.336   -27708.279   -1232.7117    87.510291    78.604947    18.359318    27.415973 
    6800    243.44683   -238.86941    263624.46   -25757.611    1970.1907   -27727.801   -548.55194    88.585407    78.606736    18.356886    27.416531 
    7000    245.85574   -79.668363    263624.46   -25742.565    1989.6857   -27732.251    136.93473     89.43537    78.605968    18.356779    27.407865 
    7200    239.36966   -208.98105    263624.46   -25856.304    1937.1945   -27793.498   -461.82542    90.791323     78.60711    18.357253    27.403873 
    7400    241.44786    -175.4967    263624.46   -25796.774    1954.0132   -27750.787   -313.54545    92.566082    78.608788    18.358357     27.39068 
    7600    247.54034   -178.02785    263624.46   -25702.521    2003.3191    -27705.84   -319.20903    93.628203    78.609623    18.358792    27.369755 
    7800    237.97635   -182.80535    263624.46   -25885.211    1925.9186   -27811.129   -339.25884    94.580753    78.609977    18.362493    27.388818 
    8000    244.21368   -280.64038    263624.46    -25755.29    1976.3967   -27731.687   -725.62295    95.031039    78.608012     18.36257     27.38051 
    8200    239.19674    -208.4485    263624.46   -25728.154    1935.7951   -27663.949    -416.4104    96.970556    78.607058    18.362992    27.372933 
    8400    240.70794   -208.56638    263624.46   -25669.792    1948.0251   -27617.817   -434.26297    98.687867    78.605808    18.362127    27.358278 
    8600     241.0412   -278.70045    263624.46   -25740.971    1950.7222   -27691.694   -784.18527    100.33142    78.604717    18.361164    27.371517 
    8800     239.9134   -304.01126    263624.46   -25749.437     1941.595   -27691.032   -868.14316    101.39499    78.603387    18.361532    27.389135 
    9000    242.56838   -363.43438    263624.46   -25736.399    1963.0815    -27699.48   -1143.2205    102.71836    78.603283    18.361458    27.389988 
    9200     247.1851    -244.6166    263624.46    -25649.62    2000.4441   -27650.064   -564.89014    103.39466    78.602647    18.361528    27.389146 
    9400    241.21154   -353.09284    263624.46   -25679.956    1952.1007   -27632.057   -1088.2359     104.9989    78.601526    18.360315     27.39873 
    9600      237.704   -487.02466    263624.46   -25715.106    1923.7145   -27638.821   -1672.2021    105.70667    78.600515    18.360715    27.377099 
    9800    243.50544   -317.22324    263624.46   -25638.393     1970.665   -27609.058   -902.99816    107.68151    78.599917    18.361064    27.382255 
   10000    241.30382   -437.25766    263624.46   -25698.974    1952.8475   -27651.821   -1475.6805    109.28341    78.599772    18.359655    27.382081 
   10200     244.3538   -173.86931    263624.46   -25617.858    1977.5307   -27595.389    -313.8569    109.87224    78.598636    18.360723    27.386572 
   10400    243.54724   -280.85381    263624.46    -25640.62    1971.0033   -27611.623   -792.54925    112.14845    78.600467     18.36187    27.406055 
   10600    244.04856   -278.08919    263624.46   -25733.269    1975.0604   -27708.329   -724.89125    113.06894    78.601579    18.362451    27.393456 
   10800    234.14617   -165.37807    263624.46   -25816.744    1894.9214   -27711.666   -270.72943    113.75698    78.601018    18.363657    27.406543 
   11000    233.52678   -286.62824    263624.46   -25780.357    1889.9087   -27670.266   -763.31437    115.07774    78.599805     18.36321    27.436828 
   11200    238.71247   -243.83675    263624.46    -25788.83     1931.876   -27720.706   -602.20801    116.47313     78.59842    18.363918    27.438093 
   11400    236.35258   -216.78424    263624.46   -25751.241    1912.7777   -27664.019   -483.11425    118.26549    78.598224    18.364055    27.440754 
   11600    242.03768   -367.63707    263624.46   -25621.128    1958.7865   -27579.915   -1170.6325    120.03192     78.59695    18.365039    27.445545 
   11800    241.35979   -254.98308    263624.46   -25643.818    1953.3005   -27597.119    -660.2789    122.47034    78.596364    18.366049    27.438192 
   12000    243.12803   -135.50681    263624.46   -25655.544    1967.6106   -27623.154   -131.20887    123.65779    78.594593    18.364866    27.421751 
   12200    243.03889   -247.17582    263624.46   -25658.805    1966.8893   -27625.695    -611.9459    125.53287    78.593165    18.363697    27.439262 
   12400     244.1827   -162.91508    263624.46   -25708.056     1976.146   -27684.201   -219.70954    126.73847    78.593534    18.364582    27.442909 
   12600    238.25205   -286.85616    263624.46   -25618.928    1928.1499   -27547.078   -796.14227    128.25597    78.592641    18.364225    27.457814 
   12800    240.81546   -185.58841    263624.46   -25694.357    1948.8953   -27643.253   -300.59195    129.81366     78.59215    18.360767    27.440563 
   13000    235.53079   -145.77516    263624.46   -25709.852     1906.127   -27615.979   -97.804647    130.74262    78.594185    18.358336    27.430609 
   13200    235.96599   -470.21214    263624.46   -25747.645     1909.649   -27657.294   -1632.9922    133.27794    78.594032    18.357614    27.416104 
   13400    234.14366   -174.23149    263624.46    -25798.55    1894.9011   -27693.451   -296.17069    134.90648    78.594826    18.357033    27.423877 
   13600    235.45135   -358.26815    263624.46   -25760.856    1905.4841    -27666.34   -1094.4649    137.60327    78.595304    18.356158    27.431613 
   13800    243.98163   -225.39478    263624.46   -25663.902    1974.5187   -27638.421   -522.72159    138.92792    78.595727     18.35306    27.406953 
   14000    236.73828   -356.63816    263624.46   -25601.417    1915.8991   -27517.316    -1118.504    140.71013    78.595921    18.350516    27.400877 
   14200    240.20128    -222.6316    263624.46   -25677.459    1943.9247   -27621.383   -483.69294    141.46377    78.597711    18.349917    27.405187 
   14400    238.83967    -422.0827    263624.46   -25721.327    1932.9054   -27654.232   -1394.0593    144.23262    78.598382    18.350938    27.404519 
   14600    239.53691   -204.89178    263624.46   -25716.876    1938.5481   -27655.424   -411.14054    145.37509    78.597637    18.354353     27.39688 
   14800    239.70504   -373.43326    263624.46   -25650.722    1939.9088   -27590.631   -1130.2203     147.1112    78.597756    18.356004    27.396248 
   15000    235.58014   -211.02143    263624.46   -25688.471    1906.5264   -27594.997   -399.11045    148.52195     78.59839    18.355538    27.383151 
   15200    241.90983   -246.47745    263624.46   -25676.688    1957.7519   -27634.439   -581.20137    149.66409    78.598726    18.357336    27.397426 
   15400    239.80195   -304.43539    263624.46   -25762.211     1940.693   -27702.904   -839.17799    150.76406    78.599228    18.357334    27.416363 
   15600    241.38581   -321.33919    263624.46   -25629.683    1953.5111   -27583.194    -947.8345    151.80875    78.598892    18.357492    27.424043 
   15800    246.44809   -185.71501    263624.46   -25663.564    1994.4796   -27658.043   -290.96553    153.43349    78.596558    18.355692    27.423934 
   16000    236.47584   -301.93114    263624.46   -25695.957    1913.7751   -27609.732   -858.31331    154.36896    78.596947    18.354305    27.402221 
   16200    241.08661   -323.13156    263624.46   -25703.825    1951.0897   -27654.914   -982.96512    154.97245    78.598137     18.35238     27.39686 
   16400    241.58333   -365.47395    263624.46   -25719.837    1955.1095   -27674.946   -1123.5168    155.15831    78.597392    18.351254    27.399797 
   16600    243.53018   -189.31448    263624.46   -25652.434    1970.8652   -27623.299   -328.34817    157.07266    78.596682    18.352494    27.410436 
   16800    243.53613   -318.81579    263624.46   -25680.972    1970.9134   -27651.885    -924.0888      158.069    78.596018    18.354002    27.415887 
   17000    236.53227   -435.11298    263624.46   -25751.625    1914.2319   -27665.857   -1450.1662    159.06142    78.596475    18.355739    27.428446 
   17200    239.89187   -212.63013    263624.46     -25754.3    1941.4208   -27695.721   -429.59441    159.96299    78.597255     18.35759    27.432335 
   17400    230.99286   -197.30974    263624.46   -25834.986    1869.4019   -27704.388   -389.06561    161.42938    78.596923    18.359899    27.446888 
   17600    240.97948   -384.25781    263624.46    -25719.29    1950.2226   -27669.513   -1204.9369    162.45078    78.596334    18.360904    27.455907 
   17800    233.05577   -360.06001    263624.46   -25773.181    1886.0969   -27659.278   -1070.3279    163.53856    78.596135    18.362526    27.459296 
   18000    241.31324   -257.37834    263624.46   -25731.935    1952.9238   -27684.859   -652.25453     165.7135    78.595522    18.364205    27.443309 
   18200    235.39342   -319.75463    263624.46   -25776.149    1905.0152   -27681.164   -918.14549    165.59078    78.595487    18.365297    27.443723 
   18400     234.1572   -368.03458    263624.46   -25704.749    1895.0106    -27599.76   -1093.8887    166.73478    78.595782     18.36664    27.442175 
   18600    242.40748   -260.82848    263624.46   -25694.744    1961.7793   -27656.524   -683.18607    168.77669    78.594821    18.366331    27.433131 
   18800    238.72585   -237.65427    263624.46   -25808.004    1931.9842   -27739.989   -551.60071    170.33678    78.595068    18.367248    27.439267 
   19000    242.80419   -271.37503    263624.46   -25725.985    1964.9898   -27690.975   -697.75953     170.7512    78.594269    18.366693    27.448982 
   19200    235.54359   -275.08727    263624.46    -25760.02    1906.2306    -27666.25   -707.37582    171.24417    78.593945    18.368684     27.45096 
   19400    237.80914   -380.62923    263624.46   -25662.951    1924.5654   -27587.516   -1217.6616    172.47611     78.59387    18.369984    27.447108 
   19600    243.31962   -279.85328    263624.46   -25690.582    1969.1612   -27659.743   -708.63913    174.51086    78.593187    18.371426    27.439991 
   19800    242.52381   -175.48608    263624.46    -25738.13    1962.7208   -27700.851   -269.81332    175.75896    78.591672    18.372734    27.415283 
   20000     243.3535   -206.61771    263624.46   -25734.296    1969.4354   -27703.731    -431.5511    176.91946    78.592231    18.371737    27.432178 
   20200    238.77194   -152.33896    263624.46   -25812.405    1932.3573   -27744.762   -144.17864    178.84107    78.592938    18.370678    27.457408 
   20400    246.78618   -461.56524    263624.46   -25718.546    1997.2157   -27715.761   -1542.5941    180.87183    78.592435    18.372719    27.460072 
   20600    238.48185   -323.70768    263624.46   -25814.637    1930.0096   -27744.647   -924.81838    182.74917    78.592249    18.374136     27.46487 
   20800    243.66253   -287.08945    263624.46   -25744.419    1971.9363   -27716.356   -769.10533    184.55073     78.59129      18.3751    27.448025 
   21000     243.1258   -227.35346    263624.46   -25742.858    1967.5927   -27710.451   -469.03449    187.12109    78.590544     18.37339    27.438072 
   21200    243.56482   -290.02154    263624.46   -25721.315    1971.1455   -27692.461   -813.89829    187.58636    78.589573    18.372964    27.444587 
   21400    238.47004   -225.51287    263624.46   -25724.223     1929.914   -27654.137   -472.27247    188.16201    78.588575     18.37211    27.455398 
   21600    251.40469   -459.08435    263624.46   -25600.237    2034.5928   -27634.829   -1558.7423    189.96153    78.589832    18.371735    27.444357 
   21800    237.78158   -251.05334    263624.46   -25719.611    1924.3423   -27643.953   -575.00011    191.61259    78.589657    18.370953    27.435324 
   22000    235.27384   -140.78324    263624.46   -25736.267    1904.0475   -27640.314   -130.83932    192.41025    78.590735    18.369597    27.433562 
   22200    232.77982   -267.05635    263624.46   -25759.235    1883.8637   -27643.098   -690.81542    193.87389    78.590688    18.369357    27.445794 
   22400    242.40971   -332.63845    263624.46    -25614.61    1961.7974   -27576.408   -986.61376    195.73655    78.590094    18.369017    27.461494 
   22600    242.83163    -293.3334    263624.46   -25657.816    1965.2119   -27623.028   -755.88424    197.38636      78.5884    18.366442    27.461631 
   22800    242.97598     -418.498    263624.46    -25645.96    1966.3801    -27612.34   -1356.2235    197.40541     78.58879    18.366276    27.439648 
   23000    237.24271   -341.25454    263624.46    -25704.92    1919.9814   -27624.901   -1035.5036    198.58844    78.589152    18.365316    27.439339 
   23200    238.15136    -201.8554    263624.46   -25660.783     1927.335   -27588.118   -386.37603     199.8082     78.58917    18.364172    27.440797 
   23400     236.7064   -253.16444    263624.46   -25668.793    1915.6411   -27584.434    -643.0719    199.74913    78.589781     18.36133    27.453799 
   23600    246.36927   -265.21648    263624.46   -25624.689    1993.8417   -27618.531   -663.45309    200.11022    78.591364    18.361824    27.450871 
   23800    237.43182   -313.58288    263624.46   -25657.861    1921.5118   -27579.373   -871.17161    200.98729    78.591618    18.363105    27.458191 
   24000    241.33376   -47.382455    263624.46   -25688.987    1953.0898   -27642.077    304.67576    202.99605    78.589186    18.363083    27.451994 
   24200    239.20956   -404.78006    263624.46   -25708.636    1935.8988   -27644.534   -1309.0352    204.27615    78.588448      18.3624    27.446032 
   24400    237.77497   -200.31561    263624.46   -25780.434    1924.2889   -27704.723   -358.59704    204.55652    78.589684    18.363763    27.424396 
   24600    234.95325   -189.40227    263624.46   -25799.868     1901.453   -27701.321    -340.0434    207.53013    78.591672     18.36357     27.42105 
   24800    233.73694   -290.42455    263624.46   -25734.952    1891.6095   -27626.562   -793.70169    209.49846    78.593733    18.363377     27.42335 
   25000    242.27042   -277.50861    263624.46   -25696.954    1960.6701   -27657.624    -702.9836    210.79556    78.595037    18.364634    27.415693 
   25200    228.13262   -191.47761    263624.46   -25818.576    1846.2543    -27664.83   -330.73402    212.02102     78.59521    18.364708    27.421854 
   25400    238.66743    -305.2625    263624.46   -25721.297    1931.5115   -27652.808   -874.81715     213.6959    78.596831      18.3649    27.415051 
   25600    248.38792   -218.90636    263624.46   -25600.197    2010.1784   -27610.375   -481.17075    214.64107    78.599826    18.365242     27.42367 
   25800    243.65674   -227.43903    263624.46   -25605.646    1971.8895   -27577.536    -491.8013    215.81452     78.59947    18.366967    27.435649 
   26000    242.51312   -388.45653    263624.46   -25643.247    1962.6343   -27605.881   -1241.4622    218.58782    78.598901    18.368846    27.430381 
   26200    234.79377   -250.37179    263624.46   -25654.015    1900.1623   -27554.177   -623.53595    219.87129    78.598704    18.370357    27.420229 
   26400    238.72699   -242.04993    263624.46   -25749.144    1931.9935   -27681.138   -556.70424    221.13882      78.5984    18.366653    27.398077 
   26600    243.91347   -391.44119    263624.46   -25668.268    1973.9672   -27642.235   -1249.1662     222.5807    78.598759    18.364041    27.396668 
   26800     241.2406    -337.9736    263624.46   -25701.965    1952.3359   -27654.301   -1008.4599    223.13581    78.598891    18.365506    27.392757 
   27000    240.94325   -127.60139    263624.46     -25628.2    1949.9294   -27578.129    -41.64843    224.31064    78.599986    18.365382    27.368746 
   27200    237.70991   -122.33337    263624.46   -25638.662    1923.7624   -27562.425   -20.203101    224.68007    78.599482    18.365949    27.345197 
   27400    241.42654   -138.75087    263624.46   -25613.313    1953.8407   -27567.154   -105.34442    225.96528    78.600004    18.368458    27.333807 
   27600    235.36773   -220.84478    263624.46   -25755.327    1904.8074   -27660.135   -462.94265    227.64442    78.600805    18.370729    27.334139 
   27800    242.06577   -340.21083    263624.46   -25648.279    1959.0139   -27607.293   -1023.0829    228.59625    78.601715    18.371311    27.325868 
   28000    236.67184    22.762246    263624.46    -25761.27    1915.3614   -27676.632    637.81338    229.73578    78.602734    18.370314    27.332122 
   28200    236.59412   -227.68453    263624.46   -25723.654    1914.7324   -27638.386   -475.11717    231.30434    78.602724    18.370728    27.322898 
   28400    238.07841   -256.41833    263624.46   -25735.827    1926.7446   -27662.572   -622.17419    232.49902    78.602931    18.371115    27.324868 
   28600    242.55245    -313.8312    263624.46   -25772.461    1962.9526   -27735.414   -854.32018    233.23175    78.603565    18.370888    27.327945 
   28800     241.0575   -379.71739    263624.46   -25788.509    1950.8541   -27739.363   -1175.7984    233.95276    78.604601    18.371028    27.325212 
   29000    246.42164    -294.8243    263624.46   -25764.533    1994.2655   -27758.799   -801.01066    235.85487      78.6054    18.371621    27.329773 
   29200    244.64786   -268.67382    263624.46   -25742.981    1979.9105   -27722.892    -689.2258     237.5109    78.605041    18.372408    27.320704 
   29400    236.27709   -131.85981    263624.46   -25747.313    1912.1667    -27659.48   -74.857242    237.40837    78.604475    18.373657    27.332794 
   29600    241.25912   -177.96493    263624.46   -25727.711    1952.4858   -27680.197   -278.49176     238.4774    78.603792    18.377564    27.336123 
   29800    239.53321   -239.12727    263624.46   -25840.405    1938.5181   -27778.923   -539.98317    238.52003    78.603764    18.378868    27.339474 
   30000    234.52069   -294.95466    263624.46   -25837.294    1897.9523   -27735.246   -815.11636    241.68044    78.604736    18.377467    27.350892 
   30200    231.01651   -233.65178    263624.46   -25781.488    1869.5933   -27651.081   -497.95479    241.52573    78.605465    18.377497    27.344138 
   30400    239.69494   -309.38564    263624.46   -25708.983     1939.827    -27648.81   -890.89801    242.48795    78.604859    18.379194     27.35792 
   30600    238.08324   -257.79944    263624.46   -25728.129    1926.7837   -27654.913   -638.87283    243.76499     78.60421    18.380381    27.350506 
   30800    235.05862   -287.87996    263624.46   -25739.687    1902.3057   -27641.993   -735.35396    245.33379    78.603159    18.378454    27.355717 
   31000    239.78261   -293.36121    263624.46   -25707.053    1940.5365    -27647.59   -810.59673    247.08662    78.604198    18.376957    27.361986 
   31200     242.0983   -363.27268    263624.46   -25688.211    1959.2771   -27647.488   -1112.8094    248.50918    78.602888    18.377602    27.369933 
   31400    239.43948   -288.36606    263624.46   -25651.018    1937.7596   -27588.777   -748.50273    250.97025    78.601417      18.3737    27.372489 
   31600    247.73756   -312.14253    263624.46   -25630.882    2004.9151   -27635.797   -880.91099    252.63223    78.602023    18.371071    27.381363 
   31800    243.40215   -227.80118    263624.46   -25603.555    1969.8291   -27573.384   -502.98167    253.40902    78.604091    18.368781     27.38088 
   32000    240.64337   -347.38095    263624.46   -25690.759    1947.5026   -27638.262     -1034.97    254.43451     78.60169    18.368007    27.382004 
   32200    233.61427   -290.54904    263624.46   -25807.093    1890.6167    -27697.71   -776.25011    256.85425    78.598888    18.367333    27.403205 
   32400    237.92657   -266.10185    263624.46   -25774.213    1925.5158   -27699.729   -706.96915    258.66222    78.597374    18.366831    27.413797 
   32600    243.07081   -309.77724    263624.46   -25674.231    1967.1476   -27641.378   -876.63165    259.32562    78.597225    18.365101    27.423397 
   32800    248.00542    -241.5303    263624.46   -25684.768    2007.0828   -27691.851   -587.67528    262.30602    78.596206    18.363668    27.423367 
   33000    239.11468   -177.54354    263624.46   -25718.014     1935.131   -27653.145   -259.72035    264.40331    78.596252    18.362322    27.405423 
   33200    238.32218   -284.42268    263624.46   -25777.735    1928.7174   -27706.453   -770.85022    266.35584    78.597348    18.362318    27.402295 
   33400    235.71374    -228.9457    263624.46   -25752.336    1907.6076   -27659.944    -521.9666    268.28752    78.600386    18.364633    27.399907 
   33600    240.10647   -495.09554    263624.46   -25778.436    1943.1575   -27721.594   -1733.0446     269.2687    78.602438    18.367353    27.385813 
   33800    240.40007   -208.27387    263624.46   -25649.406    1945.5336    -27594.94   -439.22381    269.57267    78.603386    18.367896    27.380341 
   34000    237.13365   -275.63448    263624.46   -25742.132    1919.0988    -27661.23   -749.37059    269.89499    78.604246     18.36588    27.368312 
   34200    243.86474   -367.76741    263624.46    -25751.37    1973.5728   -27724.943   -1102.6799    272.34846    78.603083    18.363848    27.374002 
   34400    240.57144    -255.2735    263624.46   -25794.395    1946.9205   -27741.316   -623.28305      273.115    78.602361    18.364236    27.357133 
   34600    242.88311   -218.07399    263624.46   -25678.754    1965.6286   -27644.382   -411.56833    273.29869    78.602224    18.363895     27.37358 
   34800    239.98912   -357.32848    263624.46   -25725.726    1942.2078   -27667.934   -1051.6005    273.08167      78.6003    18.362623    27.370227 
   35000    241.24871    -298.3464    263624.46   -25725.928    1952.4015    -27678.33   -829.73192    274.49526    78.598843    18.359789    27.365483 
   35200    241.01036   -208.63788    263624.46   -25675.769    1950.4726   -27626.242   -389.78206     276.2571    78.595234    18.358067    27.380191 
   35400    244.35915   -288.57601    263624.46   -25737.452     1977.574   -27715.026     -773.564    276.63322    78.593831    18.357343    27.382233 
   35600    239.32688   -282.04021    263624.46    -25719.34    1936.8483   -27656.188   -751.04417    277.53058    78.593448    18.355879    27.384551 
   35800    251.18811   -374.36064    263624.46   -25625.921    2032.8401   -27658.761     -1157.25    278.61011    78.592775     18.35558    27.388816 
   36000    238.16904   -303.45423    263624.46   -25762.979    1927.4781   -27690.457   -841.66469    281.00453    78.592444    18.355964    27.388074 
   36200    241.64356   -401.72979    263624.46   -25761.642     1955.597   -27717.239   -1277.5488    282.51119    78.591866    18.358473    27.398768 
   36400    238.93801   -231.96151    263624.46   -25760.028    1933.7012   -27693.729   -527.43523    282.52196    78.591954    18.357685    27.418382 
   36600    239.31867   -310.89275    263624.46   -25716.549    1936.7819   -27653.331   -865.68206    283.89347    78.593059    18.359557    27.397121 
   36800    236.51666   -244.73951    263624.46   -25791.147    1914.1055   -27705.253   -602.52268    285.68547    78.594851     18.35819    27.403344 
   37000    239.31961   -367.96192    263624.46   -25720.514    1936.7895   -27657.303   -1163.2194    286.19801    78.595393    18.356891    27.418194 
   37200     241.9946   -263.77559    263624.46   -25801.421     1958.438   -27759.859   -640.89461    287.02504    78.596466    18.355956    27.427795 
   37400    233.01618   -149.23882    263624.46   -25791.105    1885.7765   -27676.881   -204.47189    287.12258    78.595179    18.357288    27.434316 
   37600    240.52953   -134.48159    263624.46   -25730.553    1946.5812   -27677.134   -79.155732    287.90915    78.596307     18.35985    27.434182 
   37800    232.75853   -344.39105    263624.46   -25849.298    1883.6914   -27732.989   -1049.0499    288.75081    78.595947    18.362829    27.428209 
   38000    237.19141   -255.10682    263624.46   -25741.543    1919.5662   -27661.109   -678.26015    288.92016    78.595599    18.365277    27.427031 
   38200    243.79865   -213.23967    263624.46   -25699.268    1973.0379   -27672.306   -435.51422    291.17136    78.595453    18.366123    27.416127 
   38400    242.51361   -345.08193    263624.46    -25685.75    1962.6382   -27648.388   -1003.5497    293.85007    78.594915    18.367736     27.41501 
   38600    238.65374   -224.54529    263624.46   -25721.833    1931.4007   -27653.233   -516.31753    295.03485    78.594363     18.36719    27.411387 
   38800    235.41622   -248.78413    263624.46   -25807.651    1905.1998   -27712.851   -624.42421    297.80883    78.594913     18.36618    27.410206 
   39000    234.41645   -113.80298    263624.46   -25659.444    1897.1087   -27556.553    16.682212    299.73911    78.594585    18.364991    27.430221 
   39200    237.06283   -194.78405    263624.46   -25746.901    1918.5256   -27665.426   -380.99857    301.92603    78.594136    18.363882    27.401875 
   39400      243.105   -333.40321    263624.46   -25655.376    1967.4243     -27622.8   -955.84535    305.54723    78.593872     18.36307    27.402982 
   39600    243.73426   -285.44769    263624.46   -25647.078    1972.5168   -27619.595   -767.41649    308.03154    78.594174    18.362965     27.40489 
   39800    241.79918   -296.84545    263624.46   -25732.965    1956.8564   -27689.822   -790.36931    309.88485    78.593958    18.361546    27.409669 
   40000    237.68034   -360.41239    263624.46   -25739.674    1923.5231   -27663.197   -1112.2296    311.60473    78.593725    18.362064    27.406271 
   40200    241.28488   -278.89979    263624.46   -25696.365    1952.6942   -27649.059   -759.86006    311.59303    78.595245    18.358883    27.398518 
   40400    239.86726   -439.58101    263624.46   -25773.856    1941.2215   -27715.078   -1424.1386    314.62214     78.59423    18.356179    27.393872 
   40600    235.04284   -302.93846    263624.46   -25731.464     1902.178   -27633.642   -825.08886    315.34334    78.594699    18.354768    27.393908 
   40800    240.34673    -311.9417    263624.46   -25742.051    1945.1019   -27687.153   -912.56617    317.71523    78.596619     18.35478    27.385806 
   41000    239.66148   -354.89771    263624.46   -25796.171    1939.5563   -27735.727   -1056.0716    318.04738    78.596256    18.354153    27.397852 
   41200    240.82263   -315.40419    263624.46   -25734.439    1948.9533   -27683.393   -915.96394    319.46631    78.594199    18.354691     27.40882 
   41400    233.21384    -229.1448    263624.46   -25756.392    1887.3761   -27643.768   -508.67335    318.22393    78.593303    18.354724    27.396897 
   41600    237.47084   -257.39561    263624.46   -25714.257    1921.8276   -27636.085   -669.52717     319.2791    78.592217    18.354988    27.404509 
   41800    241.49387   -348.37504    263624.46   -25707.255    1954.3855    -27661.64   -1084.5074    322.95972     78.59175    18.355647    27.396344 
   42000    234.33728   -234.90831    263624.46   -25756.554     1896.468   -27653.022   -546.71098    322.94753    78.590863    18.355166    27.384105 
   42200    236.88411   -334.94969    263624.46   -25780.987    1917.0793   -27698.066   -980.29374     324.3197    78.589169    18.358118    27.382284 
   42400    238.49021   -209.72103    263624.46   -25766.304    1930.0773   -27696.381   -424.47813    324.76722    78.588753    18.357266    27.372772 
   42600    239.58927   -200.86554    263624.46   -25749.118    1938.9719    -27688.09   -377.07143    324.85454    78.589258    18.357408    27.367527 
   42800    237.38686   -291.67069    263624.46   -25713.477     1921.148   -27634.625   -804.33244    324.37976     78.59006    18.358281    27.358271 
   43000    241.21135   -285.48927    263624.46   -25700.061    1952.0992    -27652.16   -781.19092    325.66742    78.591497     18.35858    27.363042 
   43200    245.33756   -273.91196    263624.46   -25688.243    1985.4921   -27673.735   -742.22197    326.90186    78.590251     18.36068    27.377523 
   43400    239.79437   -175.54366    263624.46   -25712.073    1940.6317   -27652.705   -276.32781    329.04162    78.591283    18.362934    27.394048 
   43600    242.52142   -329.77979    263624.46   -25712.175    1962.7014   -27674.876   -977.68178    330.39839    78.592095    18.362373    27.400942 
   43800    235.66585   -330.62735    263624.46   -25746.761      1907.22   -27653.981   -940.86375    330.76553    78.591697    18.364985    27.421676 
   44000    240.95946   -356.52432    263624.46   -25804.788    1950.0606   -27754.848   -1055.3879    333.56783    78.590197    18.366062    27.419501 
   44200    240.07726   -215.13466    263624.46   -25714.393    1942.9211   -27657.315   -455.59024    333.87813    78.591735    18.366352    27.399503 
   44400    240.34909   -260.84148    263624.46   -25734.395     1945.121   -27679.516   -631.98916    336.33199    78.591609     18.36648    27.414841 
   44600    235.48959   -184.93408    263624.46    -25774.48    1905.7936   -27680.274   -350.43501    337.15403       78.593     18.36705    27.416104 
   44800    241.41441   -280.25078    263624.46   -25753.708    1953.7425   -27707.451   -770.34434    335.78358    78.593698    18.366959    27.430039 
   45000    239.60653   -208.87984    263624.46   -25718.785    1939.1115   -27657.896   -406.79288    335.75715    78.594577    18.367747    27.455762 
   45200    241.75806   -193.30607    263624.46   -25741.463    1956.5236   -27697.987   -365.12407    336.42747    78.594985    18.365695    27.476495 
   45400    234.72516   -310.37159    263624.46   -25788.582    1899.6071   -27688.189   -871.26393    339.36784    78.595385     18.36508    27.477828 
   45600    238.84256   -140.99045    263624.46   -25694.309    1932.9287   -27627.237    -126.3237     340.0893    78.595824    18.364434    27.493189 
   45800    241.86545    -271.7977    263624.46   -25686.554    1957.3928   -27643.946   -699.96339    339.88569    78.594829    18.362775    27.492085 
   46000    234.45747   -444.57428    263624.46    -25668.96    1897.4407   -27566.401   -1453.9818    340.30847    78.594446    18.358584    27.498032 
   46200    235.51509    -228.1653    263624.46   -25671.954    1905.9999   -27577.954   -503.86846    340.11152    78.595165    18.354948    27.488816 
   46400    237.23222   -264.36913    263624.46   -25752.313    1919.8965   -27672.209   -660.09224    342.73862    78.595546    18.354899    27.480751 
   46600    238.61718   -309.47208    263624.46   -25737.756    1931.1048   -27668.861   -872.38047    344.03095    78.593768    18.353983     27.49016 
   46800    243.31786   -256.40612    263624.46   -25711.561    1969.1469   -27680.708   -608.77786      346.026    78.593866    18.352532    27.501784 
   47000    238.91383   -307.13441    263624.46   -25753.282    1933.5056   -27686.788   -822.05603    346.37712    78.593905    18.351342    27.488185 
   47200    238.82417   -214.39431    263624.46   -25783.883      1932.78   -27716.663    -448.4644    348.71666    78.593447    18.351367    27.480726 
   47400    240.26627   -166.46244    263624.46   -25770.656    1944.4507   -27715.107    -222.6342    348.93697    78.596116    18.350778    27.483161 
   47600    236.43641   -246.27773    263624.46   -25745.639     1913.456   -27659.095   -575.13525    349.05754    78.595702     18.35087    27.492791 
   47800    241.34275    -151.9514    263624.46   -25764.946    1953.1625   -27718.108   -125.16598    349.66655     78.59556    18.350292    27.480629 
   48000    238.31476   -180.87354    263624.46   -25774.563    1928.6574   -27703.221   -286.28169    350.68458    78.596072     18.34985    27.485901 
   48200    241.10501   -327.80414    263624.46   -25762.085    1951.2386   -27713.324     -902.974    352.66779    78.594941    18.350269    27.473962 
   48400    242.14133   -209.67071    263624.46   -25784.759    1959.6254   -27744.384   -382.37897      354.929    78.595397    18.349837      27.4764 
   48600    236.54545   -234.11631    263624.46    -25851.19    1914.3385   -27765.529   -514.29223    355.13236    78.598276    18.350715    27.498052 
   48800    237.80758   -357.60175    263624.46   -25806.034    1924.5528   -27730.587   -1043.9798    354.05077    78.600226    18.350458    27.497592 
   49000    239.41478   -296.96631    263624.46   -25793.375    1937.5597   -27730.934   -827.15798    353.56387    78.599137    18.349837    27.479474 
   49200    242.67736     -223.686    263624.46   -25768.903    1963.9634   -27732.867   -451.12761    354.36817    78.600671    18.347979    27.462228 
   49400    232.79251   -321.81981    263624.46    -25861.25    1883.9663   -27745.217   -894.80052    354.84823    78.601876    18.346754    27.471154 
   49600    234.06821   -395.22607    263624.46   -25776.954    1894.2905   -27671.245   -1255.0442    355.95927    78.602252    18.347774    27.489353 
   49800    238.27301   -309.50254    263624.46   -25782.878    1928.3195   -27711.197   -889.16385    357.21821    78.600927    18.349344    27.491795 
   50000    238.21178   -200.58549    263624.46   -25781.222     1927.824   -27709.046   -382.16438    357.55535    78.600584    18.350998     27.51461 
   50200    236.24571   -301.80614    263624.46   -25691.823    1911.9128   -27603.735   -831.26199    358.90823    78.599277     18.35249    27.515911 
   50400    237.07933    -287.4519    263624.46   -25685.672    1918.6591   -27604.331   -714.07762    360.48229    78.599193    18.354672     27.52491 
   50600    242.34455   -246.81531    263624.46   -25581.392      1961.27   -27542.662   -567.65964    361.70277    78.599907    18.357869    27.516627 
   50800    238.31033    -222.4264    263624.46   -25730.148    1928.6215   -27658.769   -470.36037    360.19515     78.59928    18.359045     27.52039 
   51000    238.12308   -302.56415    263624.46   -25715.409    1927.1061   -27642.515   -833.58584    362.52599    78.599513    18.357852    27.544002 
   51200    234.75141   -266.69333    263624.46   -25808.525    1899.8195   -27708.344   -653.25523    364.62002    78.597115    18.356868    27.543971 
   51400    236.87505   -309.54527    263624.46   -25776.288    1917.0059   -27693.294     -860.407    365.53054    78.595746    18.354563    27.550348 
   51600    239.47596   -282.45716    263624.46   -25749.788    1938.0548   -27687.843   -749.63826    366.29457    78.595563    18.355441    27.558808 
   51800    243.23121   -237.19161    263624.46     -25717.4    1968.4456   -27685.846   -537.55762    368.41992    78.594426    18.355502    27.552311 
   52000    241.20731   -92.710578    263624.46   -25764.958    1952.0665   -27717.025    129.60956    371.43351    78.594218    18.353813    27.556119 
   52200      233.843   -253.66068    263624.46   -25827.318    1892.4679   -27719.786   -621.90396    371.06799    78.594748    18.353538     27.56559 
   52400    233.54704   -394.94121    263624.46   -25855.838    1890.0727    -27745.91   -1228.2209    371.76454    78.595123    18.353641    27.549625 
   52600    238.57722   -349.67824    263624.46   -25721.645    1930.7814   -27652.426   -1035.1696    371.71603    78.594649     18.35455    27.535401 
   52800    242.99463   -152.78446    263624.46   -25671.223    1966.5311   -27637.754   -186.05067    373.37143    78.594153    18.356939     27.52315 
   53000    245.90958   -386.06661    263624.46   -25701.211    1990.1215   -27691.333   -1208.7209    373.73596    78.591303    18.357112    27.507102 
   53200    243.81019     -218.309    263624.46   -25833.149    1973.1313    -27806.28   -439.52938    376.31113    78.592494    18.358641     27.50719 
   53400    240.36525   -217.27538    263624.46   -25719.719    1945.2518   -27664.971   -482.64201       379.25    78.592857    18.360037    27.494686 
   53600    235.94005   -388.98704    263624.46   -25793.553    1909.4391   -27702.992   -1260.2728    381.14071    78.592029    18.359581    27.497157 
   53800    242.85843    -258.4609    263624.46   -25743.794    1965.4288   -27709.223   -600.67886    381.56101    78.592572    18.359716    27.481828 
   54000    238.11047    -222.4738    263624.46   -25753.508    1927.0041   -27680.512    -497.8835    384.17365    78.592672    18.357627    27.478371 
   54200    244.87761   -156.86663    263624.46   -25706.899    1981.7699   -27688.669   -163.73319     384.8709    78.592546    18.356251    27.494651 
   54400    245.59523   -303.09464    263624.46   -25741.374    1987.5775   -27728.952   -847.65467    385.47547    78.593004    18.358328    27.482496 
   54600    244.84995   -220.74038    263624.46   -25764.875     1981.546   -27746.421    -481.6493    386.87965    78.592809    18.360345    27.493081 
   54800     243.0007   -296.75099    263624.46   -25743.401    1966.5802   -27709.981   -794.55513    389.24331    78.592679    18.360312    27.489042 
   55000    244.11432   -228.72407    263624.46   -25686.272    1975.5926   -27661.864   -525.31288    387.77714    78.593747    18.358334    27.480073 
   55200    234.75883    -294.5832    263624.46    -25835.78    1899.8796    -27735.66   -814.60502    389.09739    78.592621    18.358257    27.454278 
   55400    238.19944   -363.65691    263624.46   -25786.827    1927.7241   -27714.551   -1149.0021    388.84698    78.590415     18.35738    27.435935 
   55600    236.47516   -270.95895    263624.46   -25705.875    1913.7696   -27619.645   -717.75527    388.74788    78.589945     18.35569    27.438416 
   55800    239.51127   -240.63036    263624.46   -25690.671    1938.3406   -27629.012   -540.48377    390.11293    78.590903    18.356644    27.453589 
   56000    241.96802   -191.69213    263624.46   -25664.949    1958.2228   -27623.172   -322.88021    392.88076    78.593406    18.358723    27.483621 
   56200    245.46877   -67.355531    263624.46   -25698.296     1986.554    -27684.85    222.68881    393.15586    78.595752    18.360288    27.479618 
   56400    235.24974   -207.18681    263624.46   -25818.199    1903.8525   -27722.051   -440.74146    395.47937    78.596355    18.360277    27.474199 
   56600    236.01395   -387.93855    263624.46   -25879.327    1910.0371   -27789.364   -1197.5315    397.72425    78.594585    18.357554    27.446249 
   56800    241.80995   -242.29383    263624.46    -25767.16    1956.9436   -27724.104   -580.06885    396.74985    78.595567    18.354005    27.453436 
   57000    232.18381    -253.8121    263624.46   -25850.233    1879.0402   -27729.274   -666.06902    396.62347    78.595642    18.351901    27.450612 
   57200    242.07322   -251.03536    263624.46   -25730.222    1959.0742   -27689.296   -587.54224    398.18297    78.594667    18.348912     27.43385 
   57400    237.56939   -229.40666    263624.46   -25783.531    1922.6251   -27706.156   -490.25337    399.12618    78.593998    18.348237    27.430788 
   57600    236.99171   -266.88148    263624.46   -25878.052    1917.9501   -27796.002   -680.84997    401.27297    78.596141    18.348899    27.438635 
   57800    242.34776   -185.73939    263624.46   -25728.585     1961.296   -27689.881   -267.27701    402.66266    78.597937    18.349391    27.454428 
   58000    235.99811   -251.95238    263624.46   -25730.239    1909.9089   -27640.148    -594.8264    404.54411    78.599493    18.348471    27.449931 
   58200    245.79324   -270.68871    263624.46   -25715.198    1989.1799   -27704.378   -669.28481    407.68664     78.59925    18.350344    27.441939 
   58400    243.60061   -357.05519    263624.46   -25783.144    1971.4352   -27754.579   -1084.1413    408.02241    78.598079    18.350023    27.439478 
   58600    238.49977   -391.04953    263624.46   -25806.221    1930.1546   -27736.375   -1195.6549    410.22559    78.598146    18.349429    27.432707 
   58800    237.81492   -266.92019    263624.46   -25793.975    1924.6122   -27718.587   -678.28489    411.62431     78.59852    18.349574    27.437129 
   59000     244.6582   -169.96147    263624.46    -25707.02    1979.9942   -27687.014   -223.88569    413.36458    78.601415    18.350299    27.436778 
   59200     240.3781   -545.17107    263624.46    -25764.62    1945.3558   -27709.976   -1929.6295    413.72345    78.600236    18.349643    27.457054 
   59400    239.05842   -344.75398    263624.46   -25780.499    1934.6757   -27715.175   -1049.4227    413.52552    78.600451    18.348335    27.448264 
   59600    239.41741   -296.92088    263624.46   -25759.545     1937.581   -27697.126   -852.43486     414.5207    78.599787    18.346458    27.476126 
   59800    234.92451   -198.53316    263624.46   -25888.774    1901.2204   -27789.994    -385.4502    413.90829    78.600216    18.346162    27.464321 
   60000    235.91126   -339.18948    263624.46   -25791.102     1909.206   -27700.308    -992.7549    417.23394    78.599324    18.345798    27.456497 
   60200     233.9208   -331.59077    263624.46   -25781.628    1893.0975   -27674.726   -956.75099    416.30033    78.599233    18.345473    27.453581 
   60400    243.01642   -316.66002    263624.46   -25653.901    1966.7074   -27620.609   -938.79828    417.32835    78.598582     18.34613    27.469021 
   60600    236.30617    -404.7505    263624.46   -25736.392     1912.402   -27648.794   -1271.9586    419.43436    78.597769    18.345031    27.471854 
   60800    248.19626   -199.72368    263624.46   -25637.378    2008.6274   -27646.006   -403.95621    418.21812    78.597596    18.344246    27.460878 
   61000    235.51968   -327.95262    263624.46   -25732.194    1906.0371   -27638.231   -954.84198    421.19407     78.59723    18.345019     27.43422 
   61200    242.81752   -279.25378    263624.46   -25695.151    1965.0977   -27660.249   -688.26508    423.76117    78.598239    18.345071     27.46099 
   61400     240.3131   -319.46115    263624.46   -25715.395    1944.8297   -27660.225   -894.91097    423.01627     78.59989    18.347153    27.456858 
   61600    240.30446   -73.843143    263624.46   -25761.317    1944.7598   -27706.077    190.38722    423.83108    78.598166    18.348033    27.450677 
   61800    238.47118   -354.73353    263624.46   -25807.477    1929.9232     -27737.4   -1096.2825    425.73827    78.597617    18.348367    27.445483 
   62000     237.4326   -268.15699    263624.46   -25704.805    1921.5181   -27626.323   -685.02531     425.2762    78.600138    18.348853    27.464834 
   62200    246.04779   -342.17857    263624.46   -25689.371      1991.24   -27680.611   -1007.7969    427.31864     78.60247    18.348999    27.449438 
   62400    235.83366   -313.36078    263624.46   -25709.864     1908.578   -27618.442     -882.599    430.70134    78.600936    18.347238    27.448405 
   62600    239.86463    -358.8825    263624.46   -25707.439    1941.2003   -27648.639   -1094.3266    433.20757    78.601835     18.34549    27.460521 
   62800    239.61291   -263.35201    263624.46   -25761.666    1939.1632   -27700.829    -681.5492    434.71244    78.603532    18.342378     27.47353 
   63000    237.03411   -67.146485    263624.46   -25774.662    1918.2932   -27692.955    227.04556    434.26283    78.604852    18.342052    27.498786 
   63200      245.794   -169.22927    263624.46   -25702.604    1989.1861    -27691.79   -214.93259     435.9395    78.606323     18.34106    27.491015 
   63400    237.71617   -320.33404    263624.46   -25819.404     1923.813   -27743.217   -910.73615    437.01284    78.606092    18.338754    27.479536 
   63600    238.40056   -268.22991    263624.46   -25831.626    1929.3517   -27760.978   -669.10501    438.68208    78.606353    18.335694    27.490189 
   63800     231.3723    -229.3679    263624.46   -25900.986    1872.4727   -27773.459   -503.81502    438.69498    78.606391    18.334326    27.478592 
   64000      237.217   -432.09974    263624.46   -25737.674    1919.7733   -27657.447   -1416.2707    439.45888    78.606467    18.333843    27.489291 
   64200    241.22118   -311.95383    263624.46   -25735.089    1952.1787   -27687.267   -890.52874    439.77204    78.605567    18.334967    27.498614 
   64400    236.35793   -113.97717    263624.46    -25787.23     1912.821   -27700.051    -12.54832    438.91336    78.604164    18.334433    27.521661 
   64600     234.8437   -249.77239    263624.46   -25808.146    1900.5664   -27708.712   -586.10861    439.21006    78.602894    18.334068    27.536311 
   64800    242.29359   -401.12527    263624.46   -25750.293    1960.8576   -27711.151   -1296.9285    440.93431    78.603523    18.334246    27.538503 
   65000    242.74226   -168.23207    263624.46   -25685.187    1964.4886   -27649.675   -211.85231    441.31359    78.603841    18.335351    27.548102 
   65200    241.06662   -383.33346    263624.46   -25730.607    1950.9279   -27681.535   -1207.2182    443.52053    78.605285    18.334999    27.550665 
   65400    237.53032   -274.04512    263624.46   -25677.521    1922.3089    -27599.83    -678.8293    446.33277    78.605276    18.335232    27.555054 
   65600    239.75792   -362.66675    263624.46   -25599.326    1940.3367   -27539.663    -1125.629    447.51783    78.604989    18.337169    27.529072 
   65800    238.10155   -213.65892    263624.46   -25687.605    1926.9319   -27614.537   -442.67782    448.21134    78.605455     18.33577    27.531739 
   66000    247.60841   -276.63779    263624.46   -25721.006    2003.8699   -27724.876   -706.20407    450.44362    78.605531    18.337176    27.544456 
   66200    239.30208   -461.98792    263624.46   -25753.884    1936.6476   -27690.532   -1540.8212    451.72158    78.603831    18.334894       27.544 
   66400    241.15673   -345.57426    263624.46   -25769.034    1951.6572   -27720.691   -1034.1668    451.39569    78.602144    18.334453    27.549417 
   66600    240.06715   -423.86218    263624.46   -25764.878    1942.8392   -27707.717   -1348.5415    452.46023     78.60269    18.333298    27.551882 
   66800    234.16792   -283.25852    263624.46   -25803.525    1895.0974   -27698.622   -744.49453    452.30425    78.603296    18.332052     27.56569 
   67000    236.16684   -311.42708    263624.46   -25876.593    1911.2744   -27787.868   -884.35924    453.88027    78.603035    18.329669    27.561984 
   67200    236.71553   -358.73227    263624.46   -25804.181     1915.715   -27719.896   -1074.6283    454.80186    78.603599    18.329131    27.560891 
   67400    243.66045   -370.62686    263624.46   -25782.347    1971.9195   -27754.266   -1140.3381    455.96846    78.603516    18.324796    27.552428 
   67600     239.1529   -160.07646    263624.46   -25688.378    1935.4403   -27623.818   -198.50553    456.81394    78.603202    18.326323    27.565125 
   67800    237.56087   -425.00631    263624.46   -25782.723    1922.5562   -27705.279   -1367.9034    457.35853    78.604274    18.326627    27.553919 
   68000     240.8346   -314.76081    263624.46   -25815.637    1949.0502   -27764.687   -907.80505    457.20789     78.60318    18.326131    27.563374 
   68200    234.69528   -234.89625    263624.46    -25841.03    1899.3652   -27740.395   -559.13249    456.97171    78.603423    18.327278    27.531428 
   68400    242.96091   -165.18585    263624.46   -25725.165    1966.2582   -27691.423   -202.45234    458.34718    78.603176    18.327347    27.537066 
   68600    239.04715   -369.18246    263624.46   -25756.176    1934.5845   -27690.761   -1150.0585    458.60835    78.603335     18.33026    27.530605 
   68800    237.05906   -373.20505    263624.46   -25734.689    1918.4951   -27653.184   -1168.8708    462.41015    78.604245    18.331301    27.529128 
   69000    242.89277    -238.2494    263624.46   -25752.258    1965.7068   -27717.965    -519.1966    462.80507    78.603471    18.331579    27.510335 
   69200    239.20214   -267.35686    263624.46   -25783.014    1935.8389   -27718.853    -673.2543     463.4762    78.602297    18.332803    27.507243 
   69400    234.87693   -317.88458    263624.46   -25846.662    1900.8353   -27747.497   -928.20745    462.94926    78.602123    18.333226    27.508987 
   69600    249.69589   -352.84494    263624.46   -25622.256    2020.7637   -27643.019   -1083.2009    464.31199    78.602742    18.334938    27.515903 
   69800    240.33732   -180.47824    263624.46   -25761.869    1945.0257   -27706.894   -262.22201    465.57138    78.600973    18.333005    27.529304 
   70000    237.55766   -232.45664    263624.46   -25665.649    1922.5302   -27588.179   -542.80677    469.48333    78.601794    18.332491    27.525094 
   70200    242.19104   -474.75503    263624.46   -25665.846    1960.0277   -27625.874   -1615.3032    471.95978    78.600928     18.33007    27.517932 
   70400    241.41038   -201.73227    263624.46   -25612.543    1953.7099   -27566.253   -355.22797     471.4379    78.601041    18.329599    27.495146 
   70600    239.77476   -307.44473    263624.46   -25672.078     1940.473   -27612.551   -879.82333     473.2899    78.602245    18.329647     27.50709 
   70800    242.60618   -263.40715    263624.46   -25692.867    1963.3874   -27656.254   -650.03576    475.25521    78.605804    18.328596    27.508045 
   71000    235.63522   -373.64818    263624.46   -25710.502    1906.9721   -27617.475   -1160.5471    475.62809    78.607587    18.327614    27.514382 
   71200    239.19193   -388.56964    263624.46   -25659.536    1935.7562   -27595.292   -1197.3991    477.83858    78.607553    18.326829    27.533564 
   71400    238.53066   -335.03001    263624.46   -25716.969    1930.4046   -27647.374   -1021.4834    479.79679    78.607634    18.328851     27.54845 
   71600    242.20844   -193.85875    263624.46   -25680.911    1960.1685   -27641.079   -386.43254    480.65983    78.606957    18.328788    27.550699 
   71800    231.61191   -268.40554    263624.46    -25765.89    1874.4118   -27640.302   -734.98171    483.90631    78.607144    18.331113    27.552478 
   72000    239.96747   -136.50647    263624.46   -25739.493    1942.0326   -27681.526   -63.379701    484.53755    78.606114    18.327536    27.554288 
   72200    247.51475   -434.97495    263624.46   -25597.578     2003.112    -27600.69   -1406.8149    487.63471    78.606834    18.328957    27.547545 
   72400    237.71331   -358.23709    263624.46     -25726.1    1923.7898    -27649.89    -1100.477    486.45201    78.605474    18.330896    27.550503 
   72600    247.97351   -263.55858    263624.46   -25640.179    2006.8247   -27647.004   -646.38009    484.29976    78.605909    18.330274    27.568845 
   72800    244.19134   -360.59044    263624.46   -25716.389    1976.2159   -27692.605   -1081.7347    487.46501    78.603558    18.331186     27.55705 
   73000    242.04051   -250.28689    263624.46   -25745.261    1958.8095    -27704.07   -619.84275    488.51701    78.604348    18.330947     27.55449 
   73200    241.51974   -140.58548    263624.46   -25652.646     1954.595   -27607.241   -125.41784    488.42499    78.605133    18.330751    27.535604 
   73400    243.24315   -261.22177    263624.46   -25640.221    1968.5423   -27608.764   -699.93002    488.40038    78.605089    18.328239    27.547706 
   73600    244.70172   -15.430049    263624.46     -25639.2    1980.3464   -27619.547    421.08264    489.36234    78.605324    18.328508    27.544334 
   73800    238.43266   -252.57479    263624.46   -25780.151    1929.6115   -27709.763   -607.47693    493.00268    78.605155    18.329649      27.5475 
   74000    232.33565   -330.72829    263624.46   -25763.478     1880.269   -27643.747   -977.20613    491.83383    78.606237    18.331308    27.548622 
   74200    238.79157   -381.77903    263624.46   -25685.386    1932.5161   -27617.902   -1176.7869    494.32696    78.606938    18.331001    27.542909 
   74400    238.40017   -229.40986    263624.46   -25651.766    1929.3486   -27581.115   -528.56973    493.84038    78.607419    18.333027    27.535882 
   74600    239.85828   -278.64477    263624.46   -25712.998    1941.1489   -27654.146   -738.20907    495.40845    78.607284    18.337665     27.55204 
   74800    236.81715   -295.21907    263624.46   -25717.787    1916.5373   -27634.325   -817.53714    496.99015    78.607025    18.338897    27.573553 
   75000     236.9291    -301.5738    263624.46   -25735.259    1917.4433   -27652.702   -811.58996    498.27733    78.606287    18.339625    27.563041 
   75200    245.96406    -288.3545    263624.46   -25678.042    1990.5623   -27668.604   -776.82294    500.74364     78.60569    18.338935    27.556121 
   75400    237.04769   -400.44212    263624.46   -25747.394    1918.4031   -27665.797   -1322.6333    505.59555    78.605769    18.340572    27.568458 
   75600    242.16354   -155.08009    263624.46   -25716.258    1959.8051   -27676.063   -217.51929    506.98345    78.605783    18.340935     27.56282 
   75800    241.37234   -435.75713    263624.46   -25670.049     1953.402   -27623.451   -1454.5164    508.43551    78.607343    18.339102    27.557434 
   76000    248.18713    70.933029    263624.46   -25679.106    2008.5534    -27687.66    792.24211    507.08649    78.606123    18.339334    27.539245 
   76200    233.78966   -290.76044    263624.46   -25756.617    1892.0362   -27648.653   -810.11339     510.1222    78.606493    18.338547    27.552748 
   76400    238.88119   -182.58655    263624.46   -25737.468    1933.2414    -27670.71   -358.78017    509.74182    78.607828    18.339196    27.556906 
   76600    238.34043   -392.22049    263624.46   -25689.809    1928.8651   -27618.674   -1262.4084    509.43942    78.607664    18.340117    27.560358 
   76800    236.24673   -323.19285    263624.46   -25723.032     1911.921   -27634.953   -942.48816     510.7538    78.606613    18.340182    27.566291 
   77000    244.79071   -141.92252    263624.46   -25609.649    1981.0666   -27590.716   -116.26298    510.62605    78.606831     18.33789    27.547788 
   77200    234.82342   -292.56163    263624.46   -25624.333    1900.4023   -27524.735   -795.90996    511.05044    78.608266    18.336286    27.546254 
   77400    233.53025    -197.7912    263624.46   -25638.295    1889.9368   -27528.232   -378.04317    510.48821    78.607826    18.337219     27.54976 
   77600    234.54573   -211.69832    263624.46   -25707.848     1898.155   -27606.003   -441.26444    513.04454    78.608929     18.33797    27.547265 
   77800     237.4066   -247.99386    263624.46   -25759.286    1921.3077   -27680.593   -620.52483    513.41181    78.610038    18.336397    27.552166 
   78000    243.41127     -270.908    263624.46   -25753.733    1969.9029   -27723.636   -716.29895    513.68752    78.610174    18.335571    27.548947 
   78200    240.69255   -314.79616    263624.46   -25780.128    1947.9006   -27728.029   -891.21819    513.76651    78.611713    18.335042    27.544153 
   78400    236.30713   -341.96664    263624.46   -25742.626    1912.4098   -27655.036   -1037.3307    513.75275    78.612402    18.333425    27.543567 
   78600    243.30282   -170.52069    263624.46   -25712.634    1969.0252    -27681.66   -251.78111    515.78561    78.612938    18.334169    27.534662 
   78800    236.06529   -289.00501    263624.46   -25692.715    1910.4526   -27603.168   -800.73805    516.88868    78.612309    18.332919     27.55043 
   79000    240.91638   -40.525756    263624.46   -25708.179     1949.712   -27657.891    347.72507    517.60556    78.610281    18.332208    27.555644 
   79200    237.52143   -122.00405    263624.46   -25681.489     1922.237   -27603.727   -49.795238    518.65519    78.611413    18.332651    27.561448 
   79400    238.88149   -332.70321    263624.46   -25649.303    1933.2438   -27582.546    -971.2196    521.21533    78.609192    18.331317    27.562195 
   79600     238.2423   -95.945445    263624.46   -25750.917     1928.071   -27678.988    69.501819    522.24414    78.609407    18.328382    27.571868 
   79800    241.42685   -254.79864    263624.46   -25700.575    1953.8431   -27654.418   -655.81081    524.98653    78.608818    18.326016    27.573413 
   80000    237.62196   -209.70193    263624.46   -25705.558    1923.0506   -27628.609   -436.13839    525.79124    78.607026    18.325102    27.569865 
   80200     234.0104   -426.09603    263624.46   -25728.442    1893.8226   -27622.265   -1413.1401    529.13048    78.605565    18.325366    27.575949 
   80400    232.17931   -268.23896    263624.46   -25712.664    1879.0038   -27591.667   -731.22529    529.53525    78.605932    18.324383    27.578834 
   80600    243.06148   -333.36253    263624.46   -25672.698    1967.0721    -27639.77   -975.72205    532.17781     78.60598    18.323682    27.589366 
   80800    243.70103   -296.89751    263624.46   -25674.324    1972.2479   -27646.572   -826.49319    532.60693     78.60571    18.323951    27.594915 
   81000    238.31382   -271.86783    263624.46   -25682.214    1928.6497   -27610.864   -699.86376    534.27148    78.607129    18.324133    27.589042 
   81200    241.88096   -278.60567    263624.46   -25706.255    1957.5182   -27663.773   -771.72142    536.16067    78.607357    18.324921    27.595017 
   81400    238.93709   -237.09695    263624.46   -25695.668    1933.6938   -27629.361    -518.3343    536.78702     78.60627    18.327983    27.589653 
   81600    239.27078    -266.1654    263624.46   -25745.637    1936.3943   -27682.031   -693.17944    539.41457    78.607291    18.327105    27.583866 
   81800    236.78358   -307.60917    263624.46   -25810.364    1916.2656    -27726.63    -864.4558    541.47021    78.606813    18.324723    27.583006 
   82000     245.0277   -204.58386    263624.46   -25710.527    1982.9845   -27693.511   -424.88296    543.32986    78.604733    18.323726    27.583289 
   82200    243.41663   -371.43202    263624.46   -25643.258    1969.9463   -27613.204   -1141.8869    544.51018    78.603522    18.325271    27.592264 
   82400    242.08831   -238.73964    263624.46   -25680.172    1959.1963   -27639.368   -583.67355    546.95008    78.605088    18.326133    27.572093 
   82600    244.15383   -148.51978    263624.46   -25622.083    1975.9124   -27597.995   -154.62421    545.95337    78.606115    18.326067     27.57309 
   82800    238.29775   -350.89861    263624.46   -25739.627    1928.5197   -27668.147   -1075.1496    548.41508    78.604647    18.324085    27.581372 
   83000    240.49183   -367.13586    263624.46   -25671.435    1946.2762   -27617.711   -1157.7315    549.51402    78.602745    18.325398     27.57725 
   83200     237.8054   -249.06757    263624.46   -25722.319    1924.5352   -27646.854   -616.44969    549.35868    78.602997     18.32442    27.581798 
   83400    241.16116   -206.91104    263624.46   -25684.329     1951.693   -27636.022   -431.15555    549.73235     78.60407    18.322673    27.582759 
   83600    239.33141   -217.13413    263624.46   -25769.476     1936.885   -27706.361   -453.85167    551.93984     78.60484    18.322367    27.572173 
   83800    241.65827    -145.2463    263624.46    -25719.53    1955.7161   -27675.246   -166.64868    551.80051    78.604779     18.32101     27.56326 
   84000    245.07022   -232.27966    263624.46   -25682.471    1983.3286     -27665.8   -513.06277    553.78647    78.606632    18.321028    27.567682 
   84200    239.60354   -162.03209    263624.46   -25655.177    1939.0873   -27594.265   -223.86109    554.37037    78.604325    18.320729    27.579453 
   84400    243.53235   -232.32435    263624.46   -25723.215    1970.8828   -27694.097   -551.35235    557.43496    78.604402    18.318539    27.559987 
   84600    244.76394   -219.36137    263624.46   -25662.958    1980.8499   -27643.808   -515.00829    558.18083    78.604878    18.318462     27.56445 
   84800    242.23793   -290.10672    263624.46   -25685.798    1960.4072   -27646.205   -820.10419    557.03943    78.604604    18.319045    27.560887 
   85000    240.65602   -223.17242    263624.46   -25673.815    1947.6049    -27621.42   -498.63296    560.52852    78.605637    18.316481    27.577969 
   85200    237.50292   -282.91587    263624.46   -25685.671    1922.0872   -27607.758   -768.92589    561.31131    78.605223    18.315894    27.551841 
   85400    239.81164     -201.566    263624.46   -25746.942    1940.7714   -27687.713   -411.00585    563.03801    78.605163    18.316151    27.547673 
   85600    236.47513   -278.06518    263624.46   -25750.297    1913.7694   -27664.066   -700.43626    566.52772    78.605848     18.31615    27.566705 
   85800     238.9038   -270.64613    263624.46   -25691.826    1933.4244    -27625.25   -705.15271    567.51857    78.603644     18.31618    27.585541 
   86000      240.789   -250.43932    263624.46   -25728.847    1948.6812   -27677.529   -618.68999    568.16879    78.604109    18.315761    27.577592 
   86200    240.60334   -297.90142    263624.46   -25680.238    1947.1786   -27627.417   -826.98557    568.61134    78.602334    18.314738    27.586714 
   86400    240.05964   -326.36034    263624.46   -25735.789    1942.7785   -27678.568   -982.11065    569.08467     78.60322    18.315286    27.587367 
   86600    237.54038   -273.14221    263624.46   -25674.809    1922.3904   -27597.199   -694.04354     568.0988    78.602364    18.316751    27.592964 
   86800    233.91336   -220.49492    263624.46   -25798.168    1893.0373   -27691.206   -447.86789     567.6041    78.603297    18.316918    27.586404 
   87000    245.44256   -282.69493    263624.46   -25710.714    1986.3419   -27697.056   -789.39879     568.3009    78.603525    18.317917    27.576119 
   87200    237.74802   -290.35451    263624.46   -25707.522    1924.0708   -27631.592   -825.82099     568.7569    78.604408    18.317501    27.569074 
   87400    240.60503   -328.57992    263624.46   -25761.454    1947.1923   -27708.646   -986.47355    570.32866    78.603644    18.316106    27.588371 
   87600    236.92963   -177.94607    263624.46   -25689.709    1917.4477   -27607.157   -323.09904    570.81376    78.604778    18.316963    27.592662 
   87800    239.59606    -291.0045    263624.46    -25706.19    1939.0268   -27645.217   -834.15618    572.22689    78.606343    18.315787    27.597797 
   88000    235.75003   -291.35308    263624.46   -25706.524    1907.9012   -27614.425   -807.50684    574.64327    78.606528    18.314142    27.584744 
   88200    236.35401   -70.080888    263624.46   -25787.815    1912.7892   -27700.605    163.26468    574.83521    78.606482    18.311136    27.574318 
   88400    243.08897   -402.14584    263624.46   -25689.334    1967.2946   -27656.629   -1310.8769    579.09162    78.607059     18.30835    27.572219 
   88600    238.57273   -259.87327    263624.46   -25731.739    1930.7451   -27662.484    -675.6494    578.90646    78.606875     18.30859    27.549057 
   88800    235.69274   -272.68417    263624.46   -25723.631    1907.4376   -27631.069   -732.28675    580.43935    78.608208    18.309253    27.555156 
   89000    242.72757   -236.46595    263624.46   -25648.553    1964.3697   -27612.923   -556.43244    582.48672    78.609739    18.309671    27.542982 
   89200    238.42498   -300.64658    263624.46   -25688.519    1929.5493   -27618.069   -865.53169    585.31467    78.611373    18.311388    27.532014 
   89400    240.51176   -280.36603    263624.46   -25729.114    1946.4375   -27675.551   -750.22133    585.73474    78.611028    18.313885     27.51779 
   89600    233.34425   -166.56886    263624.46   -25821.058    1888.4315   -27709.489   -264.74605    583.93902    78.609432    18.316154    27.500493 
   89800    242.04443   -254.61789    263624.46   -25727.696    1958.8412   -27686.537   -651.10972    584.63734    78.608867    18.318154    27.492365 
   90000    240.74086   -380.86939    263624.46   -25763.136    1948.2915   -27711.428   -1173.3482    584.09246    78.609717    18.318378    27.480271 
   90200    232.41371   -235.50592    263624.46   -25800.509    1880.9007    -27681.41   -530.91659    583.87076    78.610289    18.318503      27.4943 
   90400    235.72192   -457.46763    263624.46   -25761.788    1907.6737   -27669.462   -1565.2346    585.83568    78.610155     18.31735    27.487573 
   90600    242.63297    -328.2975    263624.46   -25723.705    1963.6042   -27687.309    -1015.381    586.80797    78.612343    18.317464    27.462497 
   90800    238.55887   -327.54076    263624.46   -25736.111    1930.6329   -27666.744   -964.89887    588.17253    78.613317    18.318346     27.45277 
   91000    238.23687   -310.69231    263624.46   -25784.528     1928.027   -27712.555   -924.54848     588.8791    78.612605    18.315695    27.467657 
   91200    232.26306   -426.56659    263624.46    -25861.21    1879.6815   -27740.891   -1384.1869    591.42699    78.613032    18.315006    27.451159 
   91400    236.31542   -240.13043    263624.46   -25752.037    1912.4769   -27664.514   -561.20543    590.23313    78.612507    18.313536    27.440727 
   91600    243.70853    -292.4542    263624.46    -25637.52    1972.3086   -27609.828   -825.76504    591.66379    78.614541    18.311963    27.456229 
   91800    245.59713   -291.13269    263624.46   -25664.738    1987.5928   -27652.331   -787.66446    594.46771    78.615891    18.311847    27.445718 
   92000    241.29689   -213.74552    263624.46    -25679.06    1952.7914   -27631.851    -469.9853    597.31093    78.618296    18.312455    27.444182 
   92200    239.51703   -189.49236    263624.46   -25707.597    1938.3872   -27645.984   -356.18595    596.12891    78.617841    18.311166    27.439564 
   92400     242.8994   -238.23957    263624.46   -25696.572    1965.7604   -27662.332   -580.20136    598.26828    78.618732    18.309381    27.426605 
   92600    244.75371   -127.66817    263624.46   -25658.479    1980.7672   -27639.246   -70.953814    601.30089    78.619073    18.308257    27.411656 
   92800    242.42528   -307.67609    263624.46   -25758.857    1961.9234    -27720.78   -889.52777    602.55278    78.618316    18.308617    27.427666 
   93000    239.31826   -191.29192    263624.46   -25776.801    1936.7786    -27713.58   -358.73171     603.8594    78.619949    18.309731    27.416749 
   93200    240.31056   -178.06604    263624.46    -25777.45    1944.8091    -27722.26   -362.48263    602.43794     78.62026    18.311091    27.425789 
   93400    235.67819   -286.38142    263624.46   -25818.801    1907.3199   -27726.121   -777.41052    603.77468    78.621326    18.312443    27.422268 
   93600    233.92637   -359.02635    263624.46   -25763.206    1893.1426   -27656.348   -1112.6022    604.98797    78.619912    18.313858    27.436665 
   93800    235.08637     -182.378    263624.46   -25751.728    1902.5303   -27654.258   -345.12714    603.25916    78.618484    18.312568    27.430328 
   94000    236.08372   -386.86315    263624.46   -25725.947    1910.6018   -27636.548   -1229.4853    605.40444    78.617377    18.310266    27.423091 
   94200    240.88457   -275.85163    263624.46   -25670.655    1949.4546    -27620.11    -774.7057    607.62705    78.616938    18.310434    27.421685 
   94400     233.7139   -308.18189    263624.46   -25714.445     1891.423   -27605.868   -882.04177    606.99331    78.615043    18.310769    27.414742 
   94600    239.37818   -285.44719    263624.46   -25730.376    1937.2635   -27667.639   -804.36974    610.24321    78.614238    18.308933    27.402658 
   94800    238.57044   -326.20701    263624.46   -25699.517    1930.7265   -27630.243   -970.50255    610.90988    78.613276    18.308099    27.413227 
   95000    240.04094   -266.12098    263624.46   -25698.423    1942.6272   -27641.051   -683.65203    613.88887    78.614083    18.309149    27.418329 
   95200    240.01598   -214.08415    263624.46    -25673.46    1942.4251   -27615.885   -475.02585    613.25895    78.615443    18.310378    27.419608 
   95400    237.75144   -247.06694    263624.46   -25631.932    1924.0985   -27556.031   -622.52153    615.84907     78.61845    18.311005     27.41688 
   95600    234.22062   -295.91177    263624.46   -25616.334    1895.5239   -27511.857   -861.21251    618.40965    78.619893    18.310567    27.432717 
   95800    243.57488   -291.10392    263624.46   -25640.683    1971.2269    -27611.91   -841.32336     621.7675    78.620486    18.309737    27.426987 
   96000    239.67059   -351.82421    263624.46   -25659.954    1939.6299   -27599.584   -1108.2048    621.55585    78.620557    18.308708    27.438593 
   96200    240.39257    -474.6699    263624.46   -25599.671    1945.4728   -27545.144    -1651.734    622.03161    78.619311    18.310026     27.44876 
   96400    239.88363   -235.09676    263624.46   -25635.707    1941.3541   -27577.061   -603.12516    622.80504    78.618141    18.309304    27.455014 
   96600    235.05647   -251.03828    263624.46   -25693.457    1902.2883   -27595.745   -643.68748    624.58896    78.618077    18.311214    27.452435 
   96800    241.93216   -370.32971    263624.46   -25686.517    1957.9326   -27644.449   -1168.3356    626.45734    78.619049    18.312925    27.448774 
   97000    236.50855   -242.18202    263624.46   -25723.821    1914.0399   -27637.861   -628.21344    630.11458    78.617788    18.312971    27.453606 
   97200    238.48912   -352.75122    263624.46   -25672.104    1930.0684   -27602.173   -1069.5782    632.51642    78.616078    18.311976    27.448896 
   97400    240.16712   -213.35729    263624.46   -25642.084    1943.6483   -27585.732   -454.31205    631.69836    78.615018     18.31156    27.438163 
   97600    242.79281   -213.44797    263624.46   -25623.373    1964.8978   -27588.271      -482.75    635.24108    78.613909    18.311293    27.432738 
   97800    239.99867    -279.9257    263624.46   -25657.089    1942.2851   -27599.374   -741.75438    639.40749    78.614057    18.311974    27.438718 
   98000     239.7599   -149.00505    263624.46   -25694.918    1940.3527   -27635.271   -149.43171    638.80226    78.611725    18.312808    27.433316 
   98200    235.89653   -266.56134    263624.46   -25695.371    1909.0868   -27604.458   -697.12257    640.67405    78.610087    18.310493    27.444078 
   98400    236.68373   -259.92725    263624.46    -25691.98    1915.4576   -27607.438    -657.7035    642.28547    78.607827    18.310312    27.454169 
   98600    238.34246   -278.58522    263624.46   -25685.691    1928.8815   -27614.573   -735.72668     644.3947    78.606557    18.308322    27.454432 
   98800    244.80288   -274.41074    263624.46   -25637.155     1981.165    -27618.32   -714.12479    647.29222    78.605653    18.306373    27.451612 
   99000    234.92147   -307.19604    263624.46   -25682.375    1901.1958   -27583.571   -840.31661    648.37583     78.60389    18.305204    27.452531 
   99200    240.18942   -204.69523    263624.46   -25676.855    1943.8288   -27620.684   -380.63105    648.19721    78.603498    18.306135    27.447598 
   99400    235.19655   -299.56601    263624.46   -25735.527     1903.422   -27638.949   -814.84808    652.50432    78.604858    18.308098    27.444948 
   99600     232.5527   -271.67285    263624.46   -25681.331    1882.0256   -27563.357    -730.4377    653.08837    78.605305    18.307499     27.43511 
   99800     237.5246    -149.7246    263624.46   -25685.675    1922.2626   -27607.938   -165.90839    652.31535    78.604021    18.308688    27.424079 
  100000    236.61764   -282.28245    263624.46   -25652.514    1914.9228   -27567.437   -733.37604     654.8597    78.603514    18.309984    27.415273 
  100200    240.75385   -190.69583    263624.46   -25736.909    1948.3967   -27685.306   -330.44078    655.09755    78.604296     18.30985    27.388183 
  100400    239.60202   -494.82464    263624.46   -25679.188     1939.075   -27618.263    -1726.551     657.1355    78.602736     18.30928    27.376155 
  100600    238.63005   -296.42467    263624.46   -25689.728    1931.2089   -27620.937   -803.14927    659.32316       78.602    18.308305    27.371311 
  100800    238.24007   -236.68227    263624.46   -25769.044    1928.0529   -27697.097    -549.2361    659.13079    78.603909    18.309822     27.38671 
[...]
 5176000    225.07912   -1004.5417    263624.46   -28501.941    1821.5426   -30323.484   -3790.4305    6671.8769    79.610686    18.478822    28.712645 
 5176200    230.30734   -986.69219    263624.46   -28455.884    1863.8541   -30319.738   -3705.9264    6671.9932    79.610622    18.478105    28.710885 
 5176400    221.75053   -1006.4187    263624.46   -28469.489    1794.6047   -30264.094   -3811.3774    6671.6789    79.608626    18.477934    28.716136 
 5176600    232.13315   -1026.5189    263624.46    -28405.42    1878.6302    -30284.05   -3925.7271    6672.1359    79.609698    18.476442    28.712582 
 5176800    225.61902   -956.39809    263624.46    -28441.25     1825.912   -30267.162    -3596.497    6671.4331    79.607666    18.475948    28.715596 
 5177000    225.04184   -1032.1125    263624.46   -28440.017    1821.2409   -30261.258   -3953.5417     6672.978    79.608744      18.4751    28.712027 
 5177200    228.25181   -1041.6515    263624.46   -28400.659    1847.2189   -30247.878    -3954.911    6670.9566    79.608013    18.474212    28.718516 
 5177400    227.78592   -940.04212    263624.46   -28375.192    1843.4485   -30218.641   -3502.3583    6669.9144    79.607439     18.47371    28.714015 
 5177600    230.19008   -972.75376    263624.46   -28370.669    1862.9051   -30233.575   -3675.0853    6671.5812    79.608382     18.47282    28.711237 
 5177800    227.60596   -1043.8515    263624.46   -28443.157    1841.9921   -30285.149   -3977.5042    6671.0648    79.608669    18.472756    28.719414 
 5178000    224.80708   -964.90525    263624.46   -28476.168     1819.341   -30295.509   -3647.4674     6670.143    79.608788    18.472081    28.717147 
 5178200    230.74633   -1011.8628    263624.46   -28444.413    1867.4068    -30311.82   -3833.3613    6673.4232    79.608296    18.472849    28.715153 
 5178400    225.60434   -1008.8031    263624.46   -28428.553    1825.7932   -30254.346   -3864.0575    6671.8889      79.6084     18.47296    28.724357 
 5178600    229.34317   -1047.4929    263624.46   -28446.962    1856.0512   -30303.013   -4014.8709    6671.3257    79.609052    18.472265     28.72274 
 5178800    225.22165   -1044.5095    263624.46   -28405.979    1822.6961   -30228.675    -3988.903    6671.9677    79.608205      18.4727    28.724237 
 5179000    226.18505   -1076.7404    263624.46    -28471.24    1830.4929   -30301.733   -4159.7276    6674.1294    79.607963    18.470791    28.724715 
 5179200    224.94025   -1005.5461    263624.46   -28489.237    1820.4188   -30309.655   -3851.2104    6669.9726    79.607406     18.46991    28.721886 
 5179400    233.18511   -1068.5493    263624.46   -28377.029    1887.1436   -30264.173   -4088.7711    6674.4926    79.607983    18.470271    28.721549 
 5179600    229.01345   -974.44767    263624.46   -28467.963    1853.3828   -30321.346   -3657.6946    6669.5406    79.607895    18.468681    28.715593 
 5179800    221.62376   -1107.9294    263624.46   -28504.512    1793.5788   -30298.091   -4302.0977    6673.1501    79.607645    18.467809    28.716475 
 5180000    217.84936   -1092.0742    263624.46   -28569.264    1763.0329   -30332.297   -4224.9539    6671.0327    79.607794    18.467036    28.712975 
 5180200    220.78979    -1014.363    263624.46   -28525.995    1786.8295   -30312.824   -3853.9435    6672.0719    79.607211    18.466373    28.720113 
 5180400    231.16195    -972.0252    263624.46   -28427.131    1870.7704   -30297.901   -3680.9628    6671.2817      79.6073    18.465848     28.70987 
 5180600     227.8911    -1032.592    263624.46    -28447.87    1844.2998    -30292.17   -3934.2889    6672.2155    79.604793    18.465117    28.708681 
 5180800    224.19237   -976.94252    263624.46   -28508.832    1814.3663   -30323.198   -3688.6241    6670.7248    79.604609    18.464803    28.708505 
 5181000     224.5682   -967.95756    263624.46   -28429.697    1817.4078   -30247.104   -3650.4599    6669.6175    79.604325    18.464568      28.7165 
 5181200     229.1999   -1062.1938    263624.46   -28514.313    1854.8917   -30369.204   -4053.7362    6671.1938    79.605556    18.462119    28.714571 
 5181400    226.25785   -930.54067    263624.46   -28463.453     1831.082   -30294.535   -3471.3368    6669.3075    79.603769    18.461152    28.714627 
 5181600    222.02189   -1038.9873    263624.46   -28511.113    1796.8008   -30307.913   -4000.5893    6672.9103    79.604314    18.460118    28.711533 
 5181800    233.32036   -916.29583    263624.46    -28454.81    1888.2382   -30343.048   -3412.5594    6668.2381    79.604071    18.459435    28.719823 
 5182000    229.86589    -1058.737    263624.46   -28457.474    1860.2815   -30317.756   -4042.4263    6673.6411    79.604147    18.458717    28.709458 
 5182200    231.37423    -1076.271    263624.46   -28427.661    1872.4883    -30300.15    -4166.905    6671.4808    79.602763    18.457264    28.713122 
 5182400    224.76599   -1078.1356    263624.46   -28506.041    1819.0085   -30325.049   -4156.0489    6671.0756    79.602259    18.457377    28.715242 
 5182600    223.28204   -1037.7842    263624.46   -28488.226     1806.999   -30295.225   -3983.2376    6669.8297    79.601971    18.455749    28.710106 
 5182800    227.93814   -1073.3916    263624.46   -28459.659    1844.6804    -30304.34   -4121.0515    6671.5996    79.600588    18.455712     28.71226 
 5183000    228.37621   -919.70127    263624.46   -28400.974    1848.2257   -30249.199   -3412.9473    6666.9154    79.601235    18.454589    28.707985 
 5183200    232.09504   -1032.2707    263624.46    -28444.92    1878.3218   -30323.241   -3948.3318    6672.4772    79.600777    18.454421    28.711479 
 5183400    218.80622   -918.44579    263624.46    -28541.46    1770.7767   -30312.237   -3420.6047    6670.2796    79.600893    18.454504    28.712664 
 5183600    226.05976   -1073.3222    263624.46   -28510.773    1829.4788   -30340.252    -4111.825    6669.0808    79.600859    18.452974    28.716026 
 5183800    225.75551   -1035.3318    263624.46   -28503.496    1827.0166   -30330.512   -3968.5711    6669.5614    79.600091    18.453002    28.709817 
 5184000    227.85022   -969.31273    263624.46   -28467.063    1843.9689   -30311.032   -3704.2933    6672.0748    79.600251    18.451601    28.712833 
 5184200    225.40031   -976.04259    263624.46   -28459.763     1824.142   -30283.905   -3734.4488    6670.9932    79.600478    18.452032    28.708783 
 5184400    227.36265   -1056.7838    263624.46   -28457.719     1840.023   -30297.742   -4037.3258    6669.0757    79.600486    18.452175    28.705846 
 5184600     232.5989   -1051.3206    263624.46    -28475.17    1882.3995   -30357.569   -4038.8865    6672.5075    79.599611      18.4516    28.707308 
 5184800    227.98194   -1056.6303    263624.46   -28469.672    1845.0349   -30314.707     -4096.41    6669.7547    79.597295    18.450683    28.710098 
 5185000    233.61222   -1070.5981    263624.46   -28464.389    1890.6002   -30354.989   -4119.4209    6670.9988    79.598737    18.450113     28.71351 
 5185200    226.53316   -985.20675    263624.46   -28494.618    1833.3101   -30327.928   -3719.8859    6671.3003     79.59856     18.44859    28.710189 
 5185400    229.28031   -1039.5684    263624.46   -28464.472    1855.5424   -30320.015   -3962.5846    6672.8116    79.598301    18.448153    28.708383 
 5185600     221.7335   -1091.6211    263624.46   -28475.711    1794.4669   -30270.178   -4204.9386    6671.8429    79.597754    18.447038    28.712386 
 5185800    230.30656   -1068.1812    263624.46   -28444.324    1863.8478   -30308.172   -4088.4528    6672.0433    79.597112    18.446949    28.710763 
 5186000     232.5673   -1048.1624    263624.46   -28404.247    1882.1437   -30286.391   -4004.4969    6673.6086    79.598022    18.447106    28.710942 
 5186200    226.76212   -980.45118    263624.46   -28436.969     1835.163   -30272.132   -3691.5362    6670.4892    79.597795    18.446528    28.710668 
 5186400    228.06596   -1038.7476    263624.46    -28456.69    1845.7149   -30302.405    -3992.909    6672.8956    79.597919    18.447456    28.714114 
 5186600    225.97115   -1029.3986    263624.46   -28479.347    1828.7618   -30308.108   -3961.8972    6673.1841    79.597109    18.447534    28.713149 
 5186800    231.66468   -1032.7073    263624.46   -28400.752    1874.8389   -30275.591   -3956.4324     6671.951    79.597766    18.448732    28.702328 
 5187000    234.99615   -983.17986    263624.46   -28395.793    1901.8001   -30297.593   -3700.9554    6670.7035    79.598878    18.449047    28.712864 
 5187200    222.07555     -1033.06    263624.46   -28541.845     1797.235    -30339.08   -3933.8837     6670.897    79.597569    18.449376    28.707722 
 5187400    226.37076    -1110.755    263624.46   -28553.602    1831.9958   -30385.598   -4299.1657    6672.9548    79.598818    18.449763    28.707532 
 5187600     231.6563   -1025.2135    263624.46    -28463.48    1874.7711   -30338.251   -3908.9182    6671.4813    79.599007    18.449414    28.713676 
 5187800    231.19519   -930.21654    263624.46   -28494.747    1871.0394   -30365.787   -3445.2819    6672.3567    79.599711    18.449136    28.703678 
 5188000    227.91313   -971.37682    263624.46   -28401.554     1844.478   -30246.032   -3651.2288    6672.7676    79.599019    18.448278    28.709014 
 5188200    225.48393   -935.78175    263624.46   -28425.372    1824.8188   -30250.191   -3486.4661    6668.6986    79.599634     18.44788    28.703249 
 5188400    224.36846   -1079.9861    263624.46   -28473.654    1815.7913   -30289.445    -4135.942    6672.4761    79.600451    18.447383    28.699438 
 5188600    222.64193   -1110.4448    263624.46   -28517.528    1801.8187   -30319.346   -4275.1895    6673.1803    79.601005    18.447413    28.701266 
 5188800    223.86483   -902.01309    263624.46   -28490.753    1811.7156   -30302.469    -3334.014     6667.548    79.600122     18.44778    28.703502 
 5189000    226.98189   -1040.8798    263624.46    -28450.32    1836.9416   -30287.261    -3954.158    6669.9906    79.600183    18.447228    28.695385 
 5189200    224.82041    -992.6097    263624.46   -28538.708    1819.4489   -30358.157   -3754.0494    6672.9914    79.600267    18.447151    28.703278 
 5189400    224.53007   -976.24223    263624.46    -28480.59    1817.0992   -30297.689   -3671.2896     6669.639    79.598549    18.445638     28.69927 
 5189600    227.42182   -1100.3368    263624.46   -28448.348    1840.5019    -30288.85   -4232.0476    6672.4917     79.59825    18.446153    28.708789 
 5189800    223.61909   -999.26351    263624.46   -28493.887    1809.7268   -30303.614   -3793.1936    6673.6394    79.598014    18.445288    28.706425 
 5190000    224.30969   -935.96596    263624.46   -28481.958    1815.3158   -30297.274   -3487.5334    6670.0508    79.596359    18.445669    28.704816 
 5190200    227.15882   -999.02775    263624.46     -28502.5    1838.3735   -30340.873   -3765.2866    6670.0357    79.595843    18.446662    28.703079 
 5190400    240.07159   -947.07402    263624.46   -28338.934    1942.8752   -30281.809   -3553.4855    6671.3866    79.595176    18.446849    28.711189 
 5190600    226.00348   -1028.1286    263624.46   -28460.184    1829.0234   -30289.207   -3957.6377    6672.7464    79.594459    18.448709    28.708084 
 5190800    224.61685   -1108.3405    263624.46   -28447.079    1817.8016    -30264.88    -4325.395    6669.2402    79.594739    18.448529    28.712137 
 5191000    230.55537   -995.72581    263624.46   -28490.353    1865.8614   -30356.215   -3782.4157    6668.5303    79.594951    18.449838    28.711204 
 5191200    228.03806   -1021.3767    263624.46   -28455.969    1845.4891   -30301.458    -3897.402    6673.5328     79.59443     18.45072    28.709446 
 5191400     229.2798   -967.70262    263624.46    -28467.53    1855.5384   -30323.068   -3632.6397    6669.2599    79.594904    18.450391    28.713413 
 5191600     227.3258   -975.88774    263624.46   -28493.746    1839.7248    -30333.47   -3688.9687    6669.1379    79.594827    18.451076    28.712241 
 5191800    230.53132   -1048.5061    263624.46   -28390.109    1865.6668   -30255.776   -4017.0531    6674.8516    79.595358    18.450814    28.716909 
 5192000    225.46898   -981.38165    263624.46   -28389.701    1824.6978   -30214.398   -3730.5039    6672.0663    79.595556    18.451353    28.717696 
 5192200    227.34979   -987.94321    263624.46   -28454.156    1839.9189   -30294.075   -3758.3928    6670.4624    79.596215     18.45138     28.71397 
 5192400    229.07349    -1089.721    263624.46   -28449.568    1853.8687   -30303.436   -4181.7893    6672.8711    79.597131    18.450647    28.717854 
 5192600      226.522   -1076.6818    263624.46   -28507.496    1833.2197   -30340.715    -4151.154    6670.2279    79.595259    18.450704    28.713582 
 5192800    231.50627   -993.52753    263624.46   -28439.046    1873.5569   -30312.603   -3758.7543    6670.3276    79.597089    18.450751    28.711512 
 5193000    224.48022   -979.36349    263624.46   -28487.761    1816.6958   -30304.457   -3687.8631    6671.3029    79.596518    18.450024    28.714115 
 5193200    229.58609   -1068.7416    263624.46   -28425.738    1858.0171   -30283.755    -4113.579    6673.7195    79.595836    18.450003    28.709739 
 5193400    223.20085   -1085.3882    263624.46   -28495.401     1806.342   -30301.743   -4190.2598    6670.9901    79.595011    18.448706    28.715396 
 5193600    231.41298   -1054.3766    263624.46   -28407.668    1872.8019    -30280.47   -4048.6849    6668.9347    79.595554    18.448985    28.709354 
 5193800    222.52597   -1036.5208    263624.46   -28490.514    1800.8802   -30291.394   -3940.9395    6673.4768     79.59496    18.448548    28.713099 
 5194000    221.04039   -1004.2947    263624.46   -28575.048    1788.8576   -30363.906   -3794.9864    6668.4864    79.594819    18.447554    28.705027 
 5194200    220.53612   -1022.8768    263624.46   -28511.637    1784.7766   -30296.414   -3913.0594    6669.0824    79.595572    18.448027    28.709473 
 5194400    222.16927   -1011.4783    263624.46   -28443.342    1797.9936   -30241.335   -3835.3456    6671.6376    79.595499     18.44703    28.708651 
 5194600     228.1107   -980.97109    263624.46   -28429.879    1846.0769   -30275.956   -3681.7077    6671.3435    79.595501    18.446979    28.708759 
 5194800    230.28878   -973.05381    263624.46   -28445.662    1863.7039   -30309.366   -3663.1528    6668.4425    79.596551    18.446571    28.710211 
 5195000    231.50997   -985.23442    263624.46   -28460.397    1873.5869   -30333.984     -3702.08    6672.1441     79.59701    18.446854    28.710351 
 5195200     229.0291   -998.09466    263624.46   -28434.602    1853.5094   -30288.112   -3772.4934    6671.4184    79.597489    18.446829    28.706899 
 5195400    228.44322   -1014.3992    263624.46    -28425.34     1848.768   -30274.108   -3863.6622    6669.9513    79.597999    18.444402    28.708318 
 5195600    222.91964   -1027.4329    263624.46   -28520.947    1804.0662   -30325.014   -3899.9388    6671.8216      79.5991    18.444479    28.710668 
 5195800     231.0145    -1032.561    263624.46   -28373.132    1869.5771   -30242.709   -3937.0948    6674.3536    79.599062    18.443098     28.71159 
 5196000    225.49472   -978.21112    263624.46    -28458.48     1824.906   -30283.386   -3763.9667    6670.0321     79.59842    18.442691    28.713439 
 5196200    231.56824   -993.67882    263624.46    -28461.43    1874.0584   -30335.488   -3775.6446    6670.9808    79.599258    18.444048    28.713434 
 5196400     229.3871    -988.0136    263624.46   -28435.418    1856.4067   -30291.824   -3741.1953    6672.6428    79.599099    18.442326    28.708966 
 5196600    229.17699   -1098.0845    263624.46   -28491.905    1854.7063   -30346.611   -4208.2722    6671.9163    79.599873    18.443476    28.709554 
 5196800    228.22564    -1006.256    263624.46   -28453.192    1847.0071   -30300.199   -3820.5956    6667.2844     79.59996    18.443039    28.712616 
 5197000    228.41211   -1057.6329    263624.46   -28414.722    1848.5162   -30263.238   -4047.3578    6676.9956    79.598831    18.441746    28.705989 
 5197200    224.58053   -931.13895    263624.46   -28475.608    1817.5076   -30293.116   -3480.1763    6669.5099    79.598546     18.44171    28.711962 
 5197400    226.57953   -1065.8812    263624.46   -28448.402    1833.6854   -30282.087   -4104.6458    6670.6751    79.599266     18.44176    28.710625 
 5197600    222.78282   -997.88444    263624.46   -28500.608    1802.9589   -30303.567   -3785.8338    6673.2831    79.600221    18.441897    28.711123 
 5197800    220.48384    -1024.082    263624.46   -28563.783    1784.3535   -30348.136   -3855.7431    6673.6933      79.5992    18.442092    28.712941 
 5198000    229.99084   -980.47232    263624.46   -28448.005    1861.2927   -30309.297   -3665.9043    6668.0081    79.599255    18.440776    28.712967 
 5198200    222.90838   -979.83102    263624.46   -28440.412    1803.9751   -30244.387   -3685.1841     6672.031    79.599925    18.441293    28.716229 
 5198400    224.38433   -1032.3512    263624.46   -28519.051    1815.9198   -30334.971   -3907.5721     6672.165    79.600335    18.440565     28.71549 
 5198600    223.08758   -1075.2738    263624.46   -28548.838    1805.4254   -30354.264   -4113.2447    6671.4946    79.601333    18.440601    28.715904 
 5198800    227.48985   -998.57288    263624.46   -28493.622    1841.0524   -30334.674   -3791.9256    6667.9528    79.602414    18.440472    28.716658 
 5199000    228.52381   -1010.4434    263624.46   -28419.581    1849.4202   -30269.001    -3851.096     6673.898    79.602962    18.440127    28.717116 
 5199200    227.80022   -976.01125    263624.46   -28472.596    1843.5642   -30316.161   -3686.0591     6670.346    79.603149    18.440857    28.719854 
 5199400    224.20206   -1009.5495    263624.46   -28499.301    1814.4447   -30313.746   -3848.2876    6667.8776    79.604481    18.441183     28.71692 
 5199600    226.26394   -996.69612    263624.46   -28476.257    1831.1313   -30307.389   -3803.5889    6669.3281    79.605178    18.441945      28.7108 
 5199800    230.58033   -1090.8836    263624.46   -28461.077    1866.0634   -30327.141   -4152.0336    6673.1813    79.605416    18.441862    28.717621 
 5200000    226.63583   -990.72414    263624.46   -28459.201     1834.141   -30293.341   -3722.7964    6669.5928    79.607383    18.443603    28.711284 
Loop time of 15609 on 80 procs for 5200000 steps with 9436 atoms

Performance: 287.835 ns/day, 0.083 hours/ns, 333.142 timesteps/s
98.1% CPU use with 80 MPI tasks x no OpenMP threads

MPI task timing breakdown:
Section |  min time  |  avg time  |  max time  |%varavg| %total
---------------------------------------------------------------
Pair    | 0.26681    | 3789.9     | 13117      |7446.1 | 24.28
Neigh   | 0.47374    | 232.8      | 858.87     |1932.1 |  1.49
Comm    | 11.987     | 5264       | 13958      |6332.0 | 33.72
Output  | 172.32     | 172.42     | 174.36     |   1.7 |  1.10
Modify  | 353.2      | 6067.5     | 15365      |7939.6 | 38.87
Other   |            | 82.36      |            |       |  0.53

Nlocal:        117.950 ave         370 max           0 min
Histogram: 32 5 21 2 0 0 0 0 2 18
Nghost:        750.075 ave        1213 max           0 min
Histogram: 12 0 0 4 4 0 30 6 8 16
Neighs:         0.00000 ave           0 max           0 min
Histogram: 80 0 0 0 0 0 0 0 0 0
FullNghs:      11482.0 ave       44374 max           0 min
Histogram: 51 9 0 0 0 0 0 1 7 12

Total # of neighbors = 918564
Ave neighs/atom = 97.346757
Neighbor list builds = 556892
Dangerous builds = 0
write_data 		${DIR}/data.${NAME}_run
write_data 		run_5/data.${NAME}_run
write_data 		run_5/data.ibeam_cooling_5_run
System init for write_data ...
Total wall time: 4:20:42
