
# Set production fixes - Nose/Hoover
#
fix                 4 water temp/csvr ${START_TEMP} ${END_TEMP} 500.0 928347
fix                 4 water temp/csvr 235 ${END_TEMP} 500.0 928347
fix                 4 water temp/csvr 235 225 500.0 928347


## divide "droplet" into core and surface
#region		core_reg cylinder z 135 135 44.6 20 INF units box
#region		surface_reg cylinder z 135 135 44.6 20 INF units box side out
#group		core dynamic all region core_reg
#group		surface dynamic all region surface_reg

## compute pressure core
#compute        peratom_core core stress/atom NULL
#compute        p_core core reduce sum c_peratom_core[1] c_peratom_core[2] c_peratom_core[3]
#variable       press_core equal -(c_p_core[1]+c_p_core[2]+c_p_core[3])/(3*1249982.5)


## compute pressure surface
#compute        peratom_surf surface stress/atom NULL
#compute        p_surf surface reduce sum c_peratom_surf[1] c_peratom_surf[2] #c_peratom_surf[3]
#variable       press_surf equal -(c_p_surf[1]+c_p_surf[2]+c_p_surf[3])/(3*42395)

## compute total pressure of drop
compute        peratom water stress/atom NULL
compute        p water reduce sum c_peratom[1] c_peratom[2] c_peratom[3]
variable       press equal -(c_p[1]+c_p[2]+c_p[3])/(3*50402)


# compute order parameter
compute        3 all orientorder/atom nnn NULL cutoff 3.5

# compute center of mass of bridge
compute 	4 water com

# Run simulation
thermo_style        custom step c_2 press vol etotal ke pe v_press c_1[4] c_4[*]
thermo              200
dump		     1 water custom 400 ${DIR}/prod.${NAME}.dump id type x y z vx vy vz c_3[*] c_peratom[*]
dump		     1 water custom 400 run_13/prod.${NAME}.dump id type x y z vx vy vz c_3[*] c_peratom[*]
dump		     1 water custom 400 run_13/prod.ibeam_cooling_13.dump id type x y z vx vy vz c_3[*] c_peratom[*]
run                 ${STEPS}
run                 4000000
Neighbor list info ...
  update every 1 steps, delay 0 steps, check yes
  max neighbors/atom: 2000, page size: 100000
  master list distance cutoff = 6.67472
  ghost atom cutoff = 6.67472
  binsize = 3.33736, bins = 24 25 11
  2 neighbor lists, perpetual/occasional/extra = 1 1 0
  (1) pair sw, perpetual
      attributes: full, newton on
      pair build: full/bin/atomonly
      stencil: full/bin/3d
      bin: standard
  (2) compute orientorder/atom, occasional, copy from (1)
      attributes: full, newton on
      pair build: copy
      stencil: none
      bin: none
Per MPI rank memory allocation (min/avg/max) = 6.149 | 6.791 | 7.275 Mbytes
Step c_2 Press Volume TotEng KinEng PotEng v_press c_1[4] c_4[1] c_4[2] c_4[3] 
       0    241.92165   -448.19163    216156.16   -20205.481    1532.3853   -21737.866   -1254.0656    33.468128    39.422259    39.231713    23.630237 
     200    233.34192   -291.33478    216156.16   -20224.173    1478.0394   -21702.213   -581.66767    33.951433    39.422296    39.230768    23.638468 
     400    235.10441   -346.87559    216156.16   -20214.599    1489.2034   -21703.803   -821.00162    35.878762    39.422341    39.229596    23.639253 
     600    234.02309    -314.3788    216156.16   -20106.766    1482.3541    -21589.12   -742.28087    36.832209    39.421984    39.227701    23.641138 
     800    233.82032   -283.92096    216156.16   -20109.904    1481.0697   -21590.974   -549.40188    38.149846    39.422683    39.228232    23.633439 
    1000    234.78678   -458.94281    216156.16   -20201.247    1487.1914   -21688.438   -1271.6096    39.285695    39.422846    39.227698    23.644675 
    1200    235.47862   -371.20004    216156.16   -20186.924    1491.5737   -21678.497   -911.13083    40.325327    39.423511    39.227584    23.661478 
    1400    233.84191   -409.54412    216156.16   -20192.826    1481.2064   -21674.033   -1095.3416    42.405536    39.421807    39.226662    23.648055 
    1600    232.66388   -350.23296    216156.16   -20176.229    1473.7445   -21649.973   -787.58276    43.231153    39.419783    39.225474    23.655223 
    1800    228.60864    -519.4135    216156.16   -20139.271    1448.0577   -21587.328   -1538.8506    45.025128    39.417447    39.226839    23.671267 
    2000    240.85602   -497.87289    216156.16   -20095.418    1525.6353   -21621.053   -1464.2051    46.544324    39.418049    39.227811    23.663235 
    2200    237.55922   -356.79406    216156.16   -20149.273    1504.7527   -21654.026   -847.17211    48.919317    39.418698    39.227826    23.656892 
    2400    242.38989   -469.76978    216156.16   -20147.131    1535.3512   -21682.482   -1304.2727    48.245639    39.417746    39.230483    23.656366 
    2600    229.32075   -338.46734    216156.16   -20194.014    1452.5684   -21646.582   -752.36987    49.322926    39.414019    39.231117     23.66217 
    2800    233.14361   -280.29124    216156.16   -20070.685    1476.7832   -21547.468   -495.77154     50.04943    39.410467    39.228851    23.655971 
    3000    232.38542   -528.60272    216156.16    -20080.55    1471.9807    -21552.53   -1623.8851    50.968367    39.410877    39.228308    23.628684 
    3200    236.40813   -291.96517    216156.16   -20174.187    1497.4614   -21671.648   -595.42225    52.713385    39.410686     39.22621    23.631243 
    3400    232.92886   -397.84216    216156.16   -20148.292     1475.423   -21623.715   -1044.2053     53.89215    39.411178    39.224348    23.597156 
    3600    231.43837   -228.67548    216156.16   -20168.882    1465.9819   -21634.864   -318.04347    55.267489    39.409851    39.224859    23.576037 
    3800    238.80626   -280.22014    216156.16   -20143.666    1512.6517   -21656.318    -529.8372     56.25493    39.407435    39.224631    23.578545 
    4000    237.26509   -347.70625    216156.16    -20168.01    1502.8896     -21670.9    -841.0476     57.93685    39.406256     39.22295    23.570081 
    4200    236.84438   -390.30476    216156.16   -20137.184    1500.2247   -21637.409   -1007.8794    58.533849    39.405744    39.222743    23.559019 
    4400    235.01945   -326.64456    216156.16   -20173.561    1488.6652   -21662.227   -738.61861    58.759591    39.405715    39.221373    23.557097 
    4600    231.03377   -389.28122    216156.16   -20247.423     1463.419   -21710.842   -1002.5445    59.814076    39.404953    39.219726    23.569276 
    4800    235.80554   -401.33828    216156.16   -20110.693    1493.6445   -21604.337    -1045.487     60.57464    39.402254     39.21848    23.556816 
    5000    235.84141   -385.86073    216156.16   -20127.692    1493.8717   -21621.564   -1017.2925    62.544869    39.401593    39.217342    23.565587 
    5200    232.44993   -466.85677    216156.16   -20147.477    1472.3893   -21619.866   -1304.9733    64.303192    39.401654    39.217745    23.555415 
    5400    235.42156   -478.68163    216156.16   -20158.608    1491.2123   -21649.821    -1396.275     64.78272    39.402356    39.215219    23.538268 
    5600    233.10296   -320.92037    216156.16   -20165.006    1476.5258   -21641.531   -739.24037    65.938793    39.401284    39.215913    23.534684 
    5800    239.32198   -279.14737    216156.16   -20116.527    1515.9184   -21632.446   -528.40601    67.272611    39.400288    39.216683    23.565183 
    6000    232.53546   -322.67986    216156.16   -20124.433    1472.9311   -21597.364   -710.05558    67.985619    39.399871    39.216214    23.557876 
    6200    228.88519   -479.07472    216156.16    -20156.24    1449.8095   -21606.049   -1405.7909    69.728941    39.399731    39.215493    23.551689 
    6400    232.98993   -348.19851    216156.16   -20163.529    1475.8098   -21639.338   -810.11716    70.822764    39.401079     39.21807     23.55748 
    6600    233.33657   -397.76729    216156.16    -20177.09    1478.0055   -21655.096   -1056.6545     72.45538     39.40236    39.218734    23.561858 
    6800    228.86127   -502.26172    216156.16   -20159.122     1449.658   -21608.779   -1479.5203    73.377029    39.403956    39.218462    23.572783 
    7000    241.83025   -389.81363    216156.16   -20135.965    1531.8064   -21667.771   -998.53006    74.177708    39.406059    39.220629    23.575526 
    7200    233.21614   -331.98138    216156.16    -20206.74    1477.2427   -21683.983    -748.2759    75.522389    39.405651    39.219573    23.580128 
    7400    228.43641   -427.24674    216156.16   -20171.145    1446.9668   -21618.112   -1183.6196    76.729625    39.405102    39.216295    23.568241 
    7600    241.00533   -308.78106    216156.16   -20063.962    1526.5811   -21590.543   -649.11722    78.794966    39.405811    39.215531    23.575021 
    7800    230.34962   -310.25581    216156.16   -20214.731    1459.0855   -21673.817      -633.46    79.918542    39.405973    39.213751    23.580423 
    8000    237.79256   -448.06254    216156.16   -20115.299    1506.2307   -21621.529   -1268.7413    80.411947    39.406632    39.212714    23.604311 
    8200    240.85046   -441.28109    216156.16    -20121.82    1525.6001    -21647.42   -1208.7558    80.909252    39.407077    39.212207      23.6148 
    8400    238.29679   -292.76992    216156.16   -20085.402    1509.4246   -21594.827   -602.07326    82.017113    39.405801    39.214547    23.629642 
    8600    235.37228   -405.83297    216156.16   -20139.124    1490.9001   -21630.024   -1051.2328    82.697864    39.406155    39.214809    23.614157 
    8800    237.79411   -510.13301    216156.16   -20169.483    1506.2405   -21675.723   -1499.2303      83.9596    39.404823    39.213218    23.613689 
    9000    237.23802   -419.72332    216156.16   -20151.489    1502.7182   -21654.207   -1111.3367      85.2095    39.403795    39.212301    23.583677 
    9200    236.18662   -438.27217    216156.16   -20106.565    1496.0583   -21602.624   -1199.3661    86.265098    39.405821    39.210628    23.543921 
    9400    230.43957   -382.72371    216156.16   -20148.623    1459.6552   -21608.279   -976.97392    87.680384    39.405925    39.208605    23.542094 
    9600    236.50646   -301.68858    216156.16   -20177.976    1498.0842    -21676.06   -586.70459    88.547353    39.406992     39.20728    23.520779 
    9800    232.48007   -510.44702    216156.16   -20121.036    1472.5802   -21593.616   -1477.4822    88.422172    39.407239    39.207123      23.5092 
   10000    229.82302   -319.58227    216156.16   -20155.276    1455.7499   -21611.026   -659.21182      89.4859    39.405087    39.208965    23.525055 
   10200    241.18516   -430.57934    216156.16   -20050.552    1527.7202   -21578.272    -1182.023    90.427875    39.407054    39.210183     23.51841 
   10400    239.09832   -238.43393    216156.16   -20075.219    1514.5017   -21589.721    -327.2695    91.031792    39.405818    39.209792    23.514041 
   10600    232.20707   -438.18016    216156.16   -20183.493     1470.851   -21654.344   -1198.0615    92.336636    39.403971    39.208675    23.508504 
   10800    226.61619    -358.8396    216156.16   -20258.732    1435.4371   -21694.169   -829.53215    93.072921    39.401782    39.207384    23.492678 
   11000    233.19953   -399.05163    216156.16   -20244.843    1477.1374    -21721.98   -1016.8363    93.189239     39.40215    39.208581     23.50274 
   11200    229.81194   -598.80621    216156.16   -20256.264    1455.6797   -21711.943    -1820.619    93.784083     39.40542    39.210613    23.512303 
   11400    230.17356   -253.15405    216156.16   -20217.881    1457.9703   -21675.851   -427.46916    95.232652    39.408762    39.209438    23.493496 
   11600      235.082   -529.91855    216156.16   -20140.856    1489.0614   -21629.917   -1579.2925     96.05068    39.411772    39.209132    23.487329 
   11800    237.45949    -487.6291    216156.16   -20134.412     1504.121   -21638.533   -1378.3862    97.464689    39.414682    39.207838    23.520309 
   12000    238.10164     -394.748    216156.16   -20131.372    1508.1885    -21639.56   -988.98365    98.792321    39.415423    39.206179    23.515042 
   12200    232.72254   -505.63974    216156.16   -20110.754    1474.1161    -21584.87   -1461.4377    100.36104    39.415735    39.204476    23.542695 
   12400    238.23227   -304.32604    216156.16   -20171.303    1509.0159   -21680.319   -630.49981     100.9058     39.41357    39.206678     23.54114 
   12600    234.17424   -480.71741    216156.16   -20116.599    1483.3115    -21599.91   -1389.6362    102.68465    39.412248    39.206273    23.519936 
   12800    232.67479   -376.60218    216156.16   -20133.368    1473.8137   -21607.182   -964.67826    104.32412     39.41077    39.204343      23.5049 
   13000    241.80658    -347.1015    216156.16   -20157.303    1531.6564   -21688.959   -852.25342    105.53052    39.410895     39.20548    23.502715 
   13200    231.12151   -372.93139    216156.16   -20153.931    1463.9748   -21617.905   -917.29952    106.47557    39.408933    39.206388    23.507988 
   13400    234.95336   -355.71682    216156.16   -20209.076    1488.2466   -21697.323   -867.33516     106.9861    39.409321    39.207081    23.512707 
   13600     231.9401   -418.30542    216156.16   -20165.376    1469.1599   -21634.536   -1108.7268    107.51875    39.409237    39.207492    23.512854 
   13800     235.2209    -198.9436    216156.16     -20127.5    1489.9412   -21617.442   -138.44215    107.76974    39.410339    39.207865    23.501852 
   14000    236.40689   -284.70811    216156.16   -20044.415    1497.4536   -21541.868   -603.47724    108.67282    39.411442    39.207579     23.49663 
   14200    234.84101   -386.70735    216156.16   -20094.589    1487.5349   -21582.124   -1050.8909     109.6125    39.413948    39.209596    23.491541 
   14400    231.27192   -383.60534    216156.16   -20173.308    1464.9275   -21638.236   -1006.5328    110.26741    39.414206    39.209168     23.50526 
   14600    233.24834   -279.14228    216156.16   -20140.359    1477.4466   -21617.806   -513.02059    110.84049    39.411948    39.207115    23.513108 
   14800    240.58812   -483.39886    216156.16   -20109.656    1523.9384   -21633.594   -1441.2763    111.85082     39.41083    39.207652    23.510173 
   15000      234.213   -367.47476    216156.16   -20169.753     1483.557    -21653.31   -953.50381    113.45776    39.411668    39.207641    23.511549 
   15200    235.75959     -354.165    216156.16   -20118.615    1493.3535   -21611.968   -836.94216    114.26799     39.41049    39.210049    23.515483 
   15400    231.55521   -320.74478    216156.16    -20170.95    1466.7219   -21637.672   -694.44188    115.19767     39.41061    39.210959    23.505171 
   15600     244.3968   -223.51267    216156.16   -20018.042    1548.0635   -21566.106   -267.56953    116.52272    39.411845    39.211012    23.550055 
   15800    239.64554   -277.88716    216156.16   -20081.267    1517.9679   -21599.235   -522.38074    118.04688    39.413391    39.212079    23.583436 
   16000    237.66547   -414.46146    216156.16   -20135.311    1505.4257   -21640.737   -1140.8555    118.10136    39.415645      39.2122    23.563482 
   16200     241.8989   -393.49237    216156.16   -20104.571    1532.2412   -21636.812   -1027.4283     119.5264     39.41492    39.213837    23.548722 
   16400    232.29877    -228.8159    216156.16   -20165.632    1471.4318   -21637.064   -344.97824     120.8094    39.414707    39.212777    23.557608 
   16600    236.04657    -448.3144    216156.16   -20080.883    1495.1713   -21576.054   -1246.0377    122.78599    39.413801    39.210645    23.572282 
   16800    234.29395   -507.95875    216156.16   -20163.131    1484.0698   -21647.201   -1562.5412    123.86943    39.414017    39.210425    23.601279 
   17000    239.70372   -411.78444    216156.16   -20225.097    1518.3364   -21743.434   -1147.4578    125.67836    39.415565    39.209805    23.596465 
   17200     237.1961   -282.78187    216156.16   -20190.824    1502.4526   -21693.277   -522.65839    127.27957    39.419459     39.20977    23.605713 
   17400    237.60363    -343.2766    216156.16   -20258.364     1505.034   -21763.398   -807.94366    128.62041    39.417341       39.207    23.601629 
   17600     233.5473    -501.5902    216156.16    -20202.36    1479.3403     -21681.7   -1499.9914    130.29691    39.415094    39.207687     23.57514 
   17800    230.06173   -367.86485    216156.16   -20226.492    1457.2619   -21683.754   -899.34656    130.72815    39.416415    39.207976    23.552232 
   18000     235.0976   -408.40556    216156.16    -20162.75    1489.1603   -21651.911   -1088.3735    132.20112     39.41501    39.207555     23.54692 
   18200    233.71887   -293.69061    216156.16   -20174.375    1480.4271   -21654.802   -617.65254    134.36154    39.415867     39.20708    23.529624 
   18400    236.28034   -412.15518    216156.16   -20150.204     1496.652   -21646.856   -1087.8782    136.21102    39.414377    39.208054    23.508408 
   18600    241.60152   -433.02049    216156.16   -20147.069    1530.3575   -21677.427   -1204.0035     137.5253    39.416232    39.210903    23.520501 
   18800    235.37152   -521.00002    216156.16   -20194.139    1490.8953   -21685.034   -1557.6525    139.48481    39.417206    39.209019     23.53509 
   19000     239.4934   -489.32645    216156.16   -20119.436    1517.0042    -21636.44   -1425.9629    139.19932    39.419409    39.210161     23.52391 
   19200     232.0132   -355.77323    216156.16   -20152.339     1469.623   -21621.962   -843.19933    139.56512    39.418481    39.209658    23.522375 
   19400    237.75817   -445.50864    216156.16   -20093.047    1506.0129    -21599.06   -1267.4948    140.87837    39.419661    39.209091     23.53926 
   19600    239.03101   -421.20548    216156.16   -20105.324    1514.0753   -21619.399   -1088.1125    142.00683    39.421655    39.210026    23.539827 
   19800    237.07536   -251.44072    216156.16   -20093.435    1501.6878   -21595.123   -436.73386    143.18723    39.422801    39.211186    23.527587 
   20000    234.27403   -422.05363    216156.16   -20130.698    1483.9436   -21614.641   -1170.4858    145.14213    39.423304    39.212439    23.492715 
   20200    231.31728   -397.69714    216156.16    -20179.42    1465.2149   -21644.634   -969.12707     145.9499     39.42153    39.213112    23.468092 
   20400    238.56434    -440.4101    216156.16   -20103.682    1511.1194   -21614.802   -1215.9955    148.69898    39.419851    39.214057    23.467347 
   20600     234.1265   -535.53464    216156.16   -20170.965    1483.0091   -21653.974   -1603.3309    150.26453    39.422495    39.215496     23.43749 
   20800    243.15276   -393.50025    216156.16   -20116.676    1540.1834   -21656.859   -985.83516    150.64622    39.422676    39.216263    23.431703 
   21000     237.4779   -403.13036    216156.16   -20153.172    1504.2376    -21657.41   -1045.3275    151.49329    39.423123    39.215278    23.412768 
   21200    230.03982    -328.0988    216156.16   -20117.804    1457.1232   -21574.927   -695.02201     152.1081    39.422212    39.214294    23.434013 
   21400    230.43892   -277.64794    216156.16   -20122.969    1459.6512    -21582.62   -541.02639    153.08128    39.423121    39.214958    23.437537 
   21600    239.53841   -379.95249    216156.16   -20034.055    1517.2893   -21551.344   -939.20363    153.29497     39.42387    39.214084    23.434173 
   21800    234.39628   -468.30088    216156.16   -20152.347    1484.7179   -21637.065   -1321.4258    154.93242    39.424146    39.213868    23.438933 
   22000    233.75141   -368.35268    216156.16   -20210.503    1480.6332   -21691.136   -947.97892     157.3312    39.422969    39.213655    23.446278 
   22200    230.91462   -466.66548    216156.16   -20241.181    1462.6643   -21703.845   -1338.6682    158.12928    39.424887    39.215836    23.438905 
   22400    239.14386   -402.80358    216156.16   -20139.018    1514.7901   -21653.808   -1023.1266    159.67481    39.424002    39.217852    23.436459 
   22600    234.67013   -333.41271    216156.16   -20163.662    1486.4526   -21650.115   -734.14846    161.53354    39.424483    39.219994    23.428543 
   22800    245.20606   -381.74691    216156.16   -20160.972    1553.1895   -21714.161   -946.63415     161.9508    39.423118    39.223021    23.435598 
   23000    233.37072   -424.64888    216156.16   -20198.479    1478.2218     -21676.7   -1147.0182    163.80957    39.423697    39.224246    23.449792 
   23200    236.03674   -325.30675    216156.16   -20137.812     1495.109   -21632.921   -718.77439    165.87612    39.420554    39.223499    23.445669 
   23400    232.73621   -497.48443    216156.16   -20141.442    1474.2027   -21615.644   -1492.2157    166.84682    39.420536    39.224006    23.424897 
   23600      241.138   -394.56339    216156.16   -20071.631    1527.4215   -21599.052   -1007.2103    168.12954    39.419233    39.224341    23.437756 
   23800     237.7323   -449.73751    216156.16   -20102.784     1505.849   -21608.633   -1212.3164    169.00187    39.418299     39.22272    23.453139 
   24000    232.78932   -369.05955    216156.16    -20135.92    1474.5391   -21610.459   -881.64287    170.53653    39.417662    39.223439    23.468466 
   24200    236.62103    -328.9658    216156.16   -20148.035      1498.81   -21646.845   -766.96749    171.86764     39.41883     39.22447    23.496199 
   24400    232.97972   -339.39864    216156.16   -20200.735    1475.7451    -21676.48   -812.48569    173.19966    39.419706    39.222199    23.513425 
   24600     236.5949   -363.46986    216156.16   -20229.037    1498.6444   -21727.681   -960.65438    174.25337    39.418488    39.222909    23.517266 
   24800    233.40985   -361.22747    216156.16   -20206.378    1478.4696   -21684.848   -859.83543    174.67656    39.417245    39.222422    23.522862 
   25000    230.84905    -385.8772    216156.16   -20195.985     1462.249   -21658.234   -999.26028    173.63782    39.415376    39.222379    23.518572 
   25200    224.29573    -355.3947    216156.16   -20291.048    1420.7388   -21711.787   -875.94217    174.22828    39.414028    39.222755    23.516595 
   25400    239.87135   -248.88265    216156.16    -20191.39    1519.3982   -21710.789   -405.02148    174.22163    39.414114    39.223024    23.508059 
   25600    241.32802   -296.48846    216156.16   -20027.443    1528.6251   -21556.068   -640.83761    174.41685    39.412587    39.224278    23.512712 
   25800    243.06834   -396.58493    216156.16   -20055.713    1539.6487   -21595.361   -1033.2916    174.85674    39.412867    39.224346    23.509946 
   26000    237.63217   -304.37334    216156.16   -20129.466    1505.2147   -21634.681   -647.18593    176.38382    39.408881    39.224466    23.521731 
   26200    231.63978   -388.53038    216156.16   -20152.323    1467.2576   -21619.581    -1041.402    178.06331    39.407412    39.225356    23.515344 
   26400    231.79693   -470.32565    216156.16   -20194.808    1468.2531   -21663.061   -1315.8822    178.87882    39.405372    39.225607    23.525617 
   26600    240.34991   -526.22524    216156.16   -20102.239    1522.4296   -21624.669   -1596.1282    180.33476    39.406275    39.225843     23.53242 
   26800    233.81107   -305.35082    216156.16   -20147.946    1481.0111   -21628.957   -674.39528     180.9177    39.409827    39.226303      23.5441 
   27000    237.61113   -258.18598    216156.16   -20104.259    1505.0815   -21609.341   -459.81652    181.77499    39.413042    39.226768    23.534384 
   27200    234.13963   -383.03324    216156.16    -20134.91    1483.0922   -21618.003   -955.91988    182.72359    39.416668    39.224651    23.544271 
   27400     235.6511   -409.17575    216156.16   -20086.851    1492.6662   -21579.517    -1098.506     183.5426    39.418841    39.223009    23.529248 
   27600    230.48512   -395.98308    216156.16   -20197.947    1459.9438   -21657.891   -1064.4816    185.73107    39.419029    39.220659     23.53179 
   27800    236.80505   -280.59459    216156.16   -20088.879    1499.9756   -21588.855   -496.95158     187.7323     39.42026    39.220118    23.552411 
   28000    229.26961   -352.29407    216156.16   -20183.214    1452.2445   -21635.458   -887.61068    187.98539    39.419046    39.220707    23.575574 
   28200     233.4686   -357.77419    216156.16   -20158.577    1478.8418   -21637.419   -822.59736    188.98065    39.418013    39.221568    23.597128 
   28400    236.46155   -411.51177    216156.16    -20159.17    1497.7998    -21656.97   -1124.6147    190.81939    39.418475     39.22229    23.602983 
   28600    231.93941   -520.51419    216156.16   -20197.106    1469.1556   -21666.262   -1581.5062      191.507    39.419661    39.222184    23.618522 
   28800    230.14572   -415.79585    216156.16   -20205.358     1457.794   -21663.152   -1116.2331    193.21401    39.420895    39.224464    23.619483 
   29000    227.86559   -520.50586    216156.16   -20162.846    1443.3511   -21606.197    -1570.699    194.30546    39.421039    39.224664    23.634833 
   29200    238.26573   -215.54143    216156.16   -20149.785    1509.2279   -21659.013   -252.22356    194.63916    39.420705    39.225849     23.65822 
   29400    234.98341    -421.6846    216156.16   -20177.311    1488.4369   -21665.748   -1126.4361    194.80548    39.422232    39.226889    23.644583 
   29600    233.02394    -411.1718    216156.16    -20164.54    1476.0252   -21640.565   -1154.3014    196.18426    39.424427    39.228126    23.645592 
   29800    228.12141    -290.7137    216156.16   -20257.153    1444.9715   -21702.125   -612.56278    196.16737    39.424581    39.228422     23.64934 
   30000    226.83798   -260.03131    216156.16   -20292.214     1436.842   -21729.056   -455.77615    197.15719    39.425113    39.227574    23.641338 
   30200    231.37105   -235.58945    216156.16   -20250.034    1465.5554   -21715.589   -360.98393    198.17405    39.426881    39.227082     23.64552 
   30400    233.47058   -369.58986    216156.16   -20223.197    1478.8543   -21702.051   -924.21098    199.13413    39.428968    39.225994    23.678471 
   30600    224.57385   -534.71383    216156.16     -20256.6    1422.5005     -21679.1   -1641.1521    199.20321    39.431347      39.2277    23.682497 
   30800    234.31422   -193.41311    216156.16   -20204.132    1484.1981   -21688.331   -173.91576    198.57945    39.430127    39.228014    23.684541 
   31000    225.59804    -403.9016    216156.16   -20196.961    1428.9879   -21625.949   -1069.0522    199.41835    39.429131    39.228014    23.708589 
   31200    246.61774   -338.48704    216156.16   -20158.874    1562.1313   -21721.005   -811.67465     201.6511    39.429965    39.228881    23.720591 
   31400     231.9342   -372.34926    216156.16   -20131.883    1469.1226   -21601.005   -967.15774     203.7419    39.430818    39.230216     23.72839 
   31600     233.1193   -422.70338    216156.16   -20180.547    1476.6292   -21657.176    -1184.608    204.37852    39.433156    39.233099    23.729798 
   31800      243.658   -248.62719    216156.16   -20166.064    1543.3837   -21709.448    -398.8779    203.75643    39.434527    39.234579     23.74505 
   32000    231.73859   -338.45797    216156.16   -20225.172    1467.8835   -21693.055   -734.30154    204.94849    39.432616    39.236316    23.732139 
   32200    234.22785   -451.73685    216156.16   -20225.872     1483.651   -21709.524   -1252.1751    205.06208    39.431224    39.236713    23.740033 
   32400    233.19764   -468.98454    216156.16   -20246.608    1477.1255   -21723.733   -1355.1548    204.44165    39.429841    39.239261    23.730528 
   32600    234.87307   -261.70821    216156.16   -20158.051     1487.738   -21645.789   -443.29848    206.94944    39.430181    39.240239    23.719866 
   32800     239.1755   -367.81502    216156.16   -20135.891    1514.9905   -21650.881   -926.05573    208.40303      39.4287    39.244082    23.706192 
   33000     238.0391   -305.39311    216156.16   -20100.885    1507.7924   -21608.677   -679.87955    209.21133    39.428794    39.244816    23.703342 
   33200    236.73683   -260.89036    216156.16   -20147.694    1499.5435   -21647.238   -474.51676    209.25308    39.431596    39.244329    23.678873 
   33400     232.1291   -295.57837    216156.16   -20207.587    1470.3571   -21677.944   -646.96287    210.08602    39.430639    39.244925     23.68884 
   33600    230.74506   -367.96483    216156.16   -20223.583    1461.5903   -21685.173   -911.50818    211.70613    39.428306    39.246393    23.670131 
   33800    237.71664   -368.17144    216156.16   -20081.684    1505.7498   -21587.434   -898.57812    212.10271    39.425765    39.245896     23.69069 
   34000    237.59222   -357.30339    216156.16   -20220.293    1504.9617   -21725.255   -844.61262    213.05022    39.424616    39.246027    23.705397 
   34200    234.17639   -400.33061    216156.16   -20203.181    1483.3251   -21686.506    -1066.991    215.65146    39.423095    39.245729    23.688347 
   34400    231.49987   -472.02103    216156.16   -20244.296    1466.3714   -21710.667   -1391.7575    216.05424    39.420475    39.246726    23.674149 
   34600    237.71789   -142.53636    216156.16   -20092.878    1505.7577   -21598.636    39.224605    216.88943    39.420986     39.24628     23.65075 
   34800    232.07604   -409.62345    216156.16   -20175.358     1470.021   -21645.379    -1116.022    217.99442    39.422559    39.246427    23.648422 
   35000     235.6909   -256.27411    216156.16   -20183.264    1492.9183   -21676.182   -446.12848    218.73549    39.426064    39.246247    23.635921 
   35200    239.22876   -287.56073    216156.16   -20124.067    1515.3279   -21639.395   -579.35254    218.61563    39.427494     39.24733     23.64048 
   35400    235.56367   -300.37441    216156.16   -20141.853    1492.1124   -21633.966   -625.08419    219.50128     39.42774    39.248107    23.597309 
   35600    233.50362   -435.93795    216156.16   -20159.896    1479.0636   -21638.959   -1173.0115     220.9779    39.428036    39.249237    23.574288 
   35800    235.81654   -472.61887    216156.16   -20063.572    1493.7142   -21557.287   -1388.6495    223.55387     39.42699     39.25023    23.584766 
   36000    232.00088   -428.85205    216156.16   -20189.959    1469.5449   -21659.504   -1134.1267    224.82671     39.42587    39.252113    23.600679 
   36200    237.98727   -420.46575    216156.16   -20243.735    1507.4641   -21751.199   -1118.4881    225.65966    39.426699    39.252137      23.6298 
   36400    240.33695   -261.16027    216156.16    -20186.13    1522.3474   -21708.477   -433.10522    226.68767    39.427142    39.251809    23.630617 
   36600    236.75163   -319.87353    216156.16   -20187.094    1499.6372   -21686.731   -732.90328    226.09207    39.426666    39.247537    23.626618 
   36800    232.32274   -317.85238    216156.16   -20241.071    1471.5837   -21712.655   -703.71775    226.78206    39.429572    39.247431    23.634985 
   37000    229.59316   -222.80984    216156.16   -20231.762    1454.2939   -21686.056   -267.84537    227.82306    39.429197    39.246721    23.646866 
   37200    237.78795   -216.30288    216156.16   -20249.953    1506.2015   -21756.155   -278.00836    229.82903    39.430539    39.245572    23.671694 
   37400    232.33404   -272.67638    216156.16    -20238.67    1471.6553   -21710.326   -561.35157    231.80279    39.432974     39.24714    23.671319 
   37600    235.00664   -254.15805    216156.16   -20284.605     1488.584   -21773.189    -451.5856     233.4687    39.434351     39.24701    23.666886 
   37800    230.94372   -444.38738    216156.16   -20311.352    1462.8486     -21774.2   -1233.9013    234.04444      39.4372    39.246439    23.679858 
   38000    238.06048   -426.49091    216156.16    -20204.13    1507.9278   -21712.058   -1148.0547    234.90127    39.437819    39.248496    23.666936 
   38200    237.99698   -358.17204    216156.16   -20192.298    1507.5255   -21699.823   -872.77071     235.0773    39.437279    39.247732    23.665558 
   38400    242.52979   -328.18909    216156.16    -20144.35    1536.2374   -21680.588   -715.29626    236.14652    39.438515    39.246079    23.653103 
   38600    236.03757   -437.73589    216156.16   -20193.091    1495.1142   -21688.206   -1211.2931    237.84439    39.438341     39.24576    23.675471 
   38800    238.27841   -357.53905    216156.16   -20192.535    1509.3082   -21701.843   -855.09324    238.42079    39.437955     39.24344    23.676253 
   39000    237.25875    -331.6224    216156.16   -20154.318    1502.8495   -21657.168   -759.97375    238.35521    39.437011    39.242439    23.667927 
   39200    237.60523   -537.94496    216156.16   -20249.177    1505.0441   -21754.221   -1624.1959    238.73772    39.438327    39.243692    23.658201 
   39400    241.14805   -511.29991    216156.16   -20205.556    1527.4851   -21733.041   -1501.3484    238.63538    39.437791    39.243457    23.663558 
   39600    235.03915   -520.45667    216156.16   -20134.828      1488.79   -21623.618   -1561.4106    241.37881    39.436847    39.242088    23.679705 
   39800    232.00973   -535.18395    216156.16   -20207.943     1469.601   -21677.544   -1610.2928    243.40412    39.437089    39.243331     23.68956 
   40000     232.1393   -375.14416    216156.16   -20150.715    1470.4217   -21621.137   -935.10132     244.2204     39.43493    39.244123    23.685451 
   40200    235.47705   -315.21355    216156.16   -20167.621    1491.5637   -21659.185   -634.96638    245.87135    39.433594    39.243914    23.673593 
   40400    230.68055   -406.64908    216156.16   -20199.052    1461.1817   -21660.233   -1065.2051    246.93756    39.435149     39.24356    23.669218 
   40600    239.79658   -366.79474    216156.16   -20106.704    1518.9246   -21625.629   -870.87049    248.25582     39.43489    39.241904    23.653049 
   40800    228.92236   -400.78151    216156.16   -20188.708    1450.0449   -21638.753    -1078.909    248.89554    39.433792     39.24288    23.663156 
   41000    236.42348   -483.21171    216156.16   -20166.896    1497.5587   -21664.455   -1428.6216    249.50087    39.434987    39.241438    23.663891 
   41200    243.09229   -304.47286    216156.16   -20112.017    1539.8004   -21651.817   -626.27005    251.20266    39.434724    39.240169    23.668182 
   41400    230.76624   -554.22029    216156.16   -20167.648    1461.7244   -21629.372    -1674.177     252.7809    39.435022    39.239358    23.660079 
   41600    238.62321   -362.19897    216156.16   -20131.013    1511.4922   -21642.505   -849.27452    252.72829    39.435286    39.237963    23.639601 
   41800    234.37399   -237.97794    216156.16   -20163.924    1484.5767   -21648.501   -338.32556    253.10448    39.433075    39.238503     23.65051 
   42000    237.06231   -385.26609    216156.16    -20221.79    1501.6051   -21723.395   -1025.8816    253.31118    39.431993    39.239241    23.666846 
   42200    230.99362   -395.23666    216156.16   -20249.767    1463.1647   -21712.932   -1018.6727    253.11831    39.434663      39.2384    23.676755 
   42400    238.70818   -295.17195    216156.16   -20179.346    1512.0304   -21691.376   -610.81938    253.33211    39.435738    39.236729    23.691459 
   42600    234.58275   -356.77052    216156.16   -20191.625    1485.8991   -21677.524     -857.904    253.31656    39.435427    39.234779    23.707585 
   42800    237.37839   -445.21935    216156.16   -20152.126    1503.6073   -21655.733   -1204.7933    253.24156    39.435013    39.232574    23.697747 
   43000     236.3879   -321.34634    216156.16   -20171.692    1497.3333   -21669.026   -685.36051    255.55784    39.432846    39.233893    23.707263 
   43200    234.31266   -299.16647    216156.16   -20166.521    1484.1883   -21650.709   -636.20876    256.47011    39.433126    39.234093    23.743141 
   43400    235.93348   -462.08294    216156.16   -20152.131    1494.4549   -21646.586   -1327.3379    256.00568    39.435007    39.233364    23.745948 
   43600    235.99998    -321.8361    216156.16   -20161.915    1494.8761   -21656.791   -724.86909    256.06051    39.439223     39.23535    23.735349 
   43800    236.19978   -416.35855    216156.16   -20213.741    1496.1417   -21709.882   -1155.2973    256.30585    39.439735    39.233288     23.74757 
   44000    232.77406   -531.26135    216156.16   -20267.586    1474.4424   -21742.028   -1615.4027    257.73964    39.440402    39.230497    23.752191 
   44200    231.53252    -291.0842    216156.16   -20212.798    1466.5782   -21679.376   -615.39477    258.24541    39.442519    39.230473    23.770485 
   44400    228.07239   -466.76648    216156.16   -20232.201     1444.661   -21676.862   -1327.4907    259.97188    39.442109    39.231724    23.797569 
   44600    233.86662   -421.85157    216156.16   -20257.783    1481.3629   -21739.146   -1192.7559    261.84911    39.442955    39.230815    23.813658 
   44800    230.53497   -64.663719    216156.16   -20264.702    1460.2595   -21724.962    383.06611    263.07424    39.444194    39.228655    23.797431 
   45000    233.04644   -349.15712    216156.16   -20253.192    1476.1678   -21729.359   -836.45994    266.30622    39.445883    39.228734    23.776025 
   45200    236.37461    -548.0796    216156.16   -20241.596    1497.2491   -21738.845    -1655.138    266.83237    39.447193    39.227967    23.787056 
   45400    231.17519   -370.88577    216156.16    -20333.48    1464.3148   -21797.795   -953.43834    267.33871    39.449887     39.22583    23.779526 
   45600    237.68216   -371.76031    216156.16   -20206.819    1505.5314    -21712.35   -943.64509    267.42688    39.450717    39.224424    23.778574 
   45800    229.12853    -327.5532    216156.16   -20205.057    1451.3508   -21656.407   -785.36883    268.48741     39.45022    39.223447    23.759933 
   46000     239.1613   -451.70554    216156.16   -20144.435    1514.9006   -21659.336   -1272.0582    270.67744    39.450013    39.222488    23.770446 
   46200    242.90465   -406.35596    216156.16   -20142.161    1538.6118   -21680.773   -1085.4055    272.00251    39.450104     39.22089    23.766466 
   46400    236.34958   -356.86532    216156.16   -20228.038    1497.0906   -21725.128   -877.16126    271.62461    39.449242     39.21893    23.772329 
   46600    235.35256   -190.31033    216156.16   -20227.697    1490.7752   -21718.472   -235.14142    271.72238     39.45005    39.219588    23.772273 
   46800    236.85405    -341.7548    216156.16   -20213.414     1500.286     -21713.7   -828.08899    273.44285    39.449736    39.221181    23.775702 
   47000    241.26265   -268.29031    216156.16   -20191.522     1528.211   -21719.733   -520.22981    273.83393    39.451676    39.221294    23.784459 
   47200    226.17876   -302.12294    216156.16   -20296.063    1432.6663    -21728.73    -603.3058     274.8561    39.451678    39.220369    23.771139 
   47400    234.06901   -485.50111    216156.16   -20215.489    1482.6449   -21698.134    -1413.433    276.92664    39.448201    39.219869    23.777553 
   47600    231.07561   -282.16725    216156.16   -20206.511    1463.6841   -21670.195   -564.79461    276.52285    39.448993    39.219754    23.768216 
   47800    228.64624   -418.77523    216156.16   -20231.138    1448.2959   -21679.434   -1131.6304    278.18427    39.447737    39.220048    23.773877 
   48000    232.59079   -579.14057    216156.16   -20218.753    1473.2816   -21692.034     -1789.86    280.96221    39.447925    39.220439    23.793969 
   48200    235.37862   -353.62524    216156.16   -20219.583    1490.9403   -21710.523   -871.80969    282.41874    39.447414    39.222114    23.822275 
   48400    235.45617   -333.99597    216156.16   -20192.819    1491.4315    -21684.25   -793.48262    284.50569     39.44817    39.221691    23.852297 
   48600    228.38409   -269.78537    216156.16   -20263.063    1446.6354   -21709.698   -536.28463    284.48872    39.449733    39.221579     23.84281 
   48800    232.74383   -351.43662    216156.16   -20241.037    1474.2509   -21715.288   -844.69476    285.54502    39.448108    39.220748    23.848225 
   49000    225.30293   -351.17726    216156.16   -20239.352    1427.1186   -21666.471   -789.25827     286.6381    39.446254    39.219737    23.821002 
   49200    236.91718   -366.44573    216156.16   -20158.317    1500.6859   -21659.003   -884.26224    287.71557    39.446299    39.218953    23.810728 
   49400    230.10295   -499.58933    216156.16    -20242.32     1457.523   -21699.843   -1489.5787    287.81986    39.446408     39.21881    23.794129 
   49600    238.73677   -504.83891    216156.16   -20208.497    1512.2116   -21720.709   -1509.2383    287.66002    39.444422    39.221577    23.809728 
   49800    238.80062   -486.24709    216156.16   -20221.924     1512.616    -21734.54   -1365.8264    286.76715    39.445656    39.222232    23.822461 
   50000    231.22597   -284.82041    216156.16   -20243.979    1464.6365   -21708.615   -570.33115    287.59872    39.447412    39.223745    23.835784 
   50200    241.92033   -426.39214    216156.16   -20151.069    1532.3769   -21683.446   -1161.1902    288.82833    39.446074    39.225895    23.836402 
   50400    236.00599   -471.79666    216156.16   -20179.525    1494.9142   -21674.439   -1372.0821    289.21802    39.447383    39.223742    23.804154 
   50600     235.1775   -470.40104    216156.16   -20105.716    1489.6663   -21595.382   -1340.7187     288.6262     39.44732    39.223699    23.774848 
   50800    230.16265     -457.744    216156.16   -20266.594    1457.9012   -21724.495    -1324.818    289.01585    39.447191    39.220496    23.783568 
   51000    227.64653   -531.68764    216156.16   -20231.565    1441.9635   -21673.528   -1628.0573    289.94474    39.449303    39.221125    23.775993 
   51200    228.35661   -436.30631    216156.16    -20232.54    1446.4613   -21679.001   -1167.4258    291.73104    39.448374     39.21876     23.75615 
   51400    233.56332   -360.29916    216156.16   -20245.469    1479.4418    -21724.91    -834.6769    292.23011    39.448063    39.216568    23.730679 
   51600    230.04713   -398.37421    216156.16   -20242.546    1457.1695   -21699.715   -1041.8137    291.25056    39.447226    39.215592    23.728592 
   51800    233.30592   -373.08212    216156.16   -20234.937    1477.8113   -21712.748   -996.32371    292.24707    39.447696    39.215745    23.762178 
   52000    230.20363    -262.7258    216156.16   -20285.832    1458.1607   -21743.992   -464.82198    294.83382    39.449329    39.215927    23.760726 
   52200    227.88258   -369.95521    216156.16   -20277.342    1443.4587   -21720.801    -966.0955    295.26861    39.448369    39.216316     23.74507 
   52400    227.34483    -316.4456    216156.16   -20339.326    1440.0525   -21779.378   -694.48772    295.72842    39.445918    39.216226    23.724458 
   52600    237.90655   -271.87964    216156.16   -20246.169    1506.9528   -21753.122   -492.40562    297.08601    39.445093    39.217941    23.722474 
   52800    238.83504   -196.51458    216156.16   -20162.831     1512.834   -21675.665   -199.01133    297.96536    39.445877     39.21529    23.724879 
   53000    233.84258   -354.63478    216156.16   -20168.619    1481.2107    -21649.83   -899.21585    298.21549    39.446667    39.212706    23.726736 
   53200    229.46964   -448.73145    216156.16   -20283.227    1453.5115   -21736.738   -1241.3654     300.1527    39.445499    39.209733    23.722254 
   53400    236.01818   -426.98383    216156.16   -20249.139    1494.9914   -21744.131   -1184.8964      301.068    39.445224    39.209837    23.733869 
   53600    229.93959   -477.56188    216156.16    -20285.96    1456.4882   -21742.448   -1388.0088    301.92724    39.446622     39.21031    23.742425 
   53800    229.86368   -437.48664    216156.16   -20219.772    1456.0075    -21675.78   -1178.5254    303.58434    39.445007    39.210727    23.738977 
   54000    239.12192   -322.74519    216156.16   -20182.787    1514.6512   -21697.438   -727.24795    304.05449    39.444204    39.210074    23.747357 
   54200    237.65833   -468.19667    216156.16   -20147.579    1505.3805    -21652.96   -1355.0047    307.29113    39.442546    39.208533    23.769135 
   54400    237.24583   -550.26165    216156.16   -20128.755    1502.7676   -21631.523    -1665.602    308.22181     39.44054    39.203307    23.763687 
   54600    235.01483   -403.60691    216156.16   -20173.549    1488.6359   -21662.185   -1049.2409    309.61012    39.440257    39.202069    23.768689 
   54800    237.18059   -233.42524    216156.16   -20124.166    1502.3543   -21626.521   -284.18519    312.91383    39.441335    39.200393    23.792541 
   55000    241.87609   -438.52604    216156.16   -20068.366    1532.0967   -21600.463   -1225.7209    312.07615    39.441521    39.204122    23.793346 
   55200    232.02846   -626.46992    216156.16   -20201.776    1469.7196   -21671.495   -1967.7738    311.83343    39.442754    39.204084    23.792164 
   55400    235.40932   -330.88451    216156.16   -20200.558    1491.1347   -21691.693   -723.65869    313.78176     39.44322    39.204176    23.814017 
   55600    228.10849   -369.12082    216156.16   -20179.765    1444.8897   -21624.655    -899.5764    315.37518    39.442439    39.203862    23.810455 
   55800     242.7287   -399.59937    216156.16   -20078.489    1537.4973   -21615.986   -1060.9291    315.60415     39.44176    39.202327    23.829854 
   56000    232.09866   -456.74011    216156.16   -20104.438    1470.1643   -21574.602   -1270.5198    318.58474    39.440772    39.203031    23.818895 
   56200    243.70209   -344.69988    216156.16   -20096.674     1543.663   -21640.337   -870.90619    320.59537     39.44197    39.204103    23.806502 
   56400    230.36791    -380.5696    216156.16   -20213.496    1459.2013   -21672.697   -949.62981      322.462    39.442132    39.205545    23.801487 
   56600    229.02428   -451.93718    216156.16   -20260.219    1450.6905    -21710.91   -1294.4659    322.01298    39.441849    39.205265    23.812098 
   56800    239.21072   -431.01844    216156.16   -20179.902    1515.2137   -21695.116    -1209.934    324.29505    39.440668    39.203934    23.801718 
   57000    234.89931   -390.15011    216156.16   -20229.944    1487.9043   -21717.848   -1010.6834    326.06455    39.436775    39.202026    23.791293 
   57200    235.96659   -495.85156    216156.16   -20152.129    1494.6646   -21646.793   -1466.8467    328.25566    39.437732    39.200751    23.798008 
   57400    231.43114   -448.38381    216156.16   -20188.369    1465.9361   -21654.305   -1253.3999    329.23291    39.439165    39.199526    23.794014 
   57600    228.39503   -480.23425    216156.16   -20238.575    1446.7047    -21685.28   -1364.7309    330.33545    39.441694     39.19969    23.811628 
   57800    237.05763   -285.20428    216156.16   -20173.859    1501.5755   -21675.434   -539.54262    329.61703    39.443173    39.203354      23.8224 
   58000    238.36448   -427.07471    216156.16   -20207.174    1509.8534   -21717.027   -1130.9106      329.479    39.445245    39.202953    23.801764 
   58200     239.6751   -280.87196    216156.16   -20176.773    1518.1551   -21694.928   -534.11395    328.46843    39.445566    39.203416    23.774516 
   58400    232.70012   -259.86161    216156.16   -20185.037    1473.9741   -21659.011   -464.80103    328.39849    39.446418    39.204819    23.782754 
   58600    225.44225   -529.07295    216156.16    -20209.16    1428.0011   -21637.161   -1567.3612    329.27041     39.44667     39.20737    23.785598 
   58800    240.87579   -325.96298    216156.16   -20192.668    1525.7606   -21718.428   -725.33641    330.05241    39.446392     39.20534    23.798205 
   59000    237.58327   -249.54518    216156.16   -20148.459     1504.905   -21653.364   -393.67849     329.7891     39.44733      39.2055    23.807851 
   59200    237.37254   -463.35191    216156.16   -20193.085    1503.5702   -21696.655   -1322.2729    330.60371    39.446701    39.206049    23.818228 
   59400    231.94551   -364.00087    216156.16   -20213.583    1469.1942   -21682.777   -954.79738    333.22558    39.446049    39.206844    23.821475 
   59600    235.29387   -462.63012    216156.16   -20255.019    1490.4035   -21745.422   -1307.5203    333.56696    39.444676    39.206899    23.842428 
   59800    231.27838   -488.78365    216156.16   -20222.042    1464.9685    -21687.01   -1438.9715    332.49329    39.442503    39.205597    23.852522 
   60000    232.28871   -431.92783    216156.16    -20175.82    1471.3681   -21647.188   -1208.2974    333.64553    39.441688     39.20783    23.874377 
   60200    232.15973   -386.87137    216156.16   -20213.916    1470.5511   -21684.467   -970.10093     335.2647    39.440632    39.206222    23.853722 
   60400    237.37899   -282.36701    216156.16   -20173.614    1503.6111   -21677.225   -561.58821    334.80276    39.441499    39.204125    23.856672 
   60600    241.26895   -349.86974    216156.16   -20167.858     1528.251   -21696.109   -903.83966    335.50981    39.439868    39.202455    23.861815 
   60800    237.80826   -235.95049    216156.16   -20118.143    1506.3301   -21624.473   -344.37833    336.50111    39.438525    39.201401    23.860857 
   61000    233.19599   -402.45564    216156.16   -20168.948     1477.115   -21646.063   -1066.2102    336.83208    39.439657    39.201093    23.870035 
   61200    238.48358   -347.01553    216156.16   -20088.564    1510.6078   -21599.172   -839.18589    337.68713    39.442229    39.199962    23.873288 
   61400    240.02091   -353.26787    216156.16   -20149.755    1520.3455   -21670.101   -823.48586    338.04388      39.4437    39.201065    23.875622 
   61600    231.96839    -282.0632    216156.16   -20184.607    1469.3391   -21653.946   -539.40167    339.52409     39.44368    39.202106    23.869833 
   61800    230.06604   -538.16459    216156.16   -20244.001    1457.2892    -21701.29   -1641.4261    338.69657    39.445201    39.202319    23.857002 
   62000    231.61465   -441.54745    216156.16   -20173.628    1467.0985   -21640.726   -1184.9762    339.54234    39.444453     39.20301    23.873061 
   62200    236.16781   -309.60805    216156.16   -20133.536    1495.9392   -21629.476   -688.54266    339.04373     39.44377    39.201919    23.887298 
   62400    244.03515    -289.9516    216156.16   -20124.871    1545.7727   -21670.643   -634.25681    338.21457    39.441424    39.200706    23.872868 
   62600    235.58404   -338.27554    216156.16   -20155.629    1492.2415    -21647.87   -797.95009    337.07126    39.441007     39.20061    23.889616 
   62800    229.89817   -340.64931    216156.16   -20233.738    1456.2259   -21689.964     -799.645    337.87875    39.440863    39.202357    23.895201 
   63000    237.57288   -407.28079    216156.16   -20136.781    1504.8392   -21641.621   -1099.0295    338.34408    39.442226    39.203252    23.893006 
   63200     232.5032   -276.64565    216156.16   -20161.008    1472.7268   -21633.735   -539.31078    341.48271    39.441242    39.206145     23.87515 
   63400    227.64988    -537.3382    216156.16   -20218.854    1441.9847   -21660.839   -1678.4462    343.28329    39.442056    39.206654    23.862781 
   63600    230.17477   -334.50308    216156.16   -20226.796    1457.9779   -21684.774   -825.69657    344.19994     39.44128    39.207578    23.850765 
   63800     227.3692    -412.7286    216156.16   -20262.489    1440.2068   -21702.696   -1132.0975    344.64612    39.441173    39.208193    23.854143 
   64000    237.06146   -336.35497    216156.16   -20169.997    1501.5998   -21671.596   -769.05951    345.86512    39.441527    39.209332    23.840571 
   64200    241.55184   -412.48618    216156.16    -20168.41    1530.0428   -21698.453   -1102.8662    346.69264     39.43856    39.210052    23.842966 
   64400    235.76835   -238.49552    216156.16   -20204.274    1493.4089   -21697.683   -438.85521    348.07076    39.439325    39.211122    23.821012 
   64600     226.9381   -371.04468    216156.16   -20245.011    1437.4762   -21682.487   -935.56585    349.88987    39.438985    39.211889    23.804861 
   64800    233.32283   -362.62658    216156.16   -20217.131    1477.9184   -21695.049   -874.53693    352.42191    39.440082    39.212651    23.797865 
   65000    233.15822   -301.55743    216156.16   -20122.398    1476.8758   -21599.273   -637.99133    353.10575    39.439724     39.21091    23.778854 
   65200    228.55689   -312.40997    216156.16   -20164.545    1447.7299   -21612.275   -628.93738    355.26889    39.440212    39.210611    23.743788 
   65400    230.77588    -357.4372    216156.16   -20171.346    1461.7855   -21633.131   -861.88165    355.02333    39.438731    39.208614    23.740996 
   65600    239.16432   -600.23371    216156.16   -20141.942    1514.9197   -21656.862   -1862.0668    356.83465    39.439594    39.206587    23.721123 
   65800    235.33549   -251.84382    216156.16   -20140.365    1490.6671   -21631.032   -366.64275     357.2682    39.438546    39.205044    23.726728 
   66000    232.33491   -236.85504    216156.16   -20162.172    1471.6608   -21633.833   -311.85851    357.87079    39.437913    39.203776    23.738891 
   66200    232.53619   -289.69092    216156.16   -20186.939    1472.9357   -21659.875   -573.17575    361.00377      39.4375    39.200752    23.740384 
   66400    234.31551   -581.48979    216156.16   -20175.451    1484.2063   -21659.657   -1796.1902    359.81634    39.436704    39.200837    23.737654 
   66600     229.7001   -469.31321    216156.16   -20215.118    1454.9713   -21670.089   -1290.2872    360.03005    39.434896    39.200949    23.744201 
   66800    232.94233   -411.20017    216156.16   -20204.878    1475.5083   -21680.386   -1043.2538    361.75765    39.434912    39.201804    23.744187 
   67000    227.45891   -338.81234    216156.16   -20275.932    1440.7751   -21716.707   -775.63918    361.74161    39.435775    39.202219    23.749802 
   67200    234.66049   -365.23032    216156.16   -20205.105    1486.3915   -21691.497   -893.60533     362.5233    39.433234    39.199282    23.746416 
   67400    233.34633   -413.37325    216156.16   -20183.996    1478.0673   -21662.064   -1100.7847     361.7906    39.432458    39.199009    23.739275 
   67600    240.88222   -372.91721    216156.16    -20110.34    1525.8013   -21636.141   -900.99762    363.90508    39.431914    39.199321    23.736182 
   67800    234.43788   -489.65478    216156.16   -20167.683    1484.9814   -21652.665   -1387.4832     366.4238    39.432434    39.197558    23.746606 
   68000    237.84324   -344.11467    216156.16   -20192.854    1506.5517   -21699.406   -797.42261    367.89061    39.431907     39.19563    23.738304 
   68200    233.11995   -332.84025    216156.16   -20194.503    1476.6334   -21671.137   -747.11041    368.21685    39.431463    39.194172    23.745136 
   68400    239.49741   -496.61794    216156.16   -20139.173    1517.0296   -21656.203   -1426.5249    369.15524    39.431995    39.192909    23.754039 
   68600    235.15406   -450.57084    216156.16   -20141.188    1489.5179   -21630.706   -1247.2512    369.72485    39.430771    39.191557    23.757759 
   68800    237.83785   -188.43964    216156.16   -20119.861    1506.5176   -21626.378   -152.55805    369.97721    39.429492    39.190989    23.765292 
   69000    239.20579   -230.74413    216156.16   -20122.247    1515.1824    -21637.43   -404.52712    371.46367    39.430665    39.188358    23.762162 
   69200    230.20258   -300.41172    216156.16   -20218.442    1458.1541   -21676.596   -632.08926    374.02701     39.43291    39.187883    23.775924 
   69400    228.73707   -394.63982    216156.16    -20232.51    1448.8713   -21681.382    -1035.651    375.19419    39.435469    39.189476    23.777904 
   69600    240.64377   -480.58528    216156.16   -20066.015    1524.2909   -21590.306   -1363.2044    377.01619     39.43687    39.189203    23.775244 
   69800     232.9624   -427.56702    216156.16   -20149.041    1475.6354   -21624.677   -1110.2533    376.46784     39.43555    39.187322    23.795041 
   70000    234.33068   -617.34804    216156.16   -20160.584    1484.3024   -21644.886   -1991.3455    375.92294     39.43554    39.186671    23.798611 
   70200    235.56391    -387.5047    216156.16   -20145.551    1492.1139   -21637.665   -999.93665    375.82239    39.434874    39.185629    23.790605 
   70400    236.83824   -255.90506    216156.16   -20059.945    1500.1859   -21560.131   -433.20906    375.69175    39.435154    39.184522    23.806604 
   70600    230.07035   -411.03952    216156.16   -20145.654    1457.3165    -21602.97   -1091.8687    377.65191    39.434363    39.182919    23.824602 
   70800    233.61251   -234.29157    216156.16   -20159.586    1479.7534   -21639.339   -359.41213    377.82334    39.435211    39.182915    23.838648 
   71000    232.81991   -388.36866    216156.16   -20190.744    1474.7328   -21665.477   -1015.6092    378.44233    39.437741    39.183524    23.842965 
   71200    234.04959   -536.43228    216156.16   -20175.814    1482.5219   -21658.336   -1625.9102    380.01089    39.441324    39.182321     23.81711 
   71400    235.95761   -281.74484    216156.16   -20203.968    1494.6077   -21698.576   -521.11387    378.94705    39.439723    39.180323    23.797056 
   71600     243.5488   -361.85816    216156.16   -20141.021     1542.692   -21683.713    -878.3962    379.23725    39.438123    39.180004    23.787595 
   71800    227.95005   -389.84473    216156.16   -20265.532    1443.8861   -21709.418    -985.9149    380.12397    39.439235     39.18315    23.795519 
   72000    232.00822   -285.80643    216156.16   -20270.762    1469.5914   -21740.353   -528.45479    379.47221    39.441214    39.182142    23.794796 
   72200    246.27536    -516.6837    216156.16   -20122.326    1559.9626   -21682.288   -1574.9514    379.36676    39.443582    39.182354    23.783419 
   72400    229.98904   -505.03242    216156.16   -20198.469    1456.8015    -21655.27   -1478.7337    379.67519    39.449688    39.181323    23.770191 
   72600     236.7609   -432.40914    216156.16   -20159.857    1499.6959   -21659.553    -1181.775     381.2881    39.451414    39.182053    23.761596 
   72800     233.4183   -264.73167    216156.16   -20181.965    1478.5232   -21660.488   -444.09953     379.1577    39.450832    39.182516    23.748247 
   73000    231.24164   -359.41073    216156.16   -20189.151    1464.7357   -21653.887   -909.71044    380.59076    39.451261    39.181403    23.733109 
   73200    235.36325   -463.60879    216156.16   -20124.278    1490.8429   -21615.121   -1319.4349    381.94254    39.452925    39.182496    23.757858 
   73400    232.89422   -441.86683    216156.16   -20135.548    1475.2036   -21610.751   -1248.8916    382.46165    39.451923    39.183521     23.74826 
   73600    242.07904    -331.1255    216156.16   -20111.505    1533.3822   -21644.887   -757.91141    381.49057    39.451105    39.180691    23.740985 
   73800    230.76785    -424.6004    216156.16   -20216.157    1461.7347   -21677.892    -1099.956    381.79444    39.448752    39.177765    23.733191 
   74000    229.63596   -190.19889    216156.16   -20202.576     1454.565   -21657.141   -147.84773    382.42314    39.446956    39.176869    23.740625 
   74200      235.506   -291.19172    216156.16   -20111.719    1491.7471   -21603.466    -599.2655    383.20237     39.44801    39.175476    23.737408 
   74400    234.72858   -480.12901    216156.16    -20093.33    1486.8228   -21580.153   -1383.1148    383.98353    39.449964    39.175475    23.737299 
   74600    229.17099   -408.88196    216156.16   -20157.374    1451.6198   -21608.994    -1072.349    383.59169    39.448182    39.175926    23.717438 
   74800    233.46374   -360.68069    216156.16   -20145.716     1478.811   -21624.527   -900.49491    385.33163    39.448389    39.175314     23.70145 
   75000    230.43095   -396.55389    216156.16   -20167.229    1459.6006    -21626.83   -1064.1159    385.34674    39.449687    39.176494    23.713323 
   75200    235.86402   -360.91749    216156.16   -20095.654    1494.0149   -21589.668   -900.75919    386.22224    39.448241    39.174554    23.708047 
   75400    234.78656   -406.76908    216156.16   -20170.088      1487.19   -21657.278   -1083.4781     387.2021    39.445086    39.173104    23.693332 
   75600    229.58128   -282.57076    216156.16   -20093.661    1454.2186    -21547.88   -547.57272    387.99915    39.444787    39.172752    23.710867 
   75800    239.33842   -554.03871    216156.16   -20064.016    1516.0225   -21580.039   -1666.9409    390.52634    39.445884    39.172369    23.737752 
   76000     240.5461   -304.77537    216156.16   -20070.854    1523.6722   -21594.526   -651.08478     390.5154    39.445678    39.172159     23.74066 
   76200    228.32627   -395.80178    216156.16   -20180.045    1446.2691   -21626.314   -1028.8049    391.97625    39.444347    39.172923    23.734466 
   76400     233.2032   -505.67378    216156.16    -20155.94    1477.1607     -21633.1    -1506.225    392.52568    39.446371    39.173148    23.718354 
   76600    236.36891   -445.87599    216156.16   -20173.288     1497.213   -21670.501   -1214.1569    393.24795     39.44571    39.173033    23.704964 
   76800    228.50312    -500.2663    216156.16   -20185.641    1447.3893   -21633.031   -1473.1062    394.78918    39.445424    39.174678     23.70836 
   77000    233.56783   -275.23691    216156.16    -20134.87    1479.4703    -21614.34   -546.16955    396.75702    39.445768    39.175873    23.698722 
   77200    238.44045   -231.77833    216156.16   -20134.843    1510.3346   -21645.177   -343.02697    396.42405    39.444973    39.175044    23.695537 
   77400    234.56462   -303.96055    216156.16   -20169.242    1485.7842   -21655.026   -627.41396    398.37609    39.444126    39.173743    23.712162 
   77600    234.55254   -470.12207    216156.16   -20228.276    1485.7077   -21713.984   -1335.1081     398.3198    39.444304    39.172795    23.700378 
   77800    238.96531   -443.55447    216156.16   -20201.142    1513.6592   -21714.802   -1232.5996    398.87827    39.446283    39.169879    23.686571 
   78000    238.30021   -416.69133    216156.16   -20252.874    1509.4463    -21762.32   -1099.8043    400.14212    39.445151     39.16981    23.688236 
   78200    232.66264   -403.04093    216156.16   -20172.839    1473.7367   -21646.576   -1091.4771    401.32832    39.444558    39.166778    23.694163 
   78400    233.86608   -358.21185    216156.16   -20164.099    1481.3595   -21645.459   -844.55098     400.2411    39.445853    39.165942    23.706584 
   78600    244.59776   -230.45555    216156.16   -20151.901    1549.3363   -21701.237   -291.89922     402.4183    39.446375    39.166466    23.718612 
   78800    237.45654   -490.53795    216156.16    -20139.97    1504.1023   -21644.072   -1428.5366    401.92065    39.447627    39.166532    23.709718 
   79000    237.20504    -433.7384    216156.16   -20108.442    1502.5093   -21610.951   -1158.3771     401.9881    39.449928    39.167061    23.693101 
   79200    237.57344   -284.81519    216156.16   -20108.989    1504.8427   -21613.832   -502.06762    401.75679    39.453131    39.166076     23.68566 
   79400    235.20586   -353.80455    216156.16   -20098.881     1489.846   -21588.727   -839.00013    403.36516    39.454467    39.166758    23.683154 
   79600    230.96225   -283.11435    216156.16   -20191.903     1462.966   -21654.869     -543.005     403.2888    39.454085    39.167086    23.664743 
   79800    234.33072   -488.42529    216156.16    -20157.77    1484.3027   -21642.072    -1387.101    404.30282    39.456587    39.165338    23.661287 
   80000    234.39712   -306.19083    216156.16   -20200.471    1484.7233   -21685.194   -660.31859    404.16074    39.459407     39.16455    23.660326 
   80200    232.41399   -264.55611    216156.16    -20224.02    1472.1617   -21696.182   -492.14998    405.56167    39.461179    39.164585    23.659581 
   80400     228.5135    -199.4411    216156.16   -20201.304    1447.4551    -21648.76   -200.96814    404.89597    39.462604    39.164716    23.685005 
   80600    240.15665   -491.58366    216156.16   -20213.536    1521.2054   -21734.742   -1430.3931    406.79073    39.460561    39.163977    23.664512 
   80800    233.82948   -326.12639    216156.16   -20185.124    1481.1277   -21666.252   -753.71223    404.98654    39.459088    39.165548     23.67686 
   81000    234.06429   -543.02262    216156.16   -20177.441     1482.615   -21660.056   -1658.8144    405.20811    39.458596    39.167115    23.689691 
   81200    234.60555   -547.46187    216156.16    -20160.62    1486.0435   -21646.663   -1691.8475    406.15885    39.459232    39.163695    23.682976 
   81400    237.25449   -550.76352    216156.16   -20134.833    1502.8225   -21637.656   -1760.7468    406.15211    39.458782    39.164573    23.680903 
   81600    234.91743   -444.00354    216156.16   -20184.155     1488.019   -21672.174   -1246.9683    408.25405    39.459449    39.162884    23.683482 
   81800    231.04916   -437.53136    216156.16   -20238.034    1463.5165   -21701.551    -1253.885    411.17259    39.458493    39.163582    23.685767 
   82000    233.51085   -345.58219    216156.16   -20182.117    1479.1094   -21661.226   -815.92016    413.69679    39.457509    39.161241    23.684123 
   82200    242.05165   -269.63834    216156.16    -20136.72    1533.2087   -21669.928   -493.64528    415.00907    39.460147    39.162376    23.697788 
   82400    236.85239   -303.57781    216156.16   -20183.316    1500.2754   -21683.592   -635.32316    416.94469    39.462045    39.165346    23.711407 
   82600    239.93638   -468.01791    216156.16   -20109.874    1519.8101   -21629.684   -1279.9888    415.77143    39.464496     39.16696    23.712086 
   82800    233.73934   -424.08068    216156.16    -20192.28    1480.5567   -21672.837   -1174.4995    414.85818    39.467511    39.165203    23.709458 
   83000    237.90516   -491.54648    216156.16     -20138.8    1506.9439   -21645.744   -1477.2733    414.85932    39.469456    39.166612    23.702676 
   83200    230.70777   -295.73409    216156.16   -20135.639    1461.3541   -21596.993   -590.67671    416.19997    39.469975    39.164469    23.696902 
   83400    238.26283   -353.23648    216156.16   -20160.618    1509.2095   -21669.827   -861.09272     417.4996    39.472363    39.161765    23.694598 
   83600    228.29187   -431.90951    216156.16   -20229.707    1446.0512   -21675.758   -1205.4971     419.0733    39.471873    39.160895    23.713736 
   83800    235.02238   -396.44164    216156.16    -20190.54    1488.6838   -21679.224   -1017.6656    417.77156    39.470751    39.160885    23.702157 
   84000    237.14313   -231.78099    216156.16   -20193.047    1502.1171   -21695.164   -325.33543     419.5183    39.469999    39.160606    23.714107 
   84200    236.82378   -266.10569    216156.16   -20184.934    1500.0943   -21685.028   -434.64254    420.88031     39.46846    39.161216    23.705126 
   84400    238.74407   -483.68856    216156.16   -20237.312    1512.2578    -21749.57   -1422.5581     422.6847    39.468836    39.163049    23.710059 
   84600    238.99689   -295.58053    216156.16   -20192.503    1513.8592   -21706.362    -570.6181    422.64122    39.469843    39.165738    23.716976 
   84800     231.2695   -384.20294    216156.16   -20223.721    1464.9122   -21688.633     -971.246    423.99137    39.470249    39.167958    23.704834 
   85000    235.86852   -266.91312    216156.16   -20206.576    1494.0434   -21700.619   -486.97104     423.7998    39.469354    39.168282    23.706427 
   85200    232.70585   -318.75579    216156.16   -20225.273    1474.0104   -21699.283   -684.40145    424.72328    39.471446    39.171717    23.695011 
   85400    233.02718   -356.79109    216156.16   -20263.093    1476.0458   -21739.138   -833.10906    424.84049    39.472012    39.174277    23.693251 
   85600    231.82175   -173.27916    216156.16   -20235.477    1468.4103   -21703.887   -90.417378    426.66931    39.472779     39.17367    23.697755 
   85800    244.25789   -319.48041    216156.16   -20145.937    1547.1836   -21693.121   -681.04742    427.32153     39.47413    39.173034     23.71702 
   86000    233.02123   -177.99568    216156.16   -20202.274    1476.0081   -21678.282   -64.003624    427.30736    39.473772    39.174009    23.708797 
   86200    233.99271   -560.82171    216156.16    -20168.54    1482.1616   -21650.702   -1750.6573    429.15625    39.473658    39.176094    23.676044 
   86400    228.02457   -519.38496    216156.16   -20202.586    1444.3581   -21646.944   -1558.8551    430.26632    39.475877    39.175932    23.662971 
   86600    228.64354   -490.65381    216156.16   -20122.953    1448.2788   -21571.232    -1468.839    433.23528    39.475661    39.175229    23.671829 
   86800    229.87887   -574.65232    216156.16   -20204.371    1456.1036   -21660.475   -1787.8827     434.3961    39.475099     39.17465    23.662456 
   87000    232.76321   -416.68178    216156.16   -20143.846    1474.3737   -21618.219   -1139.9729    433.91216    39.473843    39.173641    23.659748 
   87200    231.34427   -493.14779    216156.16   -20131.284    1465.3858   -21596.669   -1466.8241    435.33774    39.475802    39.174444    23.658446 
   87400    229.57641   -260.90179    216156.16   -20178.466    1454.1878   -21632.654   -471.36336     435.2373    39.476678    39.173305    23.658658 
   87600    232.37156   -304.54755    216156.16   -20088.791    1471.8929   -21560.684   -618.82294    437.51808    39.477244    39.173004    23.663087 
   87800    233.01772   -461.99476    216156.16   -20136.719    1475.9858   -21612.705     -1320.01    438.62353    39.476899    39.171528    23.658928 
   88000     237.9264     -359.512    216156.16   -20127.668    1507.0785   -21634.746   -880.43744    437.60229    39.476973    39.173076     23.66576 
   88200    231.20021   -437.28556    216156.16   -20176.363    1464.4733   -21640.836   -1245.5179    438.18291    39.475156    39.172159     23.69188 
   88400    240.17447   -399.75339    216156.16   -20131.686    1521.3183   -21653.004   -1047.6513    438.91849    39.473909     39.17422    23.719006 
   88600    238.53361   -373.95785    216156.16   -20181.144    1510.9247   -21692.068   -951.06625    438.06276    39.473579    39.173342    23.723899 
   88800    232.56879   -517.41033    216156.16   -20191.981    1473.1422   -21665.123   -1556.5142    440.56433    39.472501    39.171442    23.733618 
   89000    235.37887   -370.52661    216156.16   -20186.432    1490.9418   -21677.374   -927.42428    440.53777    39.474315    39.169963    23.714679 
   89200    232.43456   -360.92375    216156.16    -20164.64    1472.2919   -21636.932   -911.44369     442.1871    39.477315    39.170662    23.716366 
   89400    235.57722   -253.78152    216156.16   -20139.642    1492.1982   -21631.841   -410.01528    441.59295    39.479407     39.17278     23.73897 
   89600    225.02123   -422.41597    216156.16    -20294.39    1425.3343   -21719.724   -1140.8642     442.3727    39.478444    39.172959    23.739145 
   89800    232.38026   -553.34868    216156.16   -20169.711     1471.948   -21641.659   -1701.5168    443.71606    39.477836    39.171728    23.749454 
   90000    238.20278   -387.68348    216156.16   -20204.393    1508.8292   -21713.223   -958.19596    443.56313    39.477358     39.17152    23.743238 
   90200    231.61177   -556.59883    216156.16   -20233.054    1467.0802   -21700.134   -1774.8161    444.95051     39.47463    39.169163    23.746805 
   90400     241.6646   -421.45059    216156.16   -20209.206    1530.7571   -21739.963   -1123.3954    445.17994    39.474088    39.169314    23.726793 
   90600    227.41865   -279.16046    216156.16   -20225.818    1440.5201   -21666.338    -554.4466    445.38921    39.476148    39.167633    23.713188 
   90800    236.84523   -438.99802    216156.16   -20211.118    1500.2301   -21711.349   -1200.3055     447.0711     39.47847    39.167666    23.714396 
   91000    230.24367   -338.01145    216156.16    -20265.65    1458.4144   -21724.065   -826.48132    448.53768    39.480258     39.16728    23.741231 
   91200    225.07911   -340.16684    216156.16    -20323.81    1425.7009   -21749.511   -787.61695    450.13976    39.480137    39.168048    23.728808 
   91400    233.19353   -373.23918    216156.16   -20259.582    1477.0994   -21736.682   -996.86231    450.99111    39.480406    39.168406    23.710255 
   91600    235.25135   -361.27941    216156.16    -20177.31    1490.1341   -21667.444   -868.10459    450.42055    39.481062     39.16782    23.727607 
   91800     238.5747   -376.15052    216156.16   -20185.979     1511.185   -21697.164   -986.83516    449.41217    39.483883    39.168301    23.730038 
   92000    236.51271   -384.60866    216156.16   -20176.765    1498.1239   -21674.888   -977.23556    451.93898    39.483655    39.165983    23.706659 
   92200     234.8075   -445.13359    216156.16   -20183.888    1487.3227   -21671.211   -1297.8459    451.68531    39.483959    39.164935    23.710802 
   92400    239.90833   -211.39755    216156.16   -20172.327    1519.6325   -21691.959   -267.98174    452.21898    39.486301     39.16347    23.702514 
   92600     238.0861   -482.96251    216156.16   -20090.711    1508.0901   -21598.801   -1454.8669    452.83387    39.485948    39.163126    23.716756 
   92800    232.26675   -196.21817    216156.16   -20173.958     1471.229   -21645.187   -209.38504     452.7326     39.48548    39.160653    23.726912 
   93000     229.0175   -386.03509    216156.16   -20182.618    1450.6475   -21633.266   -1020.0149    452.83723    39.487725    39.160441    23.722441 
   93200    234.37583   -458.67245    216156.16    -20164.03    1484.5884   -21648.619   -1312.9532      454.424    39.488095    39.162243     23.72593 
   93400    229.10563   -425.35266    216156.16   -20221.055    1451.2058    -21672.26   -1209.9773     454.0136    39.486317    39.163484    23.720073 
   93600     238.2722   -196.75389    216156.16   -20172.738    1509.2689   -21682.006   -265.42911     454.1322    39.488631    39.164536    23.701687 
   93800    230.20845   -412.64983    216156.16   -20206.554    1458.1913   -21664.745   -1112.2318    455.30083    39.487089    39.164645    23.708379 
   94000    232.09246   -477.70164    216156.16   -20180.881     1470.125   -21651.007   -1402.5118    456.32191    39.488482    39.164713     23.71664 
   94200    237.61511   -295.06948    216156.16   -20095.384    1505.1067   -21600.491    -603.8443    457.54738    39.488864    39.164452    23.714925 
   94400    230.03834   -477.77808    216156.16   -20134.031    1457.1138   -21591.145   -1373.3338    458.76194    39.486322    39.165761    23.703974 
   94600    233.01256   -345.30216    216156.16   -20162.267    1475.9531    -21638.22   -843.79326    458.65879    39.485304    39.164942    23.697547 
   94800    238.27209   -348.02946    216156.16   -20128.635    1509.2681   -21637.903   -825.99049    461.04753    39.483075    39.164971    23.698936 
   95000    235.46671   -442.61235    216156.16   -20203.157    1491.4983   -21694.655   -1216.9085    461.61349    39.482851    39.165155    23.669464 
   95200    233.03551   -416.26642    216156.16   -20182.617    1476.0985   -21658.715   -1126.6164    463.81141    39.483085    39.165047    23.656293 
   95400    236.62354    -512.7517    216156.16   -20141.375    1498.8259   -21640.201   -1520.1338    464.92144    39.483555    39.162907    23.649086 
   95600    232.62985   -425.79883    216156.16   -20094.612     1473.529   -21568.141   -1193.4311    467.53491    39.484697    39.162305    23.642906 
   95800    238.38681   -343.71764    216156.16   -20086.969    1509.9948   -21596.963   -795.04036    466.91761    39.486488     39.15973    23.622899 
   96000    239.16116   -433.64929    216156.16   -20107.939    1514.8997   -21622.838   -1272.3524    467.96168    39.485858    39.158318    23.624122 
   96200    237.09119   -427.45684    216156.16   -20073.247    1501.7881   -21575.035   -1133.4897    468.93199    39.485675    39.156268    23.616242 
   96400    237.30894    -348.4911    216156.16   -20128.108    1503.1674   -21631.275   -880.83416     469.8283    39.484981    39.156349    23.630269 
   96600     230.9427   -460.58457    216156.16   -20159.414    1462.8422   -21622.257   -1320.2166    471.16623    39.486066    39.155898    23.622206 
   96800    232.85174   -397.89968    216156.16   -20122.068    1474.9345   -21597.003   -1026.6602    471.73206    39.485416    39.159377    23.626036 
   97000    239.21221   -523.16496    216156.16   -20180.421    1515.2231   -21695.644   -1588.8483    473.01173    39.485416    39.158244    23.643986 
   97200    234.25981   -486.29817    216156.16    -20183.91    1483.8535   -21667.763   -1440.4719    473.02233    39.486625    39.157192    23.648366 
   97400    230.60171   -226.29223    216156.16   -20147.594    1460.6823   -21608.276   -329.44992    473.12279    39.486175    39.155227    23.657108 
   97600    239.81438   -426.46934    216156.16   -20107.836    1519.0374   -21626.873   -1156.7523    474.06684    39.484578    39.155239    23.675916 
   97800    241.31137   -416.43494    216156.16    -20158.29    1528.5196    -21686.81   -1112.9031    476.13486    39.485387    39.155054    23.689351 
   98000    228.15741   -489.14525    216156.16   -20181.936    1445.1996   -21627.136   -1446.9888    476.59048    39.484378    39.151029    23.684099 
   98200    233.58016   -358.66791    216156.16   -20183.282    1479.5484    -21662.83   -885.26848    476.96523    39.483116     39.14977    23.683025 
   98400    229.41512   -335.84615    216156.16   -20171.877    1453.1662   -21625.044   -812.82279    476.41804    39.484044    39.147099    23.657959 
   98600     231.4187   -561.45296    216156.16   -20156.335    1465.8573   -21622.192   -1747.4076    477.59846    39.484428    39.145571    23.663976 
   98800    242.10454   -303.03038    216156.16    -20142.52    1533.5437   -21676.064   -682.02915    479.80302    39.484763     39.14451    23.669024 
   99000    231.73378    -506.1371    216156.16   -20199.694    1467.8531   -21667.547   -1555.1189    480.20008     39.48555    39.144148    23.662705 
   99200    236.01359    -427.0694    216156.16    -20133.63    1494.9623   -21628.592   -1231.9188    482.26253    39.488691    39.146848    23.681899 
   99400    233.40217   -336.16305    216156.16   -20128.157     1478.421   -21606.578   -796.07571    480.04413    39.488229    39.148643    23.689674 
   99600      236.243   -433.44032    216156.16   -20117.694    1496.4155    -21614.11   -1216.1125    481.61257    39.486913    39.146211    23.698911 
   99800    235.24149   -385.66367    216156.16    -20112.72    1490.0716   -21602.792   -1001.0335    483.42968    39.488885    39.146321    23.694363 
  100000    241.89983   -347.24498    216156.16   -20122.178     1532.247   -21654.425   -816.96841     484.2763    39.488913    39.146674    23.710314 
  100200    229.48316   -365.72265    216156.16    -20218.59    1453.5971   -21672.187    -911.4655     485.8363    39.487838    39.146805    23.718071 
  100400    235.15291   -288.56757    216156.16   -20136.255    1489.5106   -21625.765   -603.01524    485.77725    39.488449    39.145521    23.706911 
  100600    235.54438    -601.9942    216156.16   -20172.267    1491.9902   -21664.258   -1900.2979    487.40789      39.4879    39.145201    23.711229 
  100800    233.35275   -225.94703    216156.16   -20257.729     1478.108   -21735.836   -294.93302     489.0014    39.488319    39.143956    23.723901 
[...]
 3975800    221.15628   -215.75352    216156.16   -22132.242    1400.8528   -23533.095   -219.24284     3014.538    37.300865    39.939717    23.600293 
 3976000     227.2312   -184.52176    216156.16   -22160.549    1439.3327   -23599.881   -97.720473    3015.6638    37.300249     39.94097    23.602468 
 3976200    223.22976   -192.33225    216156.16   -22159.379    1413.9867   -23573.365   -159.64677    3014.1939    37.300157    39.941789    23.601359 
 3976400    226.92165   -206.68759    216156.16   -22167.766     1437.372   -23605.138   -229.00598    3015.1636    37.300482    39.942932      23.5994 
 3976600     223.6658   -228.33959    216156.16   -22158.033    1416.7487   -23574.782   -283.60031    3014.9414    37.300203     39.94317    23.593524 
 3976800    225.10851   -276.28086    216156.16   -22104.154    1425.8871   -23530.041    -503.5003    3014.9521    37.300018    39.944851    23.591744 
 3977000    222.62553   -151.42238    216156.16   -22194.503    1410.1594   -23604.663    26.056167    3015.9702    37.300119    39.945229    23.595156 
 3977200     227.3491   -124.57178    216156.16   -22120.006    1440.0795   -23560.086     133.7886    3015.1871    37.298923    39.944701    23.598114 
 3977400    223.97614   -87.082634    216156.16   -22128.146    1418.7144    -23546.86    317.17213    3013.9916    37.299871    39.943378    23.598224 
 3977600    219.34882   -210.32834    216156.16   -22157.252     1389.404   -23546.656   -196.74855    3014.4881    37.299508    39.942625    23.596634 
 3977800    225.69696   -178.17433    216156.16   -22158.443    1429.6145   -23588.057   -66.324786    3013.9941    37.299335    39.943464    23.594721 
 3978000    222.91199   -98.069153    216156.16    -22180.69    1411.9739   -23592.664    285.53371    3015.1566    37.298811     39.94309    23.592463 
 3978200     229.4888   -161.96506    216156.16   -22105.558    1453.6329    -23559.19   -0.1677256    3014.9655     37.29881    39.943375    23.594872 
 3978400    218.44179   -184.41569    216156.16   -22159.591    1383.6586   -23543.249   -108.80502    3013.8301    37.299365    39.942959    23.591089 
 3978600    225.66212   -81.782045    216156.16    -22118.75    1429.3938   -23548.144    355.38804    3014.1715    37.300304    39.942777    23.587844 
 3978800    226.71087   -239.59113    216156.16   -22094.211    1436.0369   -23530.248    -323.4702    3015.1698    37.301017    39.942137    23.590206 
 3979000    222.88826    -125.4574    216156.16   -22121.986    1411.8236    -23533.81    148.34486    3014.9856    37.300866    39.942327    23.589511 
 3979200    229.62572   -87.488494    216156.16   -22161.138    1454.5002   -23615.638    308.99891    3014.5924    37.300428    39.943242    23.590504 
 3979400    226.93254   -209.83414    216156.16   -22122.596    1437.4409   -23560.037    -197.0451    3014.1347    37.300612    39.943049    23.587295 
 3979600    227.65036   -214.06336    216156.16   -22135.231    1441.9878   -23577.219   -227.77924    3014.9542    37.301261     39.94298    23.590789 
 3979800    227.77908   -143.72339    216156.16   -22125.243    1442.8031   -23568.046    57.821923    3013.5491    37.300766    39.942354    23.596039 
 3980000     222.3349   -81.577527    216156.16    -22140.71    1408.3185   -23549.029    324.69065    3013.4805    37.300203    39.942282    23.595452 
 3980200    228.60615   -147.94647    216156.16   -22142.507    1448.0419   -23590.549    57.734459    3013.5188    37.298718    39.943055    23.596558 
 3980400     224.6792   -184.31667    216156.16   -22105.732    1423.1678     -23528.9   -68.440111     3015.258    37.297722    39.942864    23.598122 
 3980600    225.58086   -146.57855    216156.16   -22057.134    1428.8791   -23486.013     54.64822    3014.2858    37.298263    39.942427    23.592907 
 3980800    224.11418   -116.58409    216156.16   -22103.657    1419.5889   -23523.246    176.90836    3014.6484     37.29776    39.942608    23.592559 
 3981000    229.33328   -109.53305    216156.16   -22127.758    1452.6478   -23580.406    222.63773    3012.9667    37.295549    39.943622    23.598269 
 3981200    229.91969   -145.52196    216156.16   -22115.501    1456.3622   -23571.864    145.61575     3014.123    37.294121    39.944251     23.60044 
 3981400    226.50025   -207.33856    216156.16   -22085.167    1434.7027    -23519.87   -153.93831    3013.4707     37.29333    39.944758    23.606089 
 3981600    224.54353   -191.45544    216156.16   -22140.501    1422.3084    -23562.81   -147.48338    3014.4985    37.293162    39.944984    23.595741 
 3981800    226.54176   -93.546268    216156.16   -22132.545    1434.9656   -23567.511    253.65485    3013.7615    37.290606    39.945382    23.604909 
 3982000    222.03478   -209.73837    216156.16   -22178.751    1406.4175   -23585.168    -189.5032    3013.8185    37.290781    39.946456    23.607855 
 3982200    218.60699   -305.38458    216156.16   -22221.092    1384.7051   -23605.797   -600.47181    3014.2751    37.290303     39.94777    23.600613 
 3982400    217.94377    -238.4903    216156.16   -22129.721    1380.5041   -23510.225   -327.62493    3013.8718    37.289352    39.948653    23.604635 
 3982600    225.18486   -138.77902    216156.16   -22141.672    1426.3707   -23568.043    96.393988    3013.8103    37.287924    39.950492    23.597089 
 3982800    227.66027    -162.0228    216156.16   -22091.222    1442.0505   -23533.272   -2.5489619    3013.0909    37.287573    39.952164    23.605548 
 3983000    229.99247   -267.33572    216156.16   -22078.272    1456.8232   -23535.095   -445.78915    3014.5389    37.286677    39.953161    23.607294 
 3983200    226.03456   -243.72579    216156.16   -22106.171     1431.753   -23537.924   -328.84785    3014.1789    37.286573    39.953515    23.600081 
 3983400    227.81393   -195.57504    216156.16   -22061.978    1443.0238   -23505.002   -150.40056    3014.1002    37.285411     39.95462    23.595888 
 3983600     220.3111   -113.99293    216156.16   -22131.023    1395.4993   -23526.523    254.84289    3013.7952    37.284506    39.955517    23.603719 
 3983800    218.80186   -128.98582    216156.16   -22112.316    1385.9394   -23498.255    143.23264    3012.9155    37.283136     39.95634    23.607164 
 3984000    221.21598   -234.69901    216156.16   -22121.436     1401.231   -23522.667   -314.40598     3013.901    37.282416    39.956874    23.607132 
 3984200    220.92516   -227.99927    216156.16   -22083.402    1399.3888   -23482.791   -307.74753    3013.7793    37.281589     39.95663    23.605499 
 3984400    230.24197   -214.86094    216156.16   -22131.255    1458.4036   -23589.659   -253.22178    3013.4787    37.280749    39.954972    23.605672 
 3984600    228.65535   -122.41616    216156.16   -22141.642    1448.3536   -23589.996    156.78102    3013.8437    37.280163    39.954268    23.603841 
 3984800    227.20591   -180.85361    216156.16   -22110.458    1439.1725    -23549.63   -63.992646    3015.7729    37.280741    39.954135    23.613153 
 3985000    222.67426   -298.36485    216156.16   -22141.704    1410.4681   -23552.172   -594.88366    3014.5762    37.280783    39.954613    23.609878 
 3985200    228.66527   -216.98346    216156.16   -22096.494    1448.4165   -23544.911   -288.92767    3013.5459    37.279399    39.954782    23.604662 
 3985400    222.57361   -139.50567    216156.16   -22110.673    1409.8305   -23520.503    65.099477    3013.5554    37.278808    39.954325    23.596595 
 3985600    228.33393   -179.79092    216156.16   -22078.136    1446.3176   -23524.454   -58.966387     3013.737    37.278329    39.954071    23.593775 
 3985800    226.00139    -276.5383    216156.16   -22098.237    1431.5428   -23529.779   -523.57749    3014.4929    37.277893    39.954329    23.592965 
 3986000     229.9094    -222.0242    216156.16   -22031.489     1456.297   -23487.786   -263.15745    3015.1969    37.277197    39.954613    23.593012 
 3986200    227.87784   -144.61076    216156.16   -22059.725    1443.4287   -23503.154    74.809621     3014.042    37.277019    39.954192    23.601214 
 3986400     218.0286   -224.52983    216156.16   -22160.327    1381.0414   -23541.368   -260.13919    3013.7495    37.277648    39.953656    23.596259 
 3986600    226.47808   -231.59398    216156.16   -22125.367    1434.5623   -23559.929   -292.03572    3014.2018     37.27884    39.953244    23.593411 
 3986800    228.74912   -147.28205    216156.16   -22127.163    1448.9475    -23576.11    69.601262    3014.9839    37.278635    39.953254    23.592827 
 3987000     224.4165    -116.7653    216156.16   -22107.733    1421.5038   -23529.236     221.7937    3014.5918    37.278369    39.954067    23.590411 
 3987200    221.60948    -258.7403    216156.16   -22200.825    1403.7235   -23604.548   -434.76815    3014.0688    37.278276    39.953844    23.589338 
 3987400    222.52506   -251.18126    216156.16   -22150.456     1409.523   -23559.979   -359.20649    3015.6657    37.277658    39.954123    23.599185 
 3987600      228.065   -292.37588    216156.16   -22078.443    1444.6142   -23523.057   -560.51705    3014.9319    37.276527    39.953369    23.590151 
 3987800    223.57365   -167.36643    216156.16   -22132.049     1416.165   -23548.214   -10.577514    3014.6355    37.276834    39.953409    23.594519 
 3988000    228.79497   -121.85417    216156.16   -22089.152     1449.238    -23538.39    197.54147    3015.9831    37.277198     39.95454     23.58716 
 3988200    224.66154   -210.83095    216156.16   -22127.161    1423.0559   -23550.217   -200.41496    3014.8602    37.276591       39.954      23.5956 
 3988400    225.96016   -226.44587    216156.16   -22104.829    1431.2817    -23536.11   -250.46956    3014.9382    37.275877    39.954324     23.60062 
 3988600    214.88214   -253.65464    216156.16   -22153.491     1361.111   -23514.602   -387.75278    3015.3139    37.275537    39.955237    23.601336 
 3988800    219.62591   -210.63825    216156.16   -22148.638    1391.1591   -23539.797   -217.46112    3015.2169    37.272421    39.955126    23.595511 
 3989000    226.05895   -237.06548    216156.16   -22081.952    1431.9075   -23513.859   -348.14479    3015.6718    37.272103    39.955719    23.593898 
 3989200    225.88864   -235.66784    216156.16   -22122.728    1430.8287   -23553.556   -324.67212    3014.6509    37.272252    39.954249    23.588135 
 3989400    221.01996   -175.69045    216156.16   -22151.785    1399.9894   -23551.775   -47.129418    3014.7515    37.272476    39.954875    23.584233 
 3989600    228.34762   -238.77472    216156.16   -22065.121    1446.4044   -23511.525    -339.3307    3014.9267    37.270825    39.954188    23.596326 
 3989800    221.21018    -281.7699    216156.16   -22093.991    1401.1942   -23495.186   -527.31282     3014.615    37.271511    39.955266    23.595031 
 3990000    222.45347   -172.15891    216156.16   -22147.092    1409.0695   -23556.161   -100.13855    3014.4046    37.271427    39.956125    23.590764 
 3990200    221.05429   -110.27333    216156.16    -22154.94    1400.2068   -23555.147    216.04831    3014.3581     37.27106    39.956719     23.59073 
 3990400    225.63139   -139.17034    216156.16   -22128.728    1429.1992   -23557.927    127.92681    3015.3919    37.269872    39.956289    23.592575 
 3990600    220.56293   -292.51456    216156.16   -22163.223    1397.0944   -23560.317   -549.62745    3015.8518    37.271293    39.956514     23.59005 
 3990800     225.9211   -214.93511    216156.16    -22127.24    1431.0342   -23558.274   -244.67269    3015.6552     37.27121    39.957179    23.590772 
 3991000    230.17974   -163.24166    216156.16   -22097.663    1458.0094   -23555.672   -25.094909    3015.2067    37.271259    39.956973    23.590471 
 3991200    228.42545   -236.35333    216156.16   -22075.013    1446.8974   -23521.911    -340.9583    3014.1466    37.271073    39.957665    23.593647 
 3991400    229.70678   -283.59887    216156.16   -22084.796    1455.0136    -23539.81   -581.11855    3017.3598    37.273322    39.958106    23.594339 
 3991600    217.94289    -242.3825    216156.16   -22115.961    1380.4985   -23496.459   -374.91454     3016.399    37.274488    39.956678    23.591643 
 3991800    219.00269   -143.48956    216156.16   -22187.096    1387.2115   -23574.308    71.968167    3015.6315    37.274214    39.955987    23.603344 
 3992000    223.28032   -233.59326    216156.16   -22135.531     1414.307   -23549.838   -302.53203    3015.8271    37.275231    39.955574    23.596692 
 3992200    224.25594   -337.75168    216156.16   -22118.668    1420.4868   -23539.155   -783.07857     3016.728    37.274721    39.953729    23.597374 
 3992400    228.58489   -207.32137    216156.16   -22127.275    1447.9073   -23575.182   -207.67413    3015.3428    37.274157    39.952703    23.592546 
 3992600    226.88907   -114.73272    216156.16   -22126.865    1437.1656   -23564.031    234.39236    3013.3265    37.274765    39.953015    23.591879 
 3992800    232.05588   -210.13946    216156.16   -22122.796    1469.8933   -23592.689   -193.16468    3014.4047    37.275571    39.952594    23.598622 
 3993000    219.38096   -254.23527    216156.16   -22208.465    1389.6075   -23598.073   -355.11172    3015.0424    37.277599    39.951438    23.589788 
 3993200    229.81973   -169.84432    216156.16    -22127.17     1455.729   -23582.899    49.748708    3015.1588    37.278217    39.951476    23.590238 
 3993400    226.26859   -113.44272    216156.16   -22097.438    1433.2353   -23530.673    241.25702    3014.7648    37.277604    39.951521    23.590355 
 3993600    229.08293   -146.59132    216156.16   -22109.255     1451.062   -23560.317    80.641096    3015.3826    37.276708    39.950022    23.585913 
 3993800    223.00151   -231.04637    216156.16   -22125.173    1412.5409   -23537.714   -243.04882    3014.8519    37.276478    39.949918    23.591761 
 3994000    227.69805    -213.2508    216156.16   -22134.364    1442.2899   -23576.654   -212.30077    3014.3952    37.276898    39.949067     23.59606 
 3994200    223.60711   -174.83022    216156.16   -22158.542    1416.3769   -23574.919   -56.646019    3014.7321    37.276946    39.950798    23.597936 
 3994400    229.59577   -66.481239    216156.16   -22132.065    1454.3104   -23586.376    397.43611    3013.0503    37.275917    39.951043    23.601415 
 3994600     219.2904   -208.92589    216156.16   -22198.278    1389.0339   -23587.312   -176.90113    3014.7606    37.275026    39.950368    23.599653 
 3994800    226.35233   -373.96483    216156.16   -22091.634    1433.7658     -23525.4   -921.66438    3016.3956    37.275155     39.95156    23.599729 
 3995000    228.28641   -205.86186    216156.16   -22118.041    1446.0166   -23564.057   -189.02962    3015.0085    37.276571    39.952074     23.60188 
 3995200    221.09881   -76.314621    216156.16   -22168.628    1400.4888   -23569.117    332.69146    3013.8166    37.277162     39.95275    23.601552 
 3995400    222.96105   -32.425989    216156.16   -22113.939    1412.2846   -23526.223    560.95673    3014.8933    37.277814    39.953025    23.601776 
 3995600    230.90867   -274.34046    216156.16   -22048.985    1462.6266   -23511.612   -441.63766    3014.1601    37.278137    39.954991     23.60409 
 3995800    230.23412    -215.2045    216156.16   -22072.816    1458.3539    -23531.17   -180.48455    3015.1582    37.278933    39.956361     23.59622 
 3996000    234.50174   -141.80292    216156.16   -21996.516    1485.3859   -23481.902    80.403174    3014.8285    37.279379    39.957405    23.600058 
 3996200    223.20677   -147.45386    216156.16   -22068.291    1413.8411   -23482.132     104.8044      3015.78    37.280843     39.95779    23.593699 
 3996400    223.16596   -193.90671    216156.16   -22105.431    1413.5826   -23519.013   -122.78493    3016.0301    37.280651    39.957555    23.610283 
 3996600    227.72622   -160.44647    216156.16   -22084.544    1442.4683   -23527.012   -12.935348    3016.4755    37.281113    39.958525    23.605579 
 3996800    222.16858    -234.8253    216156.16   -22116.153     1407.265   -23523.418   -298.75746    3016.0385    37.282569     39.95973    23.602836 
 3997000    231.14948   -141.56337    216156.16   -22008.066     1464.152   -23472.218    83.793589    3016.3635    37.282889    39.959642    23.611237 
 3997200    227.54806   -210.73656    216156.16   -22070.366    1441.3398   -23511.706   -210.63564     3015.621    37.282505    39.959484    23.606711 
 3997400    219.49923   -253.77594    216156.16    -22136.31    1390.3567   -23526.666   -369.01063    3016.1933      37.2841    39.959393    23.607036 
 3997600    229.77299   -137.98593    216156.16   -22062.164     1455.433   -23517.597    83.944907    3017.2003    37.286432    39.959747      23.6075 
 3997800    219.24554    -193.7262    216156.16   -22178.231    1388.7498   -23566.981   -100.69944     3015.898    37.288219    39.960558    23.603903 
 3998000    223.99764   -223.16382    216156.16   -22105.383    1418.8507   -23524.234   -285.50101    3016.3312    37.289003    39.961445    23.600459 
 3998200    219.27516   -245.22049    216156.16   -22151.988    1388.9374   -23540.926   -335.43396    3017.0442    37.290292    39.962166    23.597867 
 3998400    236.92014     -95.8871    216156.16   -22020.115    1500.7046   -23520.819    281.78046    3016.5919     37.29233    39.962411    23.592005 
 3998600    220.97081   -262.54798    216156.16   -22122.566     1399.678   -23522.244    -483.2108     3017.362    37.293136    39.963248    23.596145 
 3998800    220.39387   -229.63719    216156.16   -22115.119    1396.0235   -23511.143   -312.22555    3016.8626    37.293433    39.964769    23.591441 
 3999000    226.82288   -227.77111    216156.16   -22065.927    1436.7463   -23502.674   -281.81535     3018.057    37.293823    39.966337    23.583298 
 3999200    224.42254   -269.02789    216156.16   -22117.619     1421.542   -23539.161   -480.14746    3018.2333     37.29418    39.968921     23.59116 
 3999400    217.68055   -175.65121    216156.16   -22146.261    1378.8368   -23525.098   -90.984351    3017.2498    37.296286    39.969685    23.585676 
 3999600    220.52328   -222.95665    216156.16    -22158.16    1396.8432   -23555.003   -275.02508    3017.5257    37.296715    39.971653    23.590826 
 3999800     224.2934   -298.03942    216156.16   -22074.699    1420.7241   -23495.423   -591.70247    3018.3901    37.296951    39.972668    23.593959 
 4000000    228.93003   -76.104293    216156.16   -22069.483    1450.0935   -23519.577    308.87598    3016.4923    37.298367    39.973471    23.587982 
Loop time of 5867.84 on 120 procs for 4000000 steps with 9422 atoms

Performance: 588.974 ns/day, 0.041 hours/ns, 681.682 timesteps/s
98.1% CPU use with 120 MPI tasks x no OpenMP threads

MPI task timing breakdown:
Section |  min time  |  avg time  |  max time  |%varavg| %total
---------------------------------------------------------------
Pair    | 0.32063    | 1534.2     | 4663.8     |3719.3 | 26.15
Neigh   | 2.7154     | 94.589     | 280.88     |1028.0 |  1.61
Comm    | 270        | 2226.4     | 4608.9     |2941.6 | 37.94
Output  | 70.249     | 70.314     | 71.81      |   1.7 |  1.20
Modify  | 262.81     | 1899.3     | 5484.6     |4761.0 | 32.37
Other   |            | 43.03      |            |       |  0.73

Nlocal:    78.5167 ave 208 max 0 min
Histogram: 37 21 20 2 0 0 0 2 16 22
Nghost:    692.867 ave 905 max 528 min
Histogram: 30 2 15 5 16 13 8 11 11 9
Neighs:    0 ave 0 max 0 min
Histogram: 120 0 0 0 0 0 0 0 0 0
FullNghs:  7942.02 ave 25184 max 0 min
Histogram: 67 13 0 0 0 0 0 10 17 13

Total # of neighbors = 953042
Ave neighs/atom = 101.151
Neighbor list builds = 414957
Dangerous builds = 0
write_data 		${DIR}/data.${NAME}_run
write_data 		run_13/data.${NAME}_run
write_data 		run_13/data.ibeam_cooling_13_run
Total wall time: 1:38:04
