
### Dimensions ###
variable Z_G equal 10.062000000000001
variable Z_W equal 23.803019087

variable	XDIM string 78.752
variable 	YDIM string 80.86108639999017


### IMPORT ATOMS ###
read_data ../Box_Setup/data.Ibeam_240K
  orthogonal box = (0 0 0) to (78.752 80.8611 33.9443)
  5 by 8 by 3 MPI processor grid
  reading atoms ...
  9422 atoms
  reading velocities ...
  9422 velocities
group water type 2
2126 atoms in group water
group graphite type 1
7296 atoms in group graphite


# Define potential
#
pair_style          sw
pair_coeff * * MLC_e.sw C mW

# Add velocity/set timestep
#

fix		1 graphite setforce 0.0 0.0 0.0
velocity 	graphite set 0.0 0.0 0.0
velocity            water create ${START_TEMP} ${SEED} rot yes dist gaussian
velocity            water create 235 ${SEED} rot yes dist gaussian
velocity            water create 235 23037 rot yes dist gaussian
timestep            5.0

# Define output
#
compute 1 water msd
compute 2 water temp


thermo	            100
thermo_style custom step c_2 press vol etotal ke pe c_1[4] density

# Neighbor lists
#
neigh_modify        delay 0 every 1 check yes


# Set fixes
#
fix                 2 water momentum 10 linear 1 1 1 rescale
fix                 3 all nve
fix                 4 water temp/csvr ${START_TEMP} ${START_TEMP} 500.0 928347
fix                 4 water temp/csvr 235 ${START_TEMP} 500.0 928347
fix                 4 water temp/csvr 235 235 500.0 928347

# Run 0.05 ns equilibration
#
dump                1 all custom 100 ${DIR}/eq.${NAME}.dump id type x y z vx vy vz
dump                1 all custom 100 run_13/eq.${NAME}.dump id type x y z vx vy vz
dump                1 all custom 100 run_13/eq.ibeam_cooling_13.dump id type x y z vx vy vz
run                 10000
Neighbor list info ...
  update every 1 steps, delay 0 steps, check yes
  max neighbors/atom: 2000, page size: 100000
  master list distance cutoff = 6.67472
  ghost atom cutoff = 6.67472
  binsize = 3.33736, bins = 24 25 11
  1 neighbor lists, perpetual/occasional/extra = 1 0 0
  (1) pair sw, perpetual
      attributes: full, newton on
      pair build: full/bin/atomonly
      stencil: full/bin/3d
      bin: standard
Per MPI rank memory allocation (min/avg/max) = 3.374 | 4.228 | 4.744 Mbytes
Step c_2 Press Volume TotEng KinEng PotEng c_1[4] Density 
       0          235   -349.74665    216156.16   -20108.674     1488.542   -21597.216            0   0.96737059 
     100     235.9963    -389.5998    216156.16   -20129.827    1494.8528    -21624.68   0.87721518   0.96737059 
     200    234.63516   -375.82162    216156.16   -20167.702     1486.231   -21653.933    1.3995556   0.96737059 
     300    230.59476   -264.71589    216156.16   -20165.011    1460.6382   -21625.649    1.9778201   0.96737059 
     400    233.71942   -155.69843    216156.16   -20177.876    1480.4305   -21658.307    2.4087509   0.96737059 
     500    238.97229   -413.10435    216156.16   -20159.481    1513.7034   -21673.184    2.8434062   0.96737059 
     600    236.59339   -342.37612    216156.16   -20116.172    1498.6349   -21614.807     3.429458   0.96737059 
     700    235.12878   -180.35635    216156.16    -20126.77    1489.3577   -21616.128    3.9694491   0.96737059 
     800    237.16376   -370.32801    216156.16   -20113.402    1502.2478    -21615.65    4.6046695   0.96737059 
     900    237.00381   -395.46172    216156.16    -20130.68    1501.2346   -21631.914    5.1877163   0.96737059 
    1000      235.273    -310.8486    216156.16   -20179.213    1490.2712   -21669.484    5.7096378   0.96737059 
    1100    229.63721   -455.13355    216156.16   -20151.521    1454.5729   -21606.093    6.2782078   0.96737059 
    1200    238.72719   -493.72485    216156.16   -20141.608    1512.1509   -21653.759    6.9805748   0.96737059 
    1300    237.25128   -313.50979    216156.16   -20104.025    1502.8021   -21606.827    7.6471446   0.96737059 
    1400    234.42337   -367.56705    216156.16   -20131.359    1484.8895   -21616.249    8.3955954   0.96737059 
    1500    230.84245   -441.67696    216156.16    -20158.44    1462.2072   -21620.647    8.7816611   0.96737059 
    1600    239.07997   -297.34059    216156.16   -20138.079    1514.3855   -21652.464    9.2875967   0.96737059 
    1700    235.09956   -239.56324    216156.16   -20151.095    1489.1727   -21640.268    9.7084891   0.96737059 
    1800    238.62468   -409.26695    216156.16   -20141.936    1511.5016   -21653.437    10.128936   0.96737059 
    1900    243.93167   -398.16728    216156.16    -20108.06    1545.1172   -21653.177    10.432289   0.96737059 
    2000    240.57444   -276.00003    216156.16   -20097.481    1523.8517   -21621.333    10.874152   0.96737059 
    2100    235.80923   -452.00151    216156.16   -20187.713    1493.6678   -21681.381    11.189636   0.96737059 
    2200      233.849   -255.96363    216156.16   -20164.712    1481.2513   -21645.963    11.268152   0.96737059 
    2300     238.9508   -313.65292    216156.16   -20151.666    1513.5673   -21665.233    11.591201   0.96737059 
    2400     231.9994    -456.3305    216156.16   -20151.961    1469.5356   -21621.497    11.885405   0.96737059 
    2500    236.92626   -387.30688    216156.16   -20176.693    1500.7434   -21677.436    12.282307   0.96737059 
    2600    232.56536   -385.01122    216156.16   -20200.157    1473.1205   -21673.277    12.735244   0.96737059 
    2700    242.14404   -171.83828    216156.16   -20179.463     1533.794   -21713.257    13.396036   0.96737059 
    2800    244.81368   -277.54233    216156.16    -20138.93     1550.704   -21689.635    13.745815   0.96737059 
    2900    240.11735   -437.98748    216156.16    -20146.41    1520.9564   -21667.367    14.306811   0.96737059 
    3000    237.96741   -294.88513    216156.16   -20142.502    1507.3383    -21649.84    14.748128   0.96737059 
    3100    240.28138   -465.64017    216156.16   -20154.174    1521.9955    -21676.17    15.282527   0.96737059 
    3200    232.80383   -269.36648    216156.16   -20217.063     1474.631   -21691.694    15.911931   0.96737059 
    3300    226.92912   -301.38359    216156.16   -20280.894    1437.4193   -21718.314    16.289493   0.96737059 
    3400    237.31045   -443.65823    216156.16    -20226.39    1503.1769   -21729.567    16.904766   0.96737059 
    3500    232.22652   -446.94064    216156.16   -20216.473    1470.9742   -21687.448    17.348666   0.96737059 
    3600    232.90544   -453.03176    216156.16   -20222.727    1475.2746   -21698.002     18.16707   0.96737059 
    3700    233.92295   -269.94802    216156.16   -20196.722    1481.7198   -21678.442    19.139039   0.96737059 
    3800    240.41298    -359.4951    216156.16   -20189.871    1522.8291     -21712.7    19.791339   0.96737059 
    3900    228.91617   -520.14832    216156.16   -20191.294    1450.0057   -21641.299    20.367164   0.96737059 
    4000    237.66027   -188.96207    216156.16   -20211.325    1505.3927   -21716.718    21.129293   0.96737059 
    4100    239.18169   -323.99021    216156.16   -20201.229    1515.0298   -21716.259     21.57009   0.96737059 
    4200     239.1184   -386.98383    216156.16    -20195.61    1514.6289   -21710.239    21.492675   0.96737059 
    4300    229.25689   -557.58224    216156.16   -20255.157    1452.1639   -21707.321    21.508579   0.96737059 
    4400    230.50818   -408.77691    216156.16   -20217.043    1460.0898   -21677.133    21.458924   0.96737059 
    4500    232.06698    -361.6153    216156.16   -20248.589    1469.9636   -21718.552    21.521064   0.96737059 
    4600     236.0759   -219.50643    216156.16   -20279.486     1495.357   -21774.843    21.611708   0.96737059 
    4700    238.22067   -288.16958    216156.16   -20229.855    1508.9425   -21738.797    21.659924   0.96737059 
    4800    235.28681   -460.30787    216156.16   -20201.412    1490.3587   -21691.771    21.769665   0.96737059 
    4900    235.24865   -439.07106    216156.16   -20163.615     1490.117   -21653.732    21.839117   0.96737059 
    5000    231.99744   -439.36025    216156.16   -20213.659    1469.5231   -21683.182    21.969113   0.96737059 
    5100    235.57063   -412.07201    216156.16   -20190.105    1492.1565   -21682.261    21.967653   0.96737059 
    5200    237.27848   -410.04522    216156.16   -20231.744    1502.9744   -21734.718    22.054391   0.96737059 
    5300    230.84979   -415.30504    216156.16   -20279.982    1462.2537   -21742.235    22.412067   0.96737059 
    5400    233.87809   -391.31743    216156.16   -20266.149    1481.4356   -21747.584    22.393334   0.96737059 
    5500    235.18851   -345.07721    216156.16   -20257.768    1489.7361   -21747.505    22.476333   0.96737059 
    5600    234.60765   -414.49579    216156.16   -20284.294    1486.0568   -21770.351    22.540936   0.96737059 
    5700    232.06036    -332.8883    216156.16   -20263.097    1469.9217   -21733.018     22.64358   0.96737059 
    5800    236.75733    -468.1198    216156.16   -20240.401    1499.6733   -21740.074    22.745108   0.96737059 
    5900     232.2876   -377.52073    216156.16   -20277.643    1471.3611   -21749.004    22.849819   0.96737059 
    6000    229.81101   -399.60078    216156.16   -20291.867    1455.6738   -21747.541    22.924564   0.96737059 
    6100    233.01042   -330.87561    216156.16   -20306.714    1475.9396   -21782.653    23.130873   0.96737059 
    6200    236.95095   -332.05125    216156.16   -20301.736    1500.8998   -21802.636    23.212533   0.96737059 
    6300    228.42483   -434.32457    216156.16   -20229.921    1446.8934   -21676.815    23.401643   0.96737059 
    6400    231.42401   -313.92682    216156.16   -20262.084    1465.8909   -21727.975    23.765564   0.96737059 
    6500      230.644   -434.42331    216156.16   -20268.986    1460.9502   -21729.936    23.966784   0.96737059 
    6600    236.20154   -448.71934    216156.16   -20279.452    1496.1528   -21775.605    24.083707   0.96737059 
    6700    231.80785   -244.15623    216156.16   -20309.257    1468.3223   -21777.579    24.273854   0.96737059 
    6800    237.63336   -300.68941    216156.16   -20295.687    1505.2223   -21800.909    24.723701   0.96737059 
    6900    233.96456   -357.83736    216156.16   -20257.817    1481.9833   -21739.801     25.05675   0.96737059 
    7000    233.84238   -413.02072    216156.16   -20253.159    1481.2094   -21734.369     25.39793   0.96737059 
    7100    231.37858   -361.14454    216156.16   -20248.475    1465.6032   -21714.078    25.632179   0.96737059 
    7200    229.06724   -475.48103    216156.16   -20290.393    1450.9626   -21741.356    26.183928   0.96737059 
    7300    234.38535    -473.0515    216156.16     -20323.8    1484.6487   -21808.448    26.084221   0.96737059 
    7400    234.43663   -245.84274    216156.16   -20287.294    1484.9735   -21772.268    26.584426   0.96737059 
    7500     234.5136   -516.56792    216156.16   -20241.655    1485.4611   -21727.116    27.040206   0.96737059 
    7600    235.55801   -473.28869    216156.16   -20191.343    1492.0766   -21683.419      27.1197   0.96737059 
    7700    230.16833   -321.54016    216156.16   -20214.237    1457.9371   -21672.174    27.517072   0.96737059 
    7800    222.33842   -436.44443    216156.16   -20261.029    1408.3408   -21669.369    27.976833   0.96737059 
    7900    237.43622   -425.30984    216156.16   -20219.186    1503.9736    -21723.16    28.116505   0.96737059 
    8000    237.10261    -493.9351    216156.16   -20179.555    1501.8604   -21681.415    28.036355   0.96737059 
    8100    238.43486    -303.6772    216156.16   -20168.789    1510.2992   -21679.088    28.372119   0.96737059 
    8200    233.99406   -427.27689    216156.16   -20176.602    1482.1702   -21658.772    28.590294   0.96737059 
    8300    231.72942   -469.05063    216156.16   -20138.235    1467.8255   -21606.061    28.949462   0.96737059 
    8400    239.71668   -433.10852    216156.16   -20132.697    1518.4185   -21651.116    29.205173   0.96737059 
    8500    235.82016   -457.47085    216156.16   -20176.468    1493.7371   -21670.205    29.578123   0.96737059 
    8600    230.12425   -347.95955    216156.16   -20183.692    1457.6579    -21641.35    29.792494   0.96737059 
    8700    229.31619   -311.96791    216156.16   -20199.178    1452.5395   -21651.718    29.894867   0.96737059 
    8800     230.1818   -473.68879    216156.16   -20192.264    1458.0225   -21650.286    30.188123   0.96737059 
    8900    229.11684    -344.1404    216156.16    -20203.75    1451.2768   -21655.027    30.413732   0.96737059 
    9000    231.30555   -513.73048    216156.16    -20173.92    1465.1406   -21639.061    31.046705   0.96737059 
    9100    235.07065   -538.15749    216156.16   -20190.744    1488.9895   -21679.734    31.279087   0.96737059 
    9200    235.30285   -489.21015    216156.16   -20143.969    1490.4603    -21634.43    31.534002   0.96737059 
    9300    236.98917   -444.11599    216156.16   -20208.268    1501.1419    -21709.41    31.568709   0.96737059 
    9400    232.66635   -426.46299    216156.16   -20202.303    1473.7602   -21676.063    31.795096   0.96737059 
    9500    239.04652   -387.20017    216156.16   -20244.141    1514.1736   -21758.314    32.198089   0.96737059 
    9600    234.70395   -548.06423    216156.16   -20230.704    1486.6667   -21717.371     32.77485   0.96737059 
    9700    242.55843   -356.72809    216156.16    -20183.31    1536.4188   -21719.729    33.275627   0.96737059 
    9800     235.5136   -419.73802    216156.16   -20158.566    1491.7953   -21650.361    33.481169   0.96737059 
    9900    242.00223   -419.92635    216156.16   -20185.747    1532.8957   -21718.643    33.639091   0.96737059 
   10000    241.92165   -448.19163    216156.16   -20205.481    1532.3853   -21737.866    33.468128   0.96737059 
Loop time of 16.0506 on 120 procs for 10000 steps with 9422 atoms

Performance: 269.149 ns/day, 0.089 hours/ns, 623.029 timesteps/s
98.0% CPU use with 120 MPI tasks x no OpenMP threads

MPI task timing breakdown:
Section |  min time  |  avg time  |  max time  |%varavg| %total
---------------------------------------------------------------
Pair    | 0.0007813  | 4.323      | 12.962     | 201.8 | 26.93
Neigh   | 0.0037889  | 0.1335     | 0.42377    |  38.1 |  0.83
Comm    | 0.28199    | 6.0133     | 13.003     | 162.0 | 37.46
Output  | 0.16408    | 0.16422    | 0.17107    |   0.2 |  1.02
Modify  | 0.77813    | 5.2939     | 15.464     | 253.8 | 32.98
Other   |            | 0.1226     |            |       |  0.76

Nlocal:    78.5167 ave 208 max 0 min
Histogram: 32 31 13 4 0 0 0 2 16 22
Nghost:    694.5 ave 935 max 528 min
Histogram: 32 3 13 5 27 3 10 11 8 8
Neighs:    0 ave 0 max 0 min
Histogram: 120 0 0 0 0 0 0 0 0 0
FullNghs:  8014.9 ave 25183 max 0 min
Histogram: 69 11 0 0 0 0 0 10 16 14

Total # of neighbors = 961788
Ave neighs/atom = 102.079
Neighbor list builds = 571
Dangerous builds = 0
write_data 	    ${DIR}/data.${NAME}_eq
write_data 	    run_13/data.${NAME}_eq
write_data 	    run_13/data.ibeam_cooling_13_eq

undump              1
unfix               4



################################################
#######         Run Simulation         #########
################################################

reset_timestep      0
timestep	    10.0
log                 ${DIR}/log.run_${NAME}
log                 run_13/log.run_${NAME}
log                 run_13/log.run_ibeam_cooling_13
