
# Set production fixes - Nose/Hoover
#
fix                 4 water temp/csvr ${START_TEMP} ${END_TEMP} 500.0 928347
fix                 4 water temp/csvr 240 ${END_TEMP} 500.0 928347
fix                 4 water temp/csvr 240 227 500.0 928347


## divide "droplet" into core and surface
#region		core_reg cylinder z 135 135 44.6 20 INF units box
#region		surface_reg cylinder z 135 135 44.6 20 INF units box side out
#group		core dynamic all region core_reg
#group		surface dynamic all region surface_reg

## compute pressure core
#compute        peratom_core core stress/atom NULL
#compute        p_core core reduce sum c_peratom_core[1] c_peratom_core[2] c_peratom_core[3]
#variable       press_core equal -(c_p_core[1]+c_p_core[2]+c_p_core[3])/(3*1249982.5)


## compute pressure surface
#compute        peratom_surf surface stress/atom NULL
#compute        p_surf surface reduce sum c_peratom_surf[1] c_peratom_surf[2] #c_peratom_surf[3]
#variable       press_surf equal -(c_p_surf[1]+c_p_surf[2]+c_p_surf[3])/(3*42395)

## compute total pressure of drop
compute        peratom water stress/atom NULL
compute        p water reduce sum c_peratom[1] c_peratom[2] c_peratom[3]
variable       press equal -(c_p[1]+c_p[2]+c_p[3])/(3*58301)


# compute order parameter
compute        3 all orientorder/atom nnn NULL cutoff 3.5

# compute center of mass of bridge
compute 	4 water com

# Run simulation
thermo_style        custom step c_2 press vol etotal ke pe v_press c_1[4] c_4[*]
thermo              200
dump		     1 water custom 400 ${DIR}/prod.${NAME}.dump id type x y z vx vy vz c_3[*] c_peratom[*]
dump		     1 water custom 400 run_11/prod.${NAME}.dump id type x y z vx vy vz c_3[*] c_peratom[*]
dump		     1 water custom 400 run_11/prod.ibeam_cooling_11.dump id type x y z vx vy vz c_3[*] c_peratom[*]
run                 ${STEPS}
run                 5200000
Neighbor list info ...
  update every 1 steps, delay 0 steps, check yes
  max neighbors/atom: 2000, page size: 100000
  master list distance cutoff = 6.67472
  ghost atom cutoff = 6.67472
  binsize = 3.33736, bins = 48 11 12
  2 neighbor lists, perpetual/occasional/extra = 1 1 0
  (1) pair sw, perpetual
      attributes: full, newton on
      pair build: full/bin/atomonly
      stencil: full/bin/3d
      bin: standard
  (2) compute orientorder/atom, occasional, copy from (1)
      attributes: full, newton on
      pair build: copy
      stencil: none
      bin: none
Per MPI rank memory allocation (min/avg/max) = 0.8546 | 5.965 | 7.147 Mbytes
Step c_2 Press Volume TotEng KinEng PotEng v_press c_1[4] c_4[1] c_4[2] c_4[3] 
       0    248.91864   -295.81803    229018.04   -21058.103    1648.6777   -22706.781   -651.49056    35.033644    78.595775    15.916915    29.720735 
     200    236.70887   -370.37933    229018.04   -21085.673    1567.8081   -22653.481   -993.34495    36.558835    78.594342    15.915196    29.738751 
     400    237.20238   -265.21677    229018.04   -21098.396    1571.0767   -22669.473   -542.90012    37.940807    78.594678    15.918204    29.732039 
     600    232.92247   -320.34608    229018.04   -21232.534    1542.7293   -22775.263   -746.60878     39.34003    78.593831    15.917296     29.75812 
     800    233.14467   -264.31145    229018.04    -21232.87     1544.201   -22777.071   -539.51987     41.10022    78.591773    15.918408     29.76903 
    1000    246.96913   -356.61317    229018.04   -21096.562    1635.7654   -22732.328   -917.49349    42.988245    78.592147     15.91903    29.743585 
    1200    232.69866   -313.38892    229018.04   -21216.594     1541.247   -22757.841   -732.93452    44.354741    78.592606    15.921719    29.732517 
    1400    241.54586   -305.33939    229018.04   -21068.483    1599.8452   -22668.328   -723.32396    46.014041    78.594371    15.922975    29.721582 
    1600    247.37413   -151.76645    229018.04   -21060.526    1638.4479   -22698.974    -116.3106    47.063116    78.595875      15.9228    29.691668 
    1800    244.67339   -323.54779    229018.04   -21135.193      1620.56   -22755.753   -774.65479    47.815938    78.594661    15.922775    29.693749 
    2000    240.86563   -329.51491    229018.04   -21008.678    1595.3398   -22604.018      -793.88    49.781079    78.594012    15.923183    29.682164 
    2200    243.96383   -310.47489    229018.04   -21053.542    1615.8603   -22669.402   -747.71443    52.131918     78.59532    15.923178    29.714089 
    2400    245.92532   -365.05994    229018.04   -21075.447    1628.8519   -22704.298   -911.48567    53.791337     78.59667    15.923901    29.710727 
    2600    240.41693   -332.80427    229018.04   -21100.158    1592.3679   -22692.526   -806.39533    55.499912    78.599242    15.922736    29.728336 
    2800    243.61397   -274.81027    229018.04   -21055.558     1613.543   -22669.101   -559.05138    57.826742    78.599072    15.921665    29.743325 
    3000    233.31719   -416.22032    229018.04   -21130.533    1545.3437   -22675.876   -1139.6192    60.053269    78.598228    15.919875     29.74554 
    3200    235.87391    -337.0336    229018.04    -21114.22    1562.2778   -22676.498   -821.25789      62.6503    78.598946    15.919935    29.763839 
    3400    231.98015    -392.0824    229018.04   -21084.743     1536.488   -22621.232   -1101.6673    64.504538    78.599444    15.918181    29.766007 
    3600    244.10921   -265.34116    229018.04   -21108.467    1616.8232   -22725.291   -552.57533    65.565366    78.600787    15.917977    29.771131 
    3800    244.19659   -391.92633    229018.04   -21160.483    1617.4019   -22777.884   -1046.1253    67.080748    78.603694    15.917373    29.780583 
    4000    238.61912    -157.2209    229018.04   -21137.118    1580.4603   -22717.579   -130.29661    68.563888    78.606969    15.918758    29.778273 
    4200    235.73615   -305.99027    229018.04   -21046.636    1561.3653   -22608.001   -692.71713    70.526437    78.605498    15.919231    29.776126 
    4400    242.14171   -318.33747    229018.04   -20997.319    1603.7917   -22601.111   -796.67596    73.166086    78.605964    15.919559    29.788653 
    4600    238.60564   -305.89429    229018.04   -21095.471     1580.371   -22675.842   -739.72983    74.199519    78.609193    15.916562    29.804411 
    4800    239.16991   -347.21613    229018.04   -21076.565    1584.1084   -22660.673   -862.43815     76.53419    78.609341    15.916285     29.80773 
    5000    235.74407   -260.57415    229018.04   -21136.415    1561.4179   -22697.833   -510.83551     78.18519    78.610212    15.916096    29.801966 
    5200    238.69903   -526.28938    229018.04   -21097.645    1580.9896   -22678.634   -1559.9308    81.465709     78.60939    15.914807    29.793335 
    5400    240.56989   -111.48422    229018.04   -21136.338     1593.381   -22729.719    42.454697    80.974861    78.608624    15.914321    29.804136 
    5600    238.90448   -313.46109    229018.04   -21199.981    1582.3504   -22782.332   -737.11008    82.139291     78.60649    15.911948    29.807303 
    5800    249.83248   -211.27122    229018.04   -21032.202    1654.7304   -22686.933    -333.0516    83.401422    78.605452    15.910188    29.798638 
    6000    232.70379   -288.75044    229018.04   -21187.984     1541.281   -22729.265   -627.24913    86.168802    78.603954    15.912475    29.805758 
    6200    238.35051   -274.96176    229018.04   -21106.454    1578.6812   -22685.135   -563.74944    87.091664    78.602854      15.9151    29.814498 
    6400    244.01882    -300.1828    229018.04   -21047.886    1616.2245    -22664.11   -735.87604    88.809907    78.601489    15.913237    29.805294 
    6600    238.55299   -223.97953    229018.04   -21154.482    1580.0223   -22734.504   -353.73955     89.88678    78.603353    15.912147    29.785692 
    6800    239.92016   -151.07391    229018.04    -21132.66    1589.0776   -22721.737   -49.364591    90.976894    78.603434    15.911212    29.784681 
    7000    237.07879   -309.20946    229018.04   -21167.824    1570.2581   -22738.082   -695.37717    92.036462    78.603222     15.91162    29.776963 
    7200    236.62134    -224.0243    229018.04   -21068.713    1567.2283   -22635.941   -374.39905    93.098984    78.605329    15.910394    29.761518 
    7400    240.73231   -320.19958    229018.04   -21148.949    1594.4567   -22743.405   -745.00916    94.240709      78.6063    15.912187    29.751835 
    7600    235.48169   -201.97209    229018.04    -21187.17      1559.68    -22746.85   -363.04113    95.987798    78.606019    15.912103    29.749635 
    7800    237.99999   -274.31706    229018.04   -21103.691    1576.3596    -22680.05   -562.86903    96.838889    78.606732    15.912494    29.754189 
    8000    245.06001   -302.78151    229018.04   -21094.524    1623.1207   -22717.644   -702.94314     98.69511    78.606705    15.913537    29.758307 
    8200    232.86949   -410.79593    229018.04   -21172.394    1542.3785   -22714.773    -1120.234    101.27863    78.607457    15.913341     29.76182 
    8400    240.07046   -285.51992    229018.04    -21180.26    1590.0731   -22770.333   -629.15085    101.82359    78.606793     15.91449    29.791084 
    8600     241.6226   -264.60838    229018.04    -21106.97    1600.3534   -22707.323   -492.88635    103.25765     78.60845    15.914962    29.804902 
    8800    244.39112   -251.83744    229018.04   -21099.733    1618.6903   -22718.423   -524.38429    104.46404    78.608079    15.913592    29.810905 
    9000    238.65914   -121.63992    229018.04   -21075.624    1580.7254   -22656.349   -0.1022201    105.44578    78.605405    15.917438    29.813574 
    9200    232.99239   -170.60465    229018.04   -21109.586    1543.1925   -22652.778   -179.22026    106.91782    78.603464    15.917821    29.802777 
    9400     236.7371   -462.65313    229018.04   -21143.233     1567.995   -22711.228   -1276.7165     107.8996    78.602941    15.917238    29.786435 
    9600    237.94682   -293.04143    229018.04   -21182.031    1576.0074   -22758.039   -616.00439    109.65644    78.602607    15.915818    29.766655 
    9800    239.95532   -419.24506    229018.04    -21153.69    1589.3104       -22743   -1149.5586     110.5534    78.603128    15.916537     29.76364 
   10000     239.5531   -561.19838    229018.04   -20951.199    1586.6464   -22537.846   -1744.5172    112.33542    78.601095    15.915413    29.774832 
   10200    246.07563   -183.31479    229018.04   -21006.953    1629.8475   -22636.801   -191.61406    114.34766    78.599616    15.915189    29.778459 
   10400    242.84083   -322.92946    229018.04   -21022.311    1608.4222   -22630.733   -720.36196    116.15498    78.600071    15.916247    29.760195 
   10600    244.14115   -384.49129    229018.04   -21011.672    1617.0347   -22628.706   -995.97313    118.13923    78.599281    15.916338    29.762852 
   10800    244.32783    -328.5597    229018.04   -21060.487    1618.2712   -22678.758   -794.97129    118.97877    78.598716     15.91776    29.751323 
   11000    241.10145   -504.93306    229018.04   -21114.151    1596.9017   -22711.052   -1499.0305     119.3872    78.597429    15.917619    29.763184 
   11200    245.47243   -327.70912    229018.04   -21131.757    1625.8523   -22757.609   -789.24948    120.47046    78.596533    15.916682    29.777237 
   11400    237.04868   -260.67139    229018.04   -21154.964    1570.0587   -22725.023    -481.8825    122.95873    78.595005    15.917219    29.760736 
   11600    246.39059   -134.80057    229018.04   -21100.979    1631.9335   -22732.913    -92.34507    124.66355    78.594629    15.916606    29.736288 
   11800    239.92605   -227.41933    229018.04    -21102.81    1589.1166   -22691.927   -407.40091    125.68506    78.593044    15.916594    29.718947 
   12000     245.4623   -323.31618    229018.04   -21045.307    1625.7852   -22671.092   -772.56137    125.28568    78.591827    15.915747     29.70818 
   12200    238.76233   -381.35753    229018.04   -21127.344    1581.4089   -22708.753   -974.99463    127.05505    78.590619    15.914823    29.685097 
   12400    243.93865   -397.34579    229018.04   -21043.863    1615.6935   -22659.556   -1075.5041    128.35014     78.59222    15.913841    29.690295 
   12600    242.11602   -350.92172    229018.04   -21031.455    1603.6215   -22635.077   -848.47409    129.76541    78.595204    15.912507    29.657961 
   12800    240.11846   -280.38689    229018.04   -21160.226     1590.391   -22750.616   -621.83555    130.52881    78.597305    15.909721    29.644375 
   13000    238.76724    -304.9202    229018.04   -21176.508    1581.4413    -22757.95   -712.15065     131.2308    78.597006    15.905948    29.637769 
   13200    240.89113   -301.05932    229018.04   -21105.595    1595.5086   -22701.104   -726.06159    132.06225    78.598172    15.905145     29.62409 
   13400    243.43942   -248.74214    229018.04   -21056.739    1612.3869   -22669.126   -466.21909    133.66457    78.598963    15.906679    29.633032 
   13600    241.66363   -95.669092    229018.04   -21062.549    1600.6252   -22663.174    107.79042    134.74937    78.597968    15.909165     29.64245 
   13800    236.95166    -378.6576    229018.04   -21150.113    1569.4162   -22719.529   -940.07179    136.98308    78.599227    15.909801    29.634258 
   14000    238.29026   -138.16916    229018.04    -21115.96    1578.2822   -22694.242   -57.414466    137.81548    78.600322    15.912025    29.634846 
   14200    237.81902   -296.66373    229018.04   -21160.425     1575.161   -22735.586   -687.69161    138.72424    78.601707    15.914252    29.619855 
   14400    232.65912   -392.44142    229018.04   -21228.401    1540.9851   -22769.386   -1039.9416    140.90137    78.599328    15.916501    29.629889 
   14600    236.59574   -350.77275    229018.04   -21165.575    1567.0587   -22732.634   -869.40214    142.22403    78.597936    15.919791    29.620414 
   14800    242.28493   -295.99747    229018.04   -21107.503    1604.7403   -22712.243   -669.79109    142.76127    78.600113    15.921192    29.614394 
   15000    246.98565   -235.51848    229018.04   -21076.667    1635.8749   -22712.542   -473.92025    142.45096    78.600274    15.920314    29.653425 
   15200    240.95442   -160.28785    229018.04   -21207.804    1595.9278   -22803.732   -124.28581    143.41152    78.600153    15.923653    29.674637 
   15400    239.66881   -444.98681    229018.04   -21187.464    1587.4128   -22774.876   -1246.3683    145.61002    78.600334    15.924916    29.678211 
   15600    231.27445   -203.14684    229018.04   -21218.874    1531.8139   -22750.688    -290.1122    146.85174    78.599001    15.923731    29.691333 
   15800    242.24887    -296.4533    229018.04   -21089.654    1604.5015   -22694.156    -656.1644    149.74726    78.598734    15.925203    29.705227 
   16000    240.55096   -282.73126    229018.04   -21115.684    1593.2556    -22708.94   -623.53453     149.0825    78.601033    15.927428    29.703723 
   16200    243.89831   -377.65905    229018.04   -21035.491    1615.4263   -22650.917    -968.9256    149.50079     78.59987    15.931486    29.705917 
   16400    242.10809   -293.45915    229018.04   -21012.609     1603.569   -22616.178    -667.3777    151.73955     78.59638    15.930142    29.697101 
   16600    245.94027   -242.81013    229018.04   -21061.408    1628.9509   -22690.359   -457.15381    152.48675    78.595093     15.93322    29.694637 
   16800      240.258   -378.20404    229018.04   -21083.481    1591.3152   -22674.797   -981.35118    153.06227    78.593209    15.934418    29.709822 
   17000    239.73708   -348.57737    229018.04   -21108.387     1587.865   -22696.252   -888.79048    155.20508    78.591883    15.933531    29.724938 
   17200     237.3843   -155.71324    229018.04   -21137.262    1572.2817   -22709.543   -85.247842    156.21436    78.590153    15.930059    29.702438 
   17400     238.0008   -279.97412    229018.04   -21058.874    1576.3649   -22635.239   -563.17446    158.02488    78.588451    15.930577    29.712652 
   17600    245.55986   -360.16427    229018.04    -21023.33    1626.4313   -22649.761   -937.28278    158.43468     78.58846    15.930594     29.71711 
   17800    238.66744   -101.18571    229018.04   -21065.519    1580.7804   -22646.299    88.055388    160.25502    78.586862    15.933104    29.737018 
   18000    245.81942   -258.50664    229018.04   -21075.626    1628.1505   -22703.777   -559.81973    162.36094    78.587464    15.930793    29.731396 
   18200    241.91577   -280.94275    229018.04   -21114.202    1602.2952   -22716.497   -617.24388    162.63675    78.585441    15.931938    29.738285 
   18400    240.97144   -230.11256    229018.04   -21154.418    1596.0406   -22750.458   -430.00297    164.39336    78.584604     15.92932     29.72598 
   18600    229.81077   -256.20038    229018.04   -21093.376    1522.1194   -22615.495   -519.91706    166.21371     78.58704    15.931754    29.717064 
   18800    237.58069   -276.85179    229018.04   -21092.659    1573.5824   -22666.241   -582.24943    168.25441    78.588173    15.932878    29.694545 
   19000     239.9042   -161.42617    229018.04   -21107.441    1588.9719   -22696.413   -194.48606    169.30776    78.589901    15.933185    29.690623 
   19200    242.63799   -284.69218    229018.04   -21103.975    1607.0788   -22711.053   -584.61113    170.80999    78.591231    15.935022    29.695373 
   19400    238.52942   -467.26503    229018.04   -21058.429    1579.8662   -22638.295   -1344.5577     173.6031    78.592737    15.937197    29.675909 
   19600    234.46213   -213.25338    229018.04   -21080.623    1552.9271    -22633.55   -350.73127     174.2266    78.594773    15.936636    29.669655 
   19800    241.08432    -329.4727    229018.04   -21099.284    1596.7882   -22696.073   -813.09948    175.68786     78.59769    15.935408     29.65837 
   20000    239.21114    -196.6458    229018.04   -21149.661    1584.3815   -22734.043   -313.22764    176.81248    78.601317    15.936806    29.651045 
   20200    247.98246   -362.91736    229018.04   -21110.633    1642.4771    -22753.11   -907.58616    179.17466    78.600523    15.939947    29.633331 
   20400    232.38837   -372.16531    229018.04   -21189.223    1539.1918   -22728.415   -910.63705    180.63175    78.602751    15.941756    29.652594 
   20600    239.40329   -271.08852    229018.04   -21164.232    1585.6541   -22749.886   -616.82647    182.29415    78.602071    15.941728    29.645293 
   20800    239.90247   -293.31033    229018.04   -21143.862    1588.9604   -22732.822   -665.86473    181.30954    78.603502    15.942051    29.661685 
   21000    236.03686   -180.42278    229018.04   -21115.875    1563.3571   -22679.232   -228.31795    183.55441    78.604348    15.942049    29.652411 
   21200    243.04328   -207.50346    229018.04   -21059.899    1609.7631   -22669.662   -362.02784    187.68331    78.603665    15.943689    29.639223 
   21400    237.57009   -379.08773    229018.04   -21157.386    1573.5122   -22730.898   -1012.3137    188.57732     78.60221    15.943085    29.656772 
   21600    242.06095   -345.53044    229018.04   -21095.947    1603.2568   -22699.204   -867.69448    188.63818    78.600693    15.945854    29.674812 
   21800    240.76328   -363.12148    229018.04   -21080.346    1594.6619   -22675.008   -904.61667    189.64486    78.601126     15.94546     29.66828 
   22000    236.93236   -314.20773    229018.04   -21103.354    1569.2883   -22672.643   -743.83505    190.83555    78.600895    15.945396    29.665215 
   22200    236.11709   -322.41967    229018.04   -21115.104    1563.8885   -22678.992   -772.40519    192.24987    78.601152    15.945155    29.686283 
   22400    237.87539   -392.64203    229018.04   -21138.248    1575.5343   -22713.783   -1051.1609    192.17749    78.601819    15.944284    29.680053 
   22600    236.85165   -386.76275    229018.04   -21131.495    1568.7537   -22700.248   -1052.8131    193.49804    78.600063    15.941897    29.683777 
   22800    243.69108   -331.21434    229018.04   -21067.267    1614.0537   -22681.321   -772.28728     194.3242     78.60034    15.941842    29.681311 
   23000    236.34183   -279.22374    229018.04   -21115.496     1565.377   -22680.873   -598.99275    194.94574    78.598305    15.941384    29.696765 
   23200    235.00218    -373.5762    229018.04   -21152.466     1556.504    -22708.97     -986.094     195.2791     78.59734    15.940642    29.684444 
   23400    242.85308   -302.91546    229018.04   -21084.543    1608.5034   -22693.047   -695.26906      196.351    78.596592    15.943439    29.686366 
   23600    231.37343   -253.26861    229018.04    -21212.09    1532.4695   -22744.559   -494.63062    197.70626    78.599271    15.944877    29.689386 
   23800    231.32494    -428.8342    229018.04   -21206.398    1532.1483   -22738.547   -1189.3872    198.79555    78.600082    15.943565    29.671732 
   24000    239.53094   -315.37328    229018.04    -21118.18    1586.4996    -22704.68   -771.99402    200.18959    78.600463    15.940948    29.669506 
   24200    242.11642   -492.45591    229018.04   -21170.693    1603.6242   -22774.318   -1392.5009    202.34668     78.59855     15.94138    29.693786 
   24400    236.45396   -242.75166    229018.04   -21056.198    1566.1197   -22622.318   -464.06299    202.57512    78.595403    15.936462    29.686513 
   24600    237.33887   -352.91261    229018.04   -21099.738    1571.9808   -22671.719   -868.81463    204.47006    78.593129    15.931683    29.698331 
   24800    238.56461   -501.37127    229018.04   -21097.209    1580.0993   -22677.308   -1471.4961    205.05391    78.594852    15.927283     29.72783 
   25000    242.82292   -338.61588    229018.04   -21104.286    1608.3036   -22712.589    -852.9066    205.09553    78.596109    15.923563    29.728276 
   25200    242.87752   -234.67828    229018.04   -21071.831    1608.6652   -22680.497   -416.35844    206.46508    78.593916    15.924782    29.729331 
   25400    242.93993    -503.6372    229018.04   -21119.726    1609.0786   -22728.805   -1474.6152    208.72487    78.594937    15.924121    29.723699 
   25600    237.10751   -213.61321    229018.04    -21073.52    1570.4484   -22643.968   -327.51307    209.88507     78.59689    15.923321    29.720802 
   25800    240.81592   -428.79737    229018.04   -21092.074    1595.0105   -22687.085   -1157.2326     210.5365    78.597504    15.925329    29.719849 
   26000    232.74594   -335.07599    229018.04   -21165.762    1541.5601   -22707.323   -804.19577    211.31308    78.599859    15.923965     29.72118 
   26200    236.31047   -347.36539    229018.04    -21097.49    1565.1693   -22662.659   -871.05938    211.96127    78.599806    15.925968     29.72293 
   26400    234.01675   -438.12544    229018.04   -21152.237    1549.9772   -22702.214   -1225.6597    214.31611    78.600251    15.926333    29.722574 
   26600    240.10143   -158.98965    229018.04   -21096.725    1590.2782   -22687.003   -117.53644    214.94656    78.601273     15.92477    29.709519 
   26800    241.97455   -374.10393    229018.04   -21049.246    1602.6845   -22651.931   -984.63915     216.7271    78.602728    15.923796    29.685946 
   27000     240.8791   -182.94016    229018.04    -21095.23     1595.429   -22690.659   -212.19248    217.40117    78.601692    15.923842    29.684505 
   27200    249.66011   -365.48632    229018.04   -21009.441    1653.5887    -22663.03    -995.8328     218.3922    78.602491    15.923074     29.68806 
   27400    246.40784   -257.89591    229018.04   -21081.639    1632.0478   -22713.687   -517.10167    220.06657    78.601091    15.923077    29.690526 
   27600    240.26009   -390.42883    229018.04   -21108.415     1591.329   -22699.744    -1051.104    222.93126    78.600347    15.926133    29.672099 
   27800    232.48423    -158.2883    229018.04   -21211.612    1539.8267   -22751.439   -165.55032    224.61164    78.598272    15.930395    29.687653 
   28000    232.76791   -268.31386    229018.04   -21147.948    1541.7056   -22689.654    -576.0485    226.92682    78.595701    15.934943    29.683253 
   28200    245.81537   -171.90187    229018.04   -21068.467    1628.1236   -22696.591   -176.90271    227.75828    78.593932    15.934312    29.649211 
   28400    245.80016   -337.15297    229018.04   -21035.623     1628.023   -22663.646   -825.97439    229.54985    78.591639    15.936488    29.646267 
   28600    236.10482   -321.71866    229018.04   -21025.234    1563.8072   -22589.041   -760.56083    229.67137    78.592612    15.938399    29.659111 
   28800     233.6744   -274.08488    229018.04   -21121.934    1547.7097   -22669.644   -609.26287    231.54868    78.593143    15.937998    29.659888 
   29000    244.03074   -338.40124    229018.04   -21077.308    1616.3034   -22693.611   -817.41245    232.06273    78.593543    15.936022    29.661635 
   29200    237.67984   -261.83122    229018.04   -21090.872    1574.2391   -22665.111   -559.48411    231.22603    78.593999    15.933978    29.627151 
   29400    240.67891   -135.33636    229018.04   -21084.091    1594.1031   -22678.194   -85.614434    232.76583    78.594037    15.934671    29.603576 
   29600    242.65033   -327.92377    229018.04   -21108.648    1607.1605   -22715.808   -772.51769    236.01596    78.595889    15.936629    29.638943 
   29800    246.10407    2.3764209    229018.04   -21111.967    1630.0358   -22742.003    471.70416     235.0733    78.595435    15.938261    29.628637 
   30000     239.0537   -224.56204    229018.04   -21155.899    1583.3387   -22739.238   -387.08427    236.71297    78.595476    15.940058    29.652334 
   30200    232.38881   -277.49281    229018.04   -21183.602    1539.1947   -22722.797   -599.71006    236.60155     78.59496    15.941411    29.675161 
   30400    235.75815   -194.88062    229018.04   -21210.735    1561.5111   -22772.246   -289.16932    236.79902    78.593872    15.942868    29.674346 
   30600    228.02429   -287.14364    229018.04   -21245.254    1510.2869   -22755.541   -629.61913    239.61005    78.593434    15.945308    29.682098 
   30800    238.35407   -187.26559    229018.04    -21132.23    1578.7048   -22710.935   -251.06008    241.44438    78.593087    15.947637    29.658213 
   31000    238.39807   -248.18765    229018.04   -21124.282    1578.9962   -22703.278   -474.40605    241.99203    78.592946    15.947542    29.664683 
   31200    241.70853   -282.58004    229018.04   -21055.785    1600.9226   -22656.707   -652.86406    243.09135    78.592843    15.947405    29.681976 
   31400    244.54165   -261.70352    229018.04   -21102.638    1619.6874   -22722.326   -550.04676    245.02396    78.592829    15.947259    29.692339 
   31600    246.76561   -313.90824    229018.04   -21093.834    1634.4175   -22728.251   -743.64851    247.94747     78.59348    15.946352    29.705193 
   31800    238.83439   -261.23102    229018.04   -21157.793    1581.8862   -22739.679   -549.77006    250.29304    78.592828    15.948392    29.719191 
   32000    242.70388   -261.36487    229018.04   -21127.813    1607.5151   -22735.328   -551.60957    251.78337    78.592154    15.950718    29.741982 
   32200    237.63081   -367.82629    229018.04   -21182.914    1573.9144   -22756.829    -941.3127    252.77797    78.591184    15.950433    29.749103 
   32400    236.31273   -163.28732    229018.04   -21124.488    1565.1842   -22689.672   -146.33933    254.33507    78.592172    15.949409    29.737593 
   32600    238.80625   -173.38949    229018.04   -21119.538    1581.6998   -22701.237   -169.04543    256.19673    78.591442    15.951059    29.727874 
   32800    239.36007   -393.99804    229018.04   -21137.286    1585.3679   -22722.654   -1015.4707    256.70515    78.591123    15.951954    29.735076 
   33000    238.53389   -195.79752    229018.04   -21100.511    1579.8958   -22680.407    -268.1011    256.93439    78.588675    15.953551    29.705388 
   33200    239.41313   -265.91836    229018.04    -21135.29    1585.7193   -22721.009   -608.45273    259.46463    78.586809    15.952941    29.712067 
   33400    241.98707   -392.14786    229018.04   -21133.134    1602.7675   -22735.902   -1033.7036    262.14504    78.584836    15.953538    29.692716 
   33600    235.68032   -226.09594    229018.04   -21213.277    1560.9956   -22774.272    -375.2736     262.3131    78.584074    15.954383    29.691793 
   33800      244.439   -205.11466    229018.04   -21118.613    1619.0075   -22737.621   -349.28036    262.86881    78.584257     15.95362    29.698786 
   34000    240.33988   -143.93932    229018.04   -21193.502    1591.8576    -22785.36   -66.730047    261.97706    78.582966    15.950885    29.689952 
   34200     242.0018   -72.790898    229018.04   -21201.447     1602.865   -22804.312    225.29117    263.70701     78.58246    15.949751    29.697985 
   34400    238.29858   -125.88682    229018.04   -21229.838    1578.3373   -22808.175   -17.925374    264.96676    78.582915    15.948354     29.69388 
   34600    243.49321   -366.03348    229018.04   -21190.861    1612.7432   -22803.604   -943.74526    266.18408    78.583197     15.94865    29.703069 
   34800    243.16838   -356.56301    229018.04   -21158.829    1610.5917   -22769.421   -926.35079    264.48052    78.584335    15.947001    29.698235 
   35000      238.674   -278.43599    229018.04   -21130.937    1580.8238   -22711.761   -585.75957    266.43157    78.585957     15.94883    29.687537 
   35200    240.25907   -266.53417    229018.04   -21111.294    1591.3223   -22702.616   -519.97896     266.1587    78.587061    15.950346    29.669204 
   35400    237.96833   -218.50224    229018.04   -21048.281    1576.1499   -22624.431   -352.75777    267.67849    78.586047    15.950272    29.652082 
   35600    235.97456    -309.7676    229018.04   -21151.109    1562.9444   -22714.053   -716.34861    269.03365    78.586899    15.950676    29.628566 
   35800    238.91484   -361.78987    229018.04   -21067.747     1582.419   -22650.166   -925.60536    270.91992    78.587323    15.952988    29.625429 
   36000    237.28638   -235.26046    229018.04   -21144.438    1571.6331   -22716.071   -398.40302    272.33282    78.586326    15.954242    29.604393 
   36200    233.96942   -289.60669    229018.04   -21154.266    1549.6637    -22703.93   -672.70496    273.68897    78.585083    15.953966    29.601749 
   36400    243.19777   -238.28753    229018.04   -21115.265    1610.7863   -22726.051     -470.414    276.05482    78.585137    15.953808    29.606805 
   36600    235.29827   -320.60216    229018.04   -21185.728    1558.4651   -22744.193   -742.26923    277.99468    78.585697    15.952908    29.633029 
   36800    234.28699   -267.53776    229018.04   -21170.779    1551.7671   -22722.547   -572.81329    278.35474    78.585994    15.955206     29.62696 
   37000    245.93561    20.094898    229018.04   -21122.935      1628.92   -22751.855    560.31406    279.91763    78.584404    15.957285    29.628849 
   37200    233.89559   -442.27016    229018.04   -21236.071    1549.1747   -22785.246   -1218.0275    282.18256    78.585383    15.957961    29.628993 
   37400    237.33375   -371.85882    229018.04   -21200.041    1571.9469   -22771.987   -972.11067    282.53397     78.58745     15.95661    29.647886 
   37600    242.96249   -388.00316    229018.04    -21118.81     1609.228   -22728.038   -1048.7879    283.98888    78.589337    15.955327    29.640071 
   37800    234.44015   -307.91195    229018.04   -21144.236    1552.7815   -22697.018    -690.2323    284.89092    78.592576    15.956497    29.613309 
   38000     238.9161    -277.0999    229018.04   -21107.375    1582.4273   -22689.803   -593.20605     285.9424    78.591752    15.955438    29.614998 
   38200    236.72998   -276.23189    229018.04   -21098.274    1567.9479   -22666.222   -570.41015    286.84442     78.59164    15.954125    29.613557 
   38400    239.32976    -458.4235    229018.04   -21115.929    1585.1671   -22701.097   -1339.8616    289.11642    78.592265    15.952592    29.597881 
   38600    238.45436   -319.54684    229018.04   -21074.553     1579.369   -22653.922    -764.5385    289.13069    78.593979    15.949488    29.582823 
   38800    241.73436     -365.799    229018.04   -21104.883    1601.0936   -22705.977    -902.2037    290.91879    78.596243    15.946402    29.571994 
   39000    242.45998   -281.95332    229018.04   -21028.828    1605.8997   -22634.728   -633.96555    294.04436    78.596898    15.944191    29.528086 
   39200    237.20143   -304.68098    229018.04   -21131.605    1571.0705   -22702.676   -678.31648    296.73948    78.597827    15.940955    29.510816 
   39400    244.09444   -301.27101    229018.04   -21083.714    1616.7253   -22700.439   -667.99895    295.58408    78.600539    15.941386    29.523703 
   39600    238.52783    -378.6867    229018.04   -21120.108    1579.8557   -22699.964   -986.59535    296.60601    78.599059    15.940431    29.513926 
   39800    251.61817   -292.33949    229018.04   -20957.929    1666.5577   -22624.487   -613.25131     297.2759    78.596604    15.939409    29.516659 
   40000    241.42492   -258.73243    229018.04   -21107.467    1599.0441   -22706.511   -496.73863     299.6765    78.596096    15.936795    29.522236 
   40200    234.81849   -298.85806    229018.04   -21195.719    1555.2874   -22751.006   -663.86999    301.10275    78.596395    15.937257    29.509426 
   40400    247.05734   -156.26954    229018.04   -21089.825    1636.3497   -22726.175   -115.04435    300.35843    78.595841     15.93837    29.512957 
   40600    235.70951   -288.20499    229018.04   -21196.196    1561.1889   -22757.385    -636.9767     302.3398    78.594879    15.936634    29.523685 
   40800     236.4448   -140.38045    229018.04    -21161.82     1566.059   -22727.879   -60.028695    302.71066    78.597067    15.935581     29.50027 
   41000    243.72183   -250.54156    229018.04   -21118.597    1614.2574   -22732.854   -493.72087    303.03553    78.595694    15.936885    29.507531 
   41200    242.71066   -218.01123    229018.04   -21093.807      1607.56   -22701.367   -398.79761    304.22446    78.594595    15.937971    29.532642 
   41400    245.64457   -178.13647    229018.04   -21126.723    1626.9924   -22753.715   -205.00162    304.44407     78.59404    15.936047    29.549976 
   41600    247.10848   -446.51794    229018.04   -21038.847    1636.6884   -22675.535   -1206.2887    305.35116    78.594504    15.931224    29.542566 
   41800    235.57187   -346.73424    229018.04   -21088.733    1560.2773   -22649.011   -877.36312    305.04627    78.593481    15.930274    29.534038 
   42000    243.33802   -328.45445    229018.04   -21118.783    1611.7153   -22730.498   -818.25815    305.43336    78.591911    15.933005    29.518597 
   42200    236.53082   -312.65335    229018.04   -21118.733    1566.6287   -22685.361   -764.98946    307.12849    78.593108    15.934248    29.516754 
   42400    242.33139   -210.99348    229018.04   -21128.488     1605.048   -22733.536   -312.90842    309.65161    78.593516     15.93541    29.511511 
   42600    235.12233   -376.86342    229018.04   -21173.396    1557.2998   -22730.695   -975.51851    311.53426    78.595463    15.934166    29.509705 
   42800    245.71976   -290.49132    229018.04   -21060.388    1627.4904   -22687.879   -638.46632     312.9603    78.594304    15.931948    29.509899 
   43000    241.36875   -182.97198    229018.04   -21023.286    1598.6721   -22621.958   -211.47196    314.23833    78.593551     15.93126    29.495256 
   43200    241.38333    -259.4771    229018.04    -21061.88    1598.7687   -22660.649   -539.46779    315.78183    78.592613    15.931638    29.496854 
   43400    240.05922   -158.76669    229018.04   -21092.731    1589.9986   -22682.729   -111.11397    316.88695    78.591464    15.928546    29.501064 
   43600     234.7536   -262.07237    229018.04   -21101.956    1554.8576   -22656.814   -539.55767    317.53196    78.591703    15.930006    29.497749 
   43800    239.05937   -239.99618    229018.04   -21059.886    1583.3763   -22643.262   -460.97913    318.98058    78.592822    15.928515    29.489639 
   44000    230.04229    -408.0056    229018.04   -21137.798    1523.6529   -22661.451   -1104.7279     318.8945    78.594892     15.92847    29.487836 
   44200    247.27703   -317.42997    229018.04   -21084.598    1637.8048   -22722.402   -730.19961    319.82735    78.596011    15.928366    29.471274 
   44400    244.81029   -343.40265    229018.04   -21049.413    1621.4667   -22670.879   -866.70061     320.0227     78.59582    15.926876    29.470252 
   44600     241.4439    -253.0301    229018.04   -21055.936    1599.1698   -22655.106   -515.25309    321.65072    78.595699    15.924563    29.461995 
   44800    236.74977   -368.52152    229018.04   -21077.887    1568.0789   -22645.966   -946.11201    323.85227     78.59726    15.920244    29.467671 
   45000    242.89884    -365.3214    229018.04   -21108.194    1608.8064       -22717    -939.4982    324.79489    78.596043      15.9166    29.480759 
   45200     248.5126   -427.59436    229018.04   -20986.273    1645.9884   -22632.261   -1176.6791    326.38092    78.594848    15.913124    29.495158 
   45400    250.05257   -283.39059    229018.04   -20959.757    1656.1882   -22615.945    -583.7949      326.533    78.595971    15.910715    29.504251 
   45600    246.95938   -418.58181    229018.04   -20986.406    1635.7008   -22622.107   -1140.6262    327.20714    78.595678    15.910594    29.511349 
   45800    237.75857   -266.25428    229018.04   -21067.916    1574.7606   -22642.677   -522.65021    329.45257    78.595318    15.912053    29.531817 
   46000     236.1932   -358.85288    229018.04   -21069.231    1564.3926   -22633.623   -902.30794    331.29215    78.595803    15.910747    29.515887 
   46200    245.30245   -237.81493    229018.04   -21031.549    1624.7264   -22656.275   -460.18212    331.65837    78.596435    15.909076    29.537548 
   46400    246.20179    -367.4235    229018.04    -21028.12    1630.6831   -22658.803   -934.95347    332.41864    78.595597    15.904623    29.527249 
   46600    240.03184   -477.01329    229018.04   -21062.409    1589.8173   -22652.226    -1361.965    333.73852    78.596625    15.903802    29.530843 
   46800    246.98079   -395.55176    229018.04   -21015.953    1635.8426   -22651.796   -1038.5382     336.7657    78.596677    15.900656    29.516518 
   47000    243.71824    -295.3704    229018.04   -20976.751    1614.2336   -22590.985   -627.33312    339.77234    78.595295    15.899395    29.497787 
   47200    245.27813     -433.771    229018.04   -21049.098    1624.5654   -22673.663   -1187.5254    341.41548    78.593555    15.895729    29.500656 
   47400    237.71259   -158.26198    229018.04   -21095.133    1574.4561   -22669.589   -134.08108    341.50109    78.591696    15.894637    29.481721 
   47600    240.87449   -207.43034    229018.04   -21032.577    1595.3984   -22627.975   -332.20853    342.73773    78.588823    15.896744    29.489041 
   47800    243.40217   -188.09211    229018.04   -21047.603    1612.1402   -22659.743   -223.48293    343.19069    78.585819    15.894275    29.487597 
   48000     244.4309   -289.29007    229018.04   -21089.018    1618.9538   -22707.972   -639.36588    344.35057    78.583582    15.891855    29.498731 
   48200     238.3983   -225.87942    229018.04   -21113.852    1578.9978    -22692.85   -393.46572    344.97155    78.583163     15.89404    29.501917 
   48400    234.36807   -305.34783    229018.04   -21136.086    1552.3041    -22688.39    -685.7093     348.0144    78.582064    15.892843    29.493607 
   48600    234.34591    -221.5973    229018.04   -21094.843    1552.1573       -22647   -396.24756    350.24575    78.579489     15.89422     29.50101 
   48800    243.94211   -320.99481    229018.04   -21032.803    1615.7164    -22648.52   -765.86614    352.84543    78.576273    15.896649    29.479459 
   49000    240.48504   -336.67223    229018.04   -21079.956     1592.819   -22672.775   -820.46355    354.32836    78.576219    15.893959    29.475929 
   49200    237.15046   -466.51266    229018.04   -21076.937    1570.7328    -22647.67   -1340.8727    356.32454    78.575898    15.894747    29.475382 
   49400    239.77798   -316.67418    229018.04   -21051.702    1588.1359   -22639.837   -729.50674    357.93392     78.57242    15.892288    29.476991 
   49600    243.42955   -392.35704    229018.04   -21062.509    1612.3215   -22674.831   -1054.9601    357.13468    78.572851    15.889895    29.475993 
   49800     235.8259   -345.90686    229018.04   -21118.049    1561.9598   -22680.008   -882.51684    357.82933    78.574601    15.888183     29.46868 
   50000    237.86087   -299.52038    229018.04   -21107.506    1575.4382   -22682.945    -670.1353    359.32171    78.573245    15.889368    29.486241 
   50200    238.76924   -229.91566    229018.04   -21131.674    1581.4546   -22713.128    -385.0931    359.87574    78.570901    15.887064    29.485008 
   50400    237.92416   -81.464607    229018.04   -21134.205    1575.8573   -22710.062    178.60835    361.14326     78.56879    15.884903    29.472301 
   50600    237.45291   -187.68822    229018.04   -21165.262    1572.7361   -22737.998   -251.84474    360.08972    78.570646    15.881023     29.47901 
   50800    235.05359   -279.58422    229018.04     -21195.3    1556.8445   -22752.144     -581.515    360.60872    78.569753    15.877544    29.483442 
   51000    237.75523   -281.12449    229018.04   -21149.657    1574.7385   -22724.395   -586.30196    363.04924    78.571391    15.873953    29.471818 
   51200    244.79866   -311.73542    229018.04   -21137.247    1621.3897   -22758.637   -750.96727    362.63332    78.572147    15.873752    29.487834 
   51400    240.14854   -211.27295    229018.04   -21141.347    1590.5902   -22731.937   -350.97739    365.00818     78.57139    15.872178    29.495664 
   51600     242.9967   -230.99767    229018.04   -21107.733    1609.4546   -22717.188   -439.46294    366.78418    78.570056    15.872071    29.500327 
   51800    237.87148   -338.17004    229018.04   -21089.145    1575.5085   -22664.653   -808.63647    367.99558    78.569399    15.869931    29.503338 
   52000    238.69945   -266.11043    229018.04   -21047.542    1580.9924   -22628.535   -516.87049    368.39262    78.569202    15.867953    29.510961 
   52200    239.13874   -323.71362    229018.04   -21050.078    1583.9019    -22633.98   -743.10051    369.10213    78.569539    15.867424    29.529014 
   52400    232.67788   -396.35433    229018.04   -21098.517    1541.1093   -22639.626    -1064.455    371.44135    78.569848     15.86707    29.515174 
   52600    244.04963   -191.40456    229018.04   -21081.855    1616.4285   -22698.284    -259.4799    371.89704    78.570153    15.866055    29.531332 
   52800    239.25971   -379.32769    229018.04   -21161.812    1584.7032   -22746.515   -977.34013    374.00818    78.572058    15.864064     29.55042 
   53000    240.32081   -396.33345    229018.04   -21109.834    1591.7312   -22701.566   -1056.6717    376.54537     78.57429    15.865123    29.573086 
   53200    240.55197   -248.38776    229018.04   -21123.703    1593.2623   -22716.965   -457.27788    376.53463    78.576726    15.866263    29.582804 
   53400    241.85115   -479.17098    229018.04    -21074.44    1601.8672   -22676.307    -1419.271    375.94807    78.577141    15.865392    29.583406 
   53600    238.01172   -360.10712    229018.04   -21123.186    1576.4373   -22699.623   -894.95977    377.27784    78.579713    15.864685    29.589401 
   53800      243.944   -231.82095    229018.04   -21151.477    1615.7289   -22767.206   -444.58029    378.74718    78.581354    15.866529    29.594741 
   54000     244.5212   -163.14159    229018.04   -21062.454    1619.5519   -22682.006   -175.52676    379.77836    78.581695    15.870539    29.590715 
   54200    236.13337   -278.06038    229018.04   -21145.512    1563.9963   -22709.508   -614.76132    381.63525    78.585354    15.871931    29.603702 
   54400     232.2525   -400.81855    229018.04   -21178.185    1538.2919   -22716.477   -1093.3873    384.48923    78.583917    15.873958    29.605115 
   54600    238.05559   -165.11283    229018.04   -21115.519    1576.7279   -22692.246   -149.37339    384.49245    78.582711    15.875319     29.61344 
   54800    244.58223   -259.23326    229018.04   -21082.712    1619.9562   -22702.668   -539.22607    385.46794    78.582712    15.874252    29.619397 
   55000    237.03688   -203.19759    229018.04   -21141.768    1569.9806   -22711.748    -309.7063    386.44696    78.584196    15.873323    29.620465 
   55200    245.62925   -313.74994    229018.04   -21111.228     1626.891   -22738.119   -745.98085    388.39867    78.586791    15.871717    29.616043 
   55400    244.62622   -206.52657    229018.04   -21118.928    1620.2475   -22739.175   -297.78155    390.54517    78.587643    15.869695    29.625368 
   55600    239.70878   -200.74784    229018.04   -21099.764    1587.6775   -22687.442   -273.98804    391.43668    78.588092    15.869038     29.63242 
   55800    245.60515   -186.50056    229018.04    -21161.87    1626.7313   -22788.602   -225.12951    390.79094    78.588419    15.869383    29.629118 
   56000    240.90609   -469.13049    229018.04   -21148.049    1595.6077   -22743.657   -1307.0655    393.33667    78.587562     15.86811    29.623695 
   56200    238.96314   -331.97312    229018.04   -21084.382    1582.7389   -22667.121   -773.03595    393.75468    78.589867    15.867864    29.628439 
   56400    240.37303   -188.88384    229018.04   -21089.991    1592.0771   -22682.068   -210.70537    394.67381     78.58906    15.866696    29.653584 
   56600    235.07652   -180.29261    229018.04   -21150.049    1556.9964   -22707.045   -194.76772    394.23587     78.59113    15.866421    29.662917 
   56800    235.44811   -225.69903    229018.04   -21130.649    1559.4576   -22690.106   -388.98133     395.4511    78.593503    15.864103    29.675398 
   57000    235.01983   -261.49654    229018.04   -21180.437    1556.6209   -22737.058    -499.8564    396.89491    78.593705    15.860243    29.678719 
   57200    234.64228   -224.33286    229018.04   -21170.142    1554.1203   -22724.262   -384.74799    399.22538    78.591015     15.85905    29.662124 
   57400    234.87737   -249.12059    229018.04   -21167.406    1555.6774   -22723.083   -506.31186    400.28864    78.590234    15.857679    29.665068 
   57600    237.89022   -320.02811    229018.04   -21055.739    1575.6326   -22631.372   -755.63521     403.0039    78.589454    15.856752    29.675162 
   57800    243.09026   -340.65273    229018.04   -21063.149    1610.0743   -22673.223   -856.56044    404.15646      78.5877    15.853703    29.670372 
   58000    242.82775   -200.32532    229018.04   -21035.364    1608.3356   -22643.699    -276.6906    406.71606    78.587884    15.853334    29.667422 
   58200    236.38948   -401.10517    229018.04   -21011.425    1565.6926   -22577.118   -1039.6004    407.57338    78.586697    15.852255    29.668288 
   58400    232.46479   -248.73378    229018.04   -21136.564     1539.698   -22676.262   -492.48235    408.39279    78.585683    15.851711    29.667666 
   58600    238.20888   -358.90561    229018.04   -21098.703    1577.7432   -22676.446   -891.38208    410.34516    78.584814    15.850995    29.636777 
   58800    240.04563   -313.67108    229018.04   -21133.728    1589.9086   -22723.636   -743.46512    410.80229    78.583506    15.849023    29.635351 
   59000    240.58259   -377.86081    229018.04   -21151.029    1593.4651   -22744.494   -984.50631    413.42745    78.583283    15.848005    29.613974 
   59200     242.2396   -282.47978    229018.04   -21148.237      1604.44   -22752.677   -612.71917    413.83581    78.581874    15.844349    29.618277 
   59400    237.26708   -325.62604    229018.04   -21129.807    1571.5053   -22701.312   -803.24737     413.0546    78.580787    15.842192    29.624689 
   59600     248.4234    -311.3582    229018.04   -21047.609    1645.3976   -22693.007   -746.79895    413.72312    78.579636    15.840387     29.63291 
   59800    246.17965   -260.38743    229018.04   -21038.829    1630.5364   -22669.366    -520.3047     414.9738    78.578618    15.839453    29.638849 
   60000    236.57822   -221.94919    229018.04   -21171.904    1566.9427   -22738.847   -343.98914    415.96777    78.578651     15.84096    29.631522 
   60200    242.78809   -189.36401    229018.04   -21092.962    1608.0729   -22701.035   -232.03229    416.44796    78.579239    15.838956     29.61743 
   60400    239.15221   -86.540829    229018.04    -21154.19    1583.9911   -22738.181    180.60418    415.86057     78.57708    15.840874    29.608426 
   60600    239.16773   -398.10512    229018.04   -21177.568     1584.094   -22761.662   -1118.7571    416.08626    78.575038    15.840114    29.609265 
   60800     232.3007    -373.1356    229018.04   -21219.653    1538.6112   -22758.264   -955.34359     416.5009    78.575127    15.837568    29.605259 
   61000    236.57937   -123.75514    229018.04     -21178.3    1566.9503   -22745.251    40.011744    416.14286    78.574445    15.836626    29.623653 
   61200     229.7613   -302.16623    229018.04   -21206.305    1521.7918   -22728.097   -702.74744    418.67331    78.575805    15.836544    29.611884 
   61400    243.34973   -387.48578    229018.04   -21110.602    1611.7928   -22722.395   -998.88515    420.10645    78.575755    15.836841    29.621193 
   61600    243.23403   -275.87834    229018.04   -21096.549    1611.0265   -22707.576    -571.3272    421.06868    78.577556     15.83761    29.604711 
   61800    240.93442   -415.63487    229018.04   -21040.968    1595.7954   -22636.763   -1165.1728    422.52676    78.576984    15.837191    29.592706 
   62000    229.94666   -244.40956    229018.04   -21128.562    1523.0195   -22651.581   -464.44331    421.64953    78.575675    15.838912    29.622652 
   62200    237.25243   -284.16595    229018.04   -21068.669    1571.4083   -22640.077   -650.47633    423.61613    78.574534    15.839143    29.637434 
   62400     241.1941    -272.9599    229018.04   -20989.889    1597.5153   -22587.405    -586.3137    424.63186    78.576159    15.839336    29.642787 
   62600    242.04389   -309.80245    229018.04   -21009.187    1603.1438   -22612.331   -678.31971     426.5447    78.578215    15.841801    29.643919 
   62800    238.04514   -172.30765    229018.04   -21013.376    1576.6587   -22590.034   -190.04855    429.53693    78.578118    15.842746    29.670128 
   63000     238.9194   -209.78721    229018.04   -21082.453    1582.4492   -22664.902   -342.40884    431.49737    78.577193    15.844331    29.689135 
   63200    233.21135   -255.96679    229018.04     -21204.5    1544.6427   -22749.143   -524.68299    433.58655     78.57722    15.845296    29.690637 
   63400    240.82327   -271.90145    229018.04   -21087.217    1595.0592   -22682.276   -549.72789     435.6146    78.576738    15.845042    29.690631 
   63600    242.93581    -173.2843    229018.04   -21100.599    1609.0513   -22709.651   -179.66764    436.34756    78.574017    15.845472    29.669428 
   63800    242.71934   -370.46387    229018.04   -21076.651    1607.6176   -22684.269   -939.53836    439.19729    78.573339    15.847397    29.638182 
   64000    234.10563   -206.75314    229018.04   -21129.874    1550.5658   -22680.439   -295.46414    440.76998    78.573668    15.845242    29.641472 
   64200    237.74489   -461.80426    229018.04   -21093.416    1574.6699   -22668.086   -1290.8466    442.56732     78.57437    15.844334    29.632935 
   64400    238.26222   -242.96969    229018.04   -21060.888    1578.0964   -22638.984   -465.19231    444.97566    78.573751    15.843761    29.610605 
   64600    244.58508   -396.94777    229018.04    -21140.99     1619.975   -22760.965   -1011.7098    447.41578    78.575395    15.844591    29.631137 
   64800    241.11602     -382.917    229018.04   -21059.804    1596.9982   -22656.802   -997.44217    447.01303    78.576808    15.846537    29.654877 
   65000    239.03767   -446.08514    229018.04   -21130.092    1583.2326   -22713.325   -1223.4025    451.06296    78.575742    15.847824    29.643578 
   65200    240.20228    -421.3249    229018.04   -21143.402    1590.9462   -22734.348   -1184.0474    448.91142    78.577602    15.848651    29.632904 
   65400     239.7788   -109.83552    229018.04   -21022.076    1588.1413   -22610.217    20.884337    448.88521    78.579522    15.847162    29.630203 
   65600    249.62215   -309.07152    229018.04   -21037.649    1653.3373   -22690.986   -727.41022    449.89236    78.581545    15.846237    29.617172 
   65800    235.34177   -261.83722    229018.04   -21142.437    1558.7533   -22701.191   -588.68019    448.34594    78.582058    15.845884    29.600201 
   66000    236.94413   -131.22862    229018.04   -21162.333    1569.3663   -22731.699   -46.944413    447.84705    78.582601    15.843505    29.603556 
   66200    246.31775   -502.69881    229018.04   -21101.883    1631.4511   -22733.334   -1440.8024    448.76036    78.582278    15.844809    29.598743 
   66400    233.71008   -250.70307    229018.04   -21169.641    1547.9459   -22717.587   -480.95262    448.68529    78.581839     15.84431    29.601271 
   66600    239.19352   -330.42178    229018.04   -21102.491    1584.2648   -22686.755   -807.93055    449.52218    78.580856    15.844643    29.617791 
   66800    233.74754   -275.19085    229018.04   -21193.136    1548.1941    -22741.33   -567.58359      451.304    78.581032    15.843586    29.632407 
   67000    238.79561   -326.42267    229018.04    -21171.12    1581.6293   -22752.749   -748.77862    455.46674    78.580814      15.8399    29.643389 
   67200    234.15237   -316.73072    229018.04   -21206.439    1550.8754   -22757.314   -704.88012     455.2404    78.578422    15.838677    29.660444 
   67400    247.81998   -185.14624    229018.04   -21142.866    1641.4009   -22784.266   -190.81895    456.21257    78.578989    15.837049    29.644358 
   67600    236.59503   -422.30097    229018.04   -21177.786    1567.0541    -22744.84   -1148.5132    456.98761    78.579464    15.834787    29.650293 
   67800    244.18135   -172.00371    229018.04   -21152.898     1617.301   -22770.199   -182.56896    458.73883    78.580262    15.833504    29.631819 
   68000    233.72365   -129.99435    229018.04   -21154.734    1548.0358    -22702.77   -42.885945    461.34766    78.579315    15.833291    29.626379 
   68200    237.38918   -390.74708    229018.04   -21181.206     1572.314    -22753.52   -1017.1993    462.27264    78.578719    15.833678     29.62664 
   68400    244.55134    -204.7447    229018.04   -21014.371    1619.7515   -22634.123   -326.85592    461.18474     78.57906    15.831566    29.611629 
   68600    246.64869   -334.34496    229018.04   -21033.167     1633.643    -22666.81   -790.39772    460.95729    78.577386    15.830612    29.626836 
   68800    246.70089   -271.44157    229018.04   -21017.405    1633.9888   -22651.394   -586.70066    463.16105     78.57416     15.82755     29.61926 
   69000     243.9072   -399.89874    229018.04   -21019.497    1615.4852   -22634.982   -1045.5396    464.99393    78.575374    15.827513    29.624649 
   69200    238.68925   -213.72213    229018.04   -21050.701    1580.9248   -22631.626   -371.89503    466.28471    78.574768    15.828236    29.620537 
   69400    239.07286   -354.51392    229018.04   -21074.376    1583.4656   -22657.842   -894.72812    468.57242    78.574588    15.829954    29.610226 
   69600    242.20094   -237.70444    229018.04    -21063.42     1604.184   -22667.604   -424.08411    471.58323    78.577162    15.832905    29.620867 
   69800    236.52622   -357.51635    229018.04   -21043.121    1566.5983   -22609.719   -914.43492     470.3318    78.577283    15.835245    29.611663 
   70000    240.62372   -263.38136    229018.04   -21075.773    1593.7375   -22669.511   -513.44031    470.56237    78.577408    15.836396    29.594839 
   70200    238.41811   -433.77239    229018.04   -21090.805     1579.129   -22669.934   -1194.3602    473.64305    78.578579    15.835814     29.59381 
   70400    239.14494   -323.41544    229018.04   -21093.754     1583.943   -22677.697   -793.66167    473.34117    78.577235    15.833485     29.58496 
   70600     239.0717    -327.7395    229018.04   -21075.256    1583.4579   -22658.714   -789.38166    475.36646    78.576238    15.831665    29.572172 
   70800    240.73324   -358.95768    229018.04   -21129.884    1594.4629   -22724.347   -922.33968    475.31137    78.574549    15.831024    29.574366 
   71000    238.15951     -380.122    229018.04   -21078.538    1577.4161   -22655.954   -1004.0445    477.62123    78.574513    15.834797    29.587047 
   71200     238.1875   -222.58826    229018.04   -20932.162    1577.6015   -22509.763   -406.15691    478.75917    78.573803     15.83632    29.595465 
   71400    244.26716   -290.69362    229018.04   -21014.681    1617.8693    -22632.55   -635.41056    481.75421    78.574984    15.837223    29.580568 
   71600    241.35469   -294.33988    229018.04   -21028.843     1598.579   -22627.422   -674.71518    481.23403    78.575749    15.838012    29.575217 
   71800    248.69916   -228.98462    229018.04   -21073.995    1647.2241   -22721.219     -394.114    483.43843    78.574535    15.837201    29.561813 
   72000    242.17528   -241.83384    229018.04   -21142.503     1604.014   -22746.517   -451.99435    482.64067    78.575167    15.836752    29.567016 
   72200     235.4496     -414.892    229018.04   -21147.795    1559.4674   -22707.263   -1140.7513    485.24721    78.575467    15.836839    29.557626 
   72400    243.58302   -340.27787    229018.04   -21081.687     1613.338   -22695.025   -851.81025    486.08901    78.575565    15.836283    29.560312 
   72600    245.22828   -293.21898    229018.04   -21136.728    1624.2352   -22760.963   -682.81632    488.68775    78.575882    15.837751    29.551741 
   72800    238.83396   -403.71178    229018.04   -21168.574    1581.8833   -22750.458   -1061.7608    489.61264    78.576569    15.833965     29.53036 
   73000    235.61934   -185.33085    229018.04   -21192.374    1560.5917   -22752.966    -233.6702     490.9257    78.577645    15.831729    29.513808 
   73200    240.84866   -242.52897    229018.04   -21060.738    1595.2274   -22655.965   -443.14643    492.46772    78.578972    15.830257    29.520277 
   73400    247.91828   -155.52313    229018.04   -21053.313     1642.052   -22695.364   -116.29085    491.11998    78.578438    15.831819    29.511662 
   73600    241.29352   -246.19327    229018.04    -21104.21    1598.1738   -22702.384   -466.91155    493.23198    78.580332    15.829846    29.513292 
   73800    241.46423   -287.58488    229018.04   -21080.308    1599.3045   -22679.613   -631.12104    494.22396    78.581614    15.829438    29.502115 
   74000       245.45   -372.36925    229018.04   -21002.188    1625.7037   -22627.892   -916.73984    497.10142    78.582912    15.830683    29.489132 
   74200     237.4904   -287.52728    229018.04   -21093.364    1572.9844   -22666.348    -624.9281    495.25441    78.583483    15.829355    29.479598 
   74400    228.02987   -341.91456    229018.04   -21166.691    1510.3239   -22677.015   -877.20903     497.4138     78.58483    15.827564    29.485421 
   74600    236.39871   -326.23502    229018.04   -21189.236    1565.7537   -22754.989   -759.87839    498.63679    78.584724    15.826737    29.478284 
   74800    240.86084    -337.4673    229018.04   -21124.617    1595.3081   -22719.925   -858.29382     497.6489    78.583955    15.825767    29.464556 
   75000    234.95231   -320.89068    229018.04   -21147.681    1556.1737   -22703.855   -771.46305    495.41379    78.584224    15.825704    29.475855 
   75200    244.71286   -396.34452    229018.04   -21114.445    1620.8213   -22735.266   -1000.1827    497.28732     78.58512    15.826764    29.490146 
   75400    240.64973   -339.31877    229018.04   -21108.136    1593.9098   -22702.046   -827.49386    495.45359    78.585887    15.826983    29.503469 
   75600    240.72786   -205.96961    229018.04   -21130.405    1594.4273   -22724.833   -317.01658    499.15292     78.58598    15.824682     29.49573 
   75800    240.87189   -180.41909    229018.04   -21168.791    1595.3812   -22764.172   -217.59213    499.08754    78.587303    15.825358    29.485366 
   76000    235.52058   -376.85904    229018.04     -21150.3    1559.9375   -22710.237   -1007.2989    497.99118    78.587223    15.826023    29.497246 
   76200    229.33048   -430.84506    229018.04     -21185.7    1518.9383   -22704.639   -1182.0855    498.80714     78.58809    15.825217    29.503276 
   76400    230.96897   -218.66822    229018.04   -21239.406    1529.7906   -22769.196   -365.35742    497.62225    78.587051    15.824333    29.480945 
   76600    236.48572   -197.68698    229018.04   -21176.475    1566.3301   -22742.805   -273.30056    499.65009    78.588184    15.825173     29.46843 
   76800    243.65238   -425.73863    229018.04   -21054.838    1613.7974   -22668.635   -1219.7001    501.14186    78.586567    15.824708    29.463653 
   77000    241.85564   -178.15356    229018.04   -21162.521    1601.8969   -22764.418   -204.13261    500.40587    78.588012    15.826229      29.4842 
   77200    229.59327   -348.56923    229018.04   -21170.548    1520.6789   -22691.227   -891.82531    502.96925    78.588113    15.830371    29.495089 
   77400    241.50945   -407.10933    229018.04    -21154.18     1599.604   -22753.784   -1104.2155    504.03096    78.588346     15.83013    29.491272 
   77600    238.14965   -276.97702    229018.04    -21142.62    1577.3508   -22719.971   -566.75216    507.85118     78.58892    15.830646    29.512704 
   77800     234.7562   -223.72285    229018.04    -21142.59    1554.8748   -22697.465   -393.91685    509.39306    78.592254    15.832165    29.523845 
   78000    236.85005   -259.77783    229018.04   -21138.877    1568.7431    -22707.62   -514.57239    508.92073    78.592773    15.834354    29.509692 
   78200    242.10189   -367.37048    229018.04   -21082.855    1603.5279   -22686.383    -940.8323    509.87025     78.59187    15.832359     29.51244 
   78400    246.33022   -367.36188    229018.04   -21101.394    1631.5337   -22732.928   -890.40209    510.11347    78.590053    15.833122    29.503865 
   78600    235.26841   -105.89018    229018.04    -21152.63    1558.2674   -22710.898    102.09268    508.90484    78.588564     15.83299    29.519158 
   78800    238.72112   -421.47321    229018.04   -21135.255    1581.1359   -22716.391   -1125.5735    510.14362    78.586642    15.834093    29.511247 
   79000    242.10969   -355.78559    229018.04   -21074.013    1603.5796   -22677.593   -880.52401    511.11906      78.5855    15.835989    29.493055 
   79200    240.85867   -353.67488    229018.04   -21092.538    1595.2936   -22687.832   -839.65339    511.69418     78.58616    15.837665    29.484324 
   79400     237.5342   -389.59108    229018.04   -21132.686    1573.2745   -22705.961   -1014.6296    513.69292    78.586107    15.839534    29.475503 
   79600    236.91369   -412.49351    229018.04   -21138.896    1569.1646   -22708.061   -1102.0134    512.91352    78.584718    15.839509    29.483006 
   79800    236.12925   -371.26571    229018.04   -21135.651     1563.969    -22699.62   -898.73778    512.62658    78.583547    15.840846    29.497857 
   80000    230.80054   -269.75915    229018.04   -21149.671     1528.675   -22678.346   -578.10788    513.16578    78.583542    15.838091    29.530317 
   80200    235.60029   -408.85618    229018.04   -21137.083    1560.4655   -22697.548   -1066.7442      513.244    78.581647    15.838757    29.533764 
   80400    231.45097   -177.30128    229018.04   -21185.675    1532.9831   -22718.658   -192.44266    512.15849    78.580431    15.838116    29.526645 
   80600    242.06095   -341.86556    229018.04   -21028.023    1603.2568   -22631.279   -840.43557    516.99466    78.579845    15.836558    29.518104 
   80800    237.93237   -303.41928    229018.04   -21125.886    1575.9117   -22701.798   -674.47388     515.8771    78.579716    15.834422    29.470958 
   81000    240.02434   -256.72867    229018.04   -21099.488    1589.7676   -22689.255   -514.41214    517.87213    78.580955    15.833592    29.459231 
   81200    241.88623   -244.25997    229018.04   -21081.596    1602.0996   -22683.695   -453.47785    518.07956    78.581839    15.833713    29.454456 
   81400    238.69857    -274.2529    229018.04   -21177.212    1580.9866   -22758.199   -582.14931    521.28232    78.583063    15.835574    29.456132 
   81600    242.54763   -172.50819    229018.04    -21058.58    1606.4803    -22665.06   -178.78431     520.6136    78.583832    15.833519    29.459386 
   81800    239.84204   -327.35395    229018.04   -21022.154    1588.5602   -22610.714    -781.6296    521.76567    78.586079    15.832002    29.462009 
   82000    246.79381   -115.87948    229018.04    -20995.59    1634.6042   -22630.194    49.907214    522.43518    78.588154    15.831228    29.466839 
   82200    233.01371   -325.37368    229018.04   -21108.342    1543.3337   -22651.676   -797.70357    524.93127    78.587956    15.828987     29.45242 
   82400    234.74382   -143.09537    229018.04    -21151.91    1554.7928   -22706.703    -37.99739    527.50288    78.587021    15.825525    29.460216 
   82600    245.08904   -322.35619    229018.04   -21137.818    1623.3129   -22761.131   -775.27393    529.06111    78.588108    15.825549    29.477277 
   82800    241.48981   -279.95704    229018.04   -21110.792     1599.474   -22710.265   -578.39517    530.36421    78.586799    15.823128    29.466329 
   83000     238.1114    -315.6469    229018.04   -21141.887    1577.0975   -22718.985   -724.85532     533.0325    78.583846    15.821717    29.465264 
   83200    240.49211   -117.58028    229018.04   -21127.688    1592.8658   -22720.554    9.6666166    533.47288    78.581407    15.823444    29.449437 
   83400    233.74121   -359.53319    229018.04    -21139.49    1548.1522   -22687.642   -912.18531    534.62135    78.581079    15.823665    29.437923 
   83600    237.00798   -374.41399    229018.04   -21090.486    1569.7892   -22660.275   -952.53299    535.68379    78.580432    15.825731    29.403492 
   83800    239.68778   -342.31375    229018.04   -21171.602    1587.5384   -22759.141   -847.14796    540.04201    78.578687    15.824967    29.419425 
   84000    240.56622    -183.5722    229018.04    -21175.16    1593.3567   -22768.517   -198.56305    539.73504     78.57864    15.825265    29.429708 
   84200    236.33854   -352.49514    229018.04   -21223.506    1565.3552   -22788.861   -917.28068    541.50974    78.577125    15.823279    29.440938 
   84400    242.58765   -344.22857    229018.04    -21133.04    1606.7453   -22739.785   -829.13498    543.02694    78.577046     15.82308    29.436009 
   84600    240.04054   -327.99299    229018.04    -21152.76    1589.8749   -22742.635    -777.0554    543.73392    78.578301    15.824425    29.432961 
   84800    235.05374   -251.19576    229018.04   -21232.172    1556.8455   -22789.017   -506.47404    544.78268    78.577081    15.825142    29.407886 
   85000     237.7682   -174.71788    229018.04   -21170.693    1574.8244   -22745.517   -190.10686     549.3209    78.575854    15.824239     29.40185 
   85200     244.9809   -421.64879    229018.04   -21119.845    1622.5967   -22742.441   -1107.9325    552.12673    78.576173    15.822917     29.37329 
   85400    237.10652    -330.6167    229018.04   -21148.455    1570.4418   -22718.897   -829.20932    552.45082    78.578075     15.81924    29.371554 
   85600    243.81479   -344.03635    229018.04   -21104.482    1614.8731   -22719.355   -906.15623    553.00597    78.580182    15.818535    29.397819 
   85800    236.02966   -269.10067    229018.04   -21074.553    1563.3094   -22637.863   -550.47251    552.33043    78.580995    15.820088    29.381057 
   86000    246.13062   -486.91716    229018.04   -21023.585    1630.2117   -22653.796   -1406.8654    553.68338    78.581077    15.819336    29.357845 
   86200    242.70199   -221.23968    229018.04   -21096.427    1607.5026   -22703.929   -349.28868    553.25334    78.582667    15.816206     29.35072 
   86400    238.04819   -331.41343    229018.04   -21123.661    1576.6788    -22700.34    -785.0834    554.24353    78.581456    15.815934    29.351648 
   86600    241.95907   -458.99598    229018.04   -21075.034     1602.582   -22677.616   -1293.9503    555.98611    78.581282    15.813102     29.35211 
   86800    238.75512   -348.86516    229018.04   -21104.085    1581.3611   -22685.446    -886.4071      557.494    78.582568      15.8113    29.340736 
   87000     238.0376   -183.16484    229018.04   -21095.723    1576.6087   -22672.332   -212.20019    559.10317    78.581851    15.809556    29.359608 
   87200    238.54018    -243.1433    229018.04   -21082.829    1579.9375   -22662.766   -447.12563    561.91327    78.581107    15.808238    29.360051 
   87400    240.80937    -377.3216    229018.04   -21071.658    1594.9671   -22666.625   -997.97808    561.23275    78.578377    15.808021    29.363585 
   87600    240.46732   -320.94002    229018.04   -21034.549    1592.7016    -22627.25   -777.25731    561.46938    78.579298    15.810391    29.361404 
   87800    227.44022   -337.93761    229018.04   -21159.755    1506.4185   -22666.174   -825.83916    561.49467    78.581511    15.812295      29.3848 
   88000    240.95678   -351.11444    229018.04   -20986.124    1595.9435   -22582.067   -860.12292    560.32321    78.580306    15.810589    29.374869 
   88200    250.30186   -198.04157    229018.04   -20998.293    1657.8393   -22656.132   -294.59924    560.83762    78.578404    15.811255    29.383207 
   88400    244.37444   -216.90754    229018.04   -21058.943    1618.5799   -22677.523    -358.8422    562.84271    78.577569     15.80909    29.373825 
   88600    237.36905   -365.62463    229018.04   -21153.694    1572.1807   -22725.874    -958.9054     565.3327    78.578942    15.808295    29.363438 
   88800    239.39685   -251.89959    229018.04   -21177.278    1585.6115   -22762.889   -462.19776    566.30318    78.575917     15.80951    29.368053 
   89000    234.96428   -220.85075    229018.04   -21235.609     1556.253   -22791.863   -367.90893    567.59539    78.577651     15.81146    29.366503 
   89200     238.4035   -238.59197    229018.04   -21168.572    1579.0322   -22747.604   -444.41951    571.03045    78.578647    15.813115    29.373708 
   89400    239.25001   -321.95597    229018.04   -21105.106    1584.6389   -22689.745   -805.23645    571.10889    78.579146    15.815227    29.381736 
   89600    234.85982   -299.64619    229018.04   -21215.221    1555.5611   -22770.782   -703.39149    569.90884    78.581367    15.816235    29.391693 
   89800    233.62133   -243.37784    229018.04   -21137.925    1547.3582   -22685.283   -438.03881    568.24544    78.582803    15.817407    29.391065 
   90000    236.04166   -389.31075    229018.04   -21059.534    1563.3889   -22622.923   -1055.3074    568.71929    78.584045     15.81772    29.412911 
   90200    237.23882   -276.98833    229018.04   -21096.821    1571.3181   -22668.139   -565.65394    568.97394    78.583019    15.817115     29.43423 
   90400    238.98131   -369.79876    229018.04   -21171.786    1582.8592   -22754.645   -1015.3706     571.2277    78.583776    15.816379    29.443991 
   90600     233.5061   -344.79745    229018.04   -21187.654    1546.5949   -22734.249    -850.6182    573.24471    78.584038    15.813694     29.43844 
   90800    244.15656   -210.31024    229018.04   -21077.037    1617.1367   -22694.173    -359.0726    574.01048    78.584709    15.810247    29.441374 
   91000    239.27994   -221.50483    229018.04   -21146.711    1584.8372   -22731.548   -374.23378      574.151    78.585685    15.810626     29.44651 
   91200    236.96515   -357.60176    229018.04   -21149.397    1569.5055   -22718.903   -884.44408    574.65516    78.586254    15.809079    29.441909 
   91400    241.99983   -211.65321    229018.04   -21132.086     1602.852   -22734.938   -297.63949    576.19436    78.588584    15.809244    29.439444 
   91600    240.24279   -160.94603    229018.04   -21119.738    1591.2145   -22710.953   -133.05884      579.085    78.589687     15.80648    29.452612 
   91800    236.26284   -119.99873    229018.04   -21071.885    1564.8538   -22636.739    13.468047    579.36415    78.590269    15.805311    29.439727 
   92000    235.90453   -323.07055    229018.04   -21089.823    1562.4806   -22652.303   -779.90415    579.43508    78.588859     15.80529    29.429403 
   92200    240.36867   -409.30551    229018.04    -21122.55    1592.0482   -22714.598   -1156.1443    582.37499    78.588209    15.804927    29.440357 
   92400    242.23472   -211.29118    229018.04   -21067.337    1604.4077   -22671.744   -353.27928    580.61548    78.589582    15.803647    29.437506 
   92600    243.34317   -268.04028    229018.04   -21056.473    1611.7494   -22668.223   -555.10916     580.7772    78.591294    15.803787    29.426502 
   92800     239.5461   -338.51328    229018.04   -21155.996    1586.6001   -22742.596   -873.48369    583.78431    78.591266    15.804396    29.403733 
   93000    243.15883   -160.69673    229018.04   -21167.089    1610.5284   -22777.617   -131.80927    585.03406     78.59229    15.805779     29.40975 
   93200    237.92896   -294.66816    229018.04   -21110.833    1575.8892   -22686.722   -709.24989    590.66158    78.593913    15.805276     29.43432 
   93400    230.72826   -269.57535    229018.04   -21207.856    1528.1963   -22736.052   -575.99453    591.40453    78.595645    15.805572    29.428973 
   93600    239.55497   -219.03509    229018.04    -21173.66    1586.6588   -22760.319   -327.61489    592.22051    78.594648    15.805493     29.43582 
   93800    244.99347   -288.33821    229018.04   -21077.454    1622.6799   -22700.134   -645.71824    592.11648    78.594318    15.803125    29.442874 
   94000    243.87513   -319.66824    229018.04    -21133.88    1615.2728   -22749.153   -709.51926    593.95576    78.596043    15.801428    29.460533 
   94200    245.00546   -254.36036    229018.04   -21156.074    1622.7594   -22778.833   -497.70474    595.29082    78.597558    15.798266    29.441441 
   94400    241.93299   -488.26337    229018.04   -21058.109    1602.4093   -22660.518   -1427.9211    597.67001    78.595729    15.794643    29.447962 
   94600    235.64901   -185.86256    229018.04   -21122.381    1560.7882   -22683.169   -244.88809    596.29752    78.597427     15.79281     29.45041 
   94800    244.01256   -401.85105    229018.04   -21057.903     1616.183   -22674.086   -1077.5096    597.81843    78.598137    15.791945    29.468282 
   95000    243.25821   -237.41468    229018.04    -21084.09    1611.1867   -22695.277   -466.74164    599.46231    78.599514    15.787615     29.44894 
   95200    234.79218   -182.25864    229018.04    -21152.38    1555.1131   -22707.493   -244.19257    597.08365     78.59926    15.786838    29.454442 
   95400    235.24884    -207.3375    229018.04   -21145.922    1558.1378    -22704.06    -310.6036    598.00524    78.599982    15.788428    29.461797 
   95600    235.87476   -357.15429    229018.04   -21137.357    1562.2834   -22699.641   -897.84132    596.99039    78.601381    15.788264    29.447346 
   95800    238.47702   -278.67161    229018.04   -21059.569    1579.5191   -22639.088   -581.35654    597.04149    78.600626    15.788061    29.454485 
   96000    236.79029   -144.18042    229018.04   -21114.922    1568.3474    -22683.27   -96.082644    598.17261    78.603333    15.786067    29.450052 
   96200    241.16928   -213.87243    229018.04   -21138.248    1597.3509   -22735.598    -343.9766    603.00917    78.603484    15.786032    29.472579 
   96400     238.9429   -188.80355    229018.04   -21078.138    1582.6049   -22660.743   -265.78113    606.65972    78.602824    15.785556    29.477142 
   96600    242.08362   -437.45362    229018.04   -21160.915    1603.4069   -22764.322   -1227.2198    608.36933    78.601257    15.784212    29.482318 
   96800    232.43132   -179.29266    229018.04   -21163.432    1539.4763   -22702.908   -248.41577     610.0181    78.601202    15.785532    29.474511 
   97000      238.023   -339.17995    229018.04   -21132.345     1576.512   -22708.857   -827.74101    614.80107    78.601227    15.785139    29.466935 
   97200    247.15171   -149.43159    229018.04   -21097.912    1636.9747   -22734.887   -109.05586    615.98043    78.598082    15.784244    29.460578 
   97400    239.53113   -260.50829    229018.04   -21078.311    1586.5009   -22664.812   -532.04044    619.79583    78.596481     15.78457    29.439915 
   97600    240.16408   -295.55969    229018.04   -21090.082    1590.6931   -22680.775   -714.20685     620.7265    78.595185    15.785492    29.439737 
   97800    233.90788   -376.73967    229018.04   -21178.282    1549.2561   -22727.538   -1014.8737    621.36542    78.598076    15.786285    29.435467 
   98000    232.61077   -279.70281    229018.04   -21243.744    1540.6648   -22784.409    -623.0629    620.80005     78.59755    15.786575    29.427829 
   98200    237.30298   -231.85095    229018.04   -21217.105     1571.743   -22788.848   -385.94909    621.47325    78.596528    15.785637    29.421316 
   98400    241.97585   -224.10012    229018.04   -21149.806    1602.6931   -22752.499   -410.26246    620.85162    78.597699    15.785145    29.407388 
   98600    241.85988   -367.12784    229018.04     -21143.1    1601.9251   -22745.025   -919.65194    620.78293    78.598318    15.784578    29.410123 
   98800     239.3387   -388.38223    229018.04   -21056.814    1585.2264    -22642.04    -1038.152    621.47068    78.598985     15.78563    29.391296 
   99000     245.2802    -333.5779    229018.04   -21050.355    1624.5791   -22674.934   -812.26796    620.88863    78.601343    15.784783    29.387837 
   99200    243.81129   -305.18925    229018.04   -21136.089      1614.85   -22750.939   -702.39367    620.35854    78.603788    15.784259    29.402913 
   99400    234.45182   -277.11437    229018.04    -21169.99    1552.8588   -22722.848   -591.80138    620.40246    78.605952    15.782718    29.410512 
   99600    236.61743   -463.25768    229018.04   -21093.693    1567.2024   -22660.895   -1334.7643    622.00594    78.606656    15.784934    29.426302 
   99800    245.59902   -190.05508    229018.04   -21051.584    1626.6907   -22678.275   -276.10403    622.69244    78.606877    15.786066    29.447377 
  100000    243.35807   -332.21256    229018.04   -21098.171    1611.8481   -22710.019   -762.79235     625.8089    78.606154    15.786652    29.447144 
  100200    244.90239   -276.22168    229018.04   -21017.615    1622.0767   -22639.692   -590.43283    626.67597    78.608433     15.78661    29.454473 
  100400    241.77688   -210.50753    229018.04   -21033.402    1601.3753   -22634.778   -352.66256    627.17376    78.608579    15.787853    29.446002 
  100600    239.55252   -284.02773    229018.04   -21103.545    1586.6426   -22690.188   -617.30171    626.26912    78.609216    15.787303    29.462817 
  100800    245.80306   -403.62758    229018.04   -21080.771    1628.0421   -22708.814     -1071.98    629.07134    78.607898    15.789646    29.471134 
[...]
 5175800    225.26264   -228.20731    229018.04   -23325.984    1491.9956   -24817.979   -440.72504    9855.0812    79.596814    15.788989    29.659338 
 5176000    222.06316   -424.50514    229018.04   -23458.199    1470.8043   -24929.003   -1231.3048    9861.7793    79.596177    15.788824    29.645515 
 5176200    220.53115   -283.65499    229018.04   -23446.862    1460.6572   -24907.519   -636.80352    9855.3163    79.597767    15.789021    29.646234 
 5176400    229.73204   -275.11144    229018.04   -23403.117     1521.598   -24924.715   -645.11986    9856.2383    79.597935    15.788984    29.644405 
 5176600    222.06264   -402.15347    229018.04   -23360.965    1470.8008   -24831.766   -1144.7865    9861.4204     79.59946    15.789462    29.641175 
 5176800    223.57845   -235.23041    229018.04   -23416.632    1480.8405   -24897.473   -483.30347    9854.0001    79.598063    15.790086    29.652319 
 5177000    230.76166    -334.6037    229018.04   -23319.636    1528.4175   -24848.053   -874.60784     9860.087    79.597915    15.789877    29.653511 
 5177200    235.03256   -269.56756    229018.04   -23331.152    1556.7053   -24887.857   -563.98905    9855.3304    79.596128    15.790794    29.644452 
 5177400    228.69512   -204.05933    229018.04   -23369.621    1514.7301   -24884.351   -338.02561     9854.303    79.596687    15.790787    29.651113 
 5177600    226.39306   -370.40367    229018.04   -23356.041    1499.4827   -24855.524   -995.71618    9856.7928    79.597383    15.789401    29.650633 
 5177800    226.95196    -298.9549    229018.04   -23321.332    1503.1845   -24824.517    -714.2617    9855.8019    79.599695    15.789382    29.651375 
 5178000    222.91632   -257.80708    229018.04   -23404.197     1476.455   -24880.652   -556.26178     9856.182    79.599533    15.789262    29.658289 
 5178200    223.05396   -417.19783    229018.04   -23405.247    1477.3666   -24882.614   -1175.3033    9857.7858    79.599505    15.789834    29.667951 
 5178400    229.74447   -351.70296    229018.04   -23306.969    1521.6803   -24828.649   -912.68984    9858.3406    79.601556    15.790382     29.65758 
 5178600    224.16756   -214.87334    229018.04   -23361.603    1484.7424   -24846.345   -401.47333    9854.9115    79.600586    15.788327    29.660569 
 5178800    229.22269   -440.28524    229018.04   -23326.823    1518.2244   -24845.047   -1208.8354    9860.6168    79.603009    15.788049    29.654808 
 5179000    232.29148   -388.84884    229018.04   -23302.811    1538.5501   -24841.361   -1052.6388    9858.2618    79.605271     15.78677    29.648955 
 5179200    227.57208   -253.89772    229018.04    -23361.99    1507.2918   -24869.282   -508.85211    9854.1755      79.6073    15.786613    29.652473 
 5179400     225.7375   -400.66043    229018.04   -23392.019    1495.1407   -24887.159   -1107.1283    9858.6238    79.609578    15.786039    29.661439 
 5179600    226.61727   -356.01833    229018.04   -23365.862    1500.9678    -24866.83   -944.14259    9856.6875    79.612929    15.786394    29.657892 
 5179800    228.19931   -289.35276    229018.04       -23342    1511.4462   -24853.446   -680.82296    9856.6804    79.614846    15.785136     29.66598 
 5180000    222.39071    -457.4345    229018.04   -23372.056    1472.9737   -24845.029   -1292.7007    9858.2963    79.617902    15.784041    29.670432 
 5180200    223.38622   -356.81939    229018.04   -23392.447    1479.5673   -24872.014   -939.02496    9855.7084     79.62014    15.785142    29.676222 
 5180400    226.59885    -306.2135    229018.04   -23370.724    1500.8458    -24871.57   -745.06056    9856.2696    79.620901    15.782886    29.677929 
 5180600    217.24742   -396.69613    229018.04   -23388.202    1438.9079    -24827.11   -1102.7795    9857.3849    79.620454    15.780545    29.668186 
 5180800    223.26796   -275.00324    229018.04   -23419.209    1478.7841   -24897.993   -637.71312    9855.4297    79.621322    15.782797    29.669842 
 5181000    224.31184   -305.52828    229018.04   -23366.017    1485.6981   -24851.715   -734.81581    9856.7609    79.621509    15.783874    29.667312 
 5181200    226.36691   -341.62416    229018.04   -23331.782    1499.3095   -24831.091   -885.55387     9857.077    79.622747    15.783767    29.659844 
 5181400    225.09619   -222.22931    229018.04   -23328.264    1490.8931   -24819.157   -436.18635    9854.9174    79.622125    15.786186    29.642069 
 5181600    229.70124   -298.57085    229018.04   -23323.171     1521.394   -24844.565   -701.96323     9855.769      79.6221    15.785249    29.652012 
 5181800    222.74035   -299.87265    229018.04    -23418.24    1475.2895   -24893.529   -701.11884    9856.0848    79.621834    15.786147    29.651833 
 5182000    223.24668   -224.47889    229018.04   -23419.702    1478.6431   -24898.345   -431.99226    9854.6038    79.622094    15.786759    29.660759 
 5182200    224.41967   -291.69369    229018.04   -23340.975    1486.4122   -24827.387   -678.98412    9857.1143    79.621596    15.786468    29.655841 
 5182400    228.26493   -297.33567    229018.04   -23350.551    1511.8808   -24862.432   -709.74549    9856.0309    79.622674    15.788207    29.656407 
 5182600    230.53557   -191.58777    229018.04   -23319.641    1526.9201   -24846.561   -271.70381    9855.5947    79.623864    15.789979    29.661691 
 5182800    230.41996   -412.77067    229018.04   -23327.645    1526.1543   -24853.799   -1184.3392    9857.2352    79.626009    15.791556    29.651692 
 5183000    225.61505   -280.11892    229018.04   -23326.454    1494.3297   -24820.784   -661.27918    9857.3567    79.627819    15.791287    29.656452 
 5183200    221.25551    -300.4069    229018.04   -23336.165    1465.4549    -24801.62   -745.53989     9855.932    79.628615    15.792141    29.671103 
 5183400    228.81143   -399.46931    229018.04   -23370.672    1515.5005   -24886.172   -1093.6246    9858.2199    79.631138    15.791657    29.669489 
 5183600    230.28015   -227.31862    229018.04   -23358.211    1525.2283   -24883.439   -436.12611    9854.7214    79.631759    15.790144    29.673379 
 5183800    223.77043   -290.29717    229018.04    -23408.37    1482.1121   -24890.482    -668.6925    9858.4418    79.633617    15.790692    29.666423 
 5184000    222.17975   -336.29495    229018.04   -23368.763    1471.5764   -24840.339   -849.91088    9858.7046    79.633931    15.789969    29.660939 
 5184200    227.38573   -259.97875    229018.04   -23383.255    1506.0575   -24889.312   -593.89022    9857.7546    79.634561    15.792487    29.664583 
 5184400    227.91035   -296.35621    229018.04   -23352.188    1509.5323    -24861.72   -744.30541    9855.3206    79.634037    15.790798    29.668371 
 5184600    225.83729   -406.35852    229018.04   -23351.613    1495.8016   -24847.414    -1095.276    9857.4564    79.634967    15.791294    29.671733 
 5184800    223.90688   -176.11669    229018.04   -23340.036    1483.0158   -24823.052   -210.48853    9855.4981    79.636407    15.789666    29.664765 
 5185000    231.39517   -183.01135    229018.04   -23340.377    1532.6135   -24872.991   -265.49571    9854.9629    79.636961    15.789306    29.658243 
 5185200    226.51106    -423.6907    229018.04   -23357.934    1500.2643   -24858.198   -1168.7481    9862.0724    79.637687    15.787669    29.668244 
 5185400    227.31305   -270.47494    229018.04   -23395.606    1505.5762   -24901.183   -595.33956    9858.6415    79.635627    15.786386    29.665577 
 5185600    228.57941   -189.66807    229018.04   -23357.244    1513.9637   -24871.207   -231.04108    9853.5803    79.636317    15.784228    29.673824 
 5185800    224.97889   -480.54507    229018.04   -23254.943    1490.1162   -24745.059   -1408.2233    9860.8573     79.63718    15.783739    29.672431 
 5186000    227.40291   -221.87771    229018.04   -23307.117    1506.1713   -24813.289   -397.81867    9857.3667    79.635557    15.783669     29.67475 
 5186200    225.07952   -261.14502    229018.04   -23376.947    1490.7827    -24867.73   -573.29508    9856.5315    79.635386    15.782158    29.674564 
 5186400    219.91658   -467.21791    229018.04   -23388.395    1456.5866   -24844.981   -1337.4809    9860.7762    79.634863    15.779724    29.688977 
 5186600    229.93764   -265.52827    229018.04   -23327.879    1522.9598   -24850.838    -606.9985    9856.2816      79.6348     15.77839    29.686228 
 5186800    228.38288   -238.31619    229018.04   -23335.293     1512.662   -24847.955   -421.22541    9856.8747    79.634825    15.778482    29.686183 
 5187000    230.51536    -477.2933    229018.04   -23338.878    1526.7862   -24865.664   -1412.6872    9859.7313    79.634688    15.776888     29.67863 
 5187200    230.63832   -225.95463    229018.04   -23359.319    1527.6006    -24886.92   -402.53954    9853.6867    79.636075    15.774975    29.679656 
 5187400    228.77803   -255.27914    229018.04   -23328.107    1515.2792   -24843.386   -530.62409    9854.9082    79.637601    15.774641    29.672054 
 5187600    228.38667   -474.50299    229018.04   -23341.135    1512.6871   -24853.822   -1393.5007    9859.9259    79.639203    15.773743    29.673686 
 5187800    228.71353   -229.45275    229018.04   -23335.178     1514.852    -24850.03   -439.83708    9853.9948     79.64118    15.772599    29.674266 
 5188000     225.3556   -307.70601    229018.04   -23325.888    1492.6113     -24818.5   -766.23455    9855.7267    79.643061    15.773811    29.667707 
 5188200    229.91636   -389.79415    229018.04   -23312.551    1522.8188    -24835.37   -1081.4916    9859.4923    79.644533    15.773911    29.664517 
 5188400    224.24604    -193.8097    229018.04   -23360.323    1485.2622   -24845.586   -292.19731    9854.4999    79.644017    15.773307    29.668707 
 5188600    230.31772   -337.66564    229018.04   -23275.739    1525.4772   -24801.217     -814.798    9860.6919    79.644791    15.773694     29.66369 
 5188800    227.89843    -331.5963    229018.04   -23326.961    1509.4533   -24836.414   -829.63663    9857.1305    79.642739    15.769875    29.668672 
 5189000    229.56914   -307.16003    229018.04   -23319.288     1520.519   -24839.807   -732.07265    9857.5402    79.642621    15.768048    29.666699 
 5189200    231.80748   -420.73342    229018.04   -23340.604    1535.3444   -24875.948    -1172.044    9858.1067    79.641956    15.765751    29.668405 
 5189400    229.42643   -342.67858    229018.04   -23326.191    1519.5738   -24845.765   -877.98637    9859.2403    79.642084    15.765798    29.678743 
 5189600    226.28127   -231.98321    229018.04   -23314.106    1498.7423   -24812.848   -438.95831    9854.7209    79.641225    15.762558    29.676616 
 5189800    228.28185   -342.48692    229018.04   -23348.402    1511.9929   -24860.395   -907.88455    9858.8562    79.640514    15.758587    29.679884 
 5190000    229.57017   -369.95031    229018.04   -23324.247    1520.5259   -24844.773   -988.33459    9858.0137    79.639069    15.755097     29.68089 
 5190200    227.49141    -216.3269    229018.04   -23304.119    1506.7575   -24810.876   -361.72822    9854.4446    79.639292    15.751387    29.657148 
 5190400    221.54371     -404.134    229018.04   -23326.123    1467.3637   -24793.487   -1156.1957    9859.3309    79.637841    15.747397    29.668109 
 5190600    232.01928   -438.27496    229018.04   -23311.624    1536.7472   -24848.371   -1248.1648    9859.1301    79.638035    15.744745    29.678647 
 5190800    222.84254   -294.93424    229018.04   -23317.964    1475.9663   -24793.931   -705.66938    9857.4963    79.637497    15.741722    29.676675 
 5191000    221.56787   -393.45064    229018.04   -23423.517    1467.5238   -24891.041   -1093.9957    9857.9376    79.637289    15.737167    29.678789 
 5191200    224.29952    -356.9451    229018.04   -23353.328    1485.6165   -24838.944    -924.1861    9861.8227    79.636657    15.734722    29.671495 
 5191400    227.20494   -308.12116    229018.04   -23327.993    1504.8601   -24832.853   -773.54674    9858.5706    79.636099     15.73043    29.682799 
 5191600    221.55649   -342.39884    229018.04   -23342.413    1467.4484   -24809.861   -854.45683    9857.7942    79.635582    15.729112    29.676676 
 5191800    232.44888   -354.44352    229018.04   -23298.485    1539.5926   -24838.077   -920.05068    9858.3419    79.635305    15.726118    29.661415 
 5192000    229.02862    -250.5816    229018.04   -23298.114     1516.939   -24815.053   -487.58956    9856.8615    79.635638    15.721888    29.669865 
 5192200     226.9957   -385.57852    229018.04   -23331.999    1503.4743   -24835.473   -1071.8425    9856.1632    79.634682    15.719159    29.666396 
 5192400    224.06672   -393.39345    229018.04    -23380.36    1484.0745   -24864.435   -1057.2484    9857.6911    79.633174    15.714968    29.664778 
 5192600    227.42267   -330.02579    229018.04   -23370.628    1506.3022   -24876.931   -856.47691     9857.588    79.631834    15.713184    29.672794 
 5192800    227.51881   -352.83906    229018.04   -23292.459     1506.939   -24799.398   -890.03832    9857.1486    79.632948    15.711555    29.659928 
 5193000    225.24185   -376.28153    229018.04   -23328.924    1491.8579   -24820.782   -999.77841     9859.348    79.633597    15.712233    29.654056 
 5193200    228.06781    -304.8234    229018.04   -23316.958    1510.5752   -24827.533   -733.70008     9858.132     79.63256     15.71128    29.671146 
 5193400    224.49318   -412.35005    229018.04   -23284.093    1486.8991   -24770.992   -1153.1862    9858.2031    79.633514    15.711925    29.672176 
 5193600    230.10293   -284.10934    229018.04   -23332.859    1524.0545   -24856.914   -661.04741    9858.2999    79.633304    15.709116    29.665108 
 5193800    227.24315   -343.93681    229018.04   -23346.809    1505.1132   -24851.922   -883.21997    9858.0101    79.634312    15.707564    29.671649 
 5194000    227.71216   -341.74331    229018.04   -23345.161    1508.2196   -24853.381   -868.25341    9861.1137    79.636128    15.706739    29.675081 
 5194200    221.86068    -266.6158    229018.04   -23320.461    1469.4632   -24789.925   -619.69332    9859.7668     79.63903    15.706953    29.662493 
 5194400    225.30775   -242.58863    229018.04   -23316.897    1492.2943   -24809.192   -459.63236    9859.1319    79.640501    15.708227    29.676635 
 5194600    219.64147   -366.25151    229018.04   -23357.946    1454.7645    -24812.71   -953.09936    9859.5981    79.641765    15.707456    29.662053 
 5194800    218.82885   -325.68911    229018.04   -23372.571    1449.3822   -24821.953   -829.67978    9857.3522    79.642352    15.707256    29.667135 
 5195000     231.7493   -369.19804    229018.04   -23273.554     1534.959   -24808.513   -1017.0434     9859.863    79.642999    15.706947    29.672068 
 5195200    223.64745     -296.695    229018.04   -23337.798    1481.2976   -24819.096    -702.2938    9858.9663    79.643939    15.703726    29.669568 
 5195400    228.91476   -262.31354    229018.04   -23265.263    1516.1849   -24781.448   -537.86298    9859.6784    79.642153    15.704091    29.658874 
 5195600    227.71061   -347.31262    229018.04   -23312.157    1508.2093   -24820.367   -915.70874    9860.7108    79.641004    15.705242    29.650234 
 5195800    234.41012   -275.62163    229018.04   -23272.869    1552.5826   -24825.451   -599.46087    9859.9081    79.641612    15.706903    29.635656 
 5196000    231.02408   -341.74804    229018.04   -23278.433    1530.1556   -24808.589   -896.92096    9858.6942    79.643259    15.707575    29.649081 
 5196200    238.04875   -255.93327    229018.04   -23238.793    1576.6826   -24815.475    -515.4197    9858.1603    79.643876    15.706106    29.657829 
 5196400     226.6943   -343.34833    229018.04   -23295.578    1501.4779   -24797.056   -836.74444    9857.1058    79.644798    15.707924    29.647554 
 5196600    215.17236   -382.96965    229018.04   -23414.032     1425.164   -24839.196   -1055.7072    9857.7483     79.64554     15.70905    29.655351 
 5196800    232.69437   -313.37801    229018.04   -23312.776    1541.2186   -24853.994   -811.54581    9854.8543    79.647827    15.710139    29.645038 
 5197000    223.52918   -413.64166    229018.04   -23345.496    1480.5142   -24826.011   -1162.9906    9859.7729      79.6504     15.71118    29.650813 
 5197200     233.0462   -378.42914    229018.04   -23254.494    1543.5489   -24798.043   -1021.6835    9859.1437    79.653935    15.711074    29.656114 
 5197400    227.08899   -247.05362    229018.04   -23345.408    1504.0921   -24849.501   -467.31026    9855.2815    79.654231    15.711407    29.660294 
 5197600    225.58726   -357.60178    229018.04   -23325.929    1494.1456   -24820.075     -946.955     9857.678    79.653624    15.711047    29.654518 
 5197800    231.00397   -395.99647    229018.04   -23232.931    1530.0224   -24762.954   -1090.3995    9860.5119    79.652793    15.709012    29.661301 
 5198000    234.01119   -174.40128    229018.04   -23240.964    1549.9403   -24790.904   -204.26085    9855.5057    79.651639    15.710449    29.660228 
 5198200    228.45344   -388.64456    229018.04   -23295.635    1513.1294   -24808.764    -1088.143    9860.4555    79.650372    15.709056    29.675496 
 5198400    226.84183   -351.86295    229018.04   -23330.163    1502.4551   -24832.618   -895.27489    9857.0763    79.650883    15.708501     29.66876 
 5198600    223.31662   -178.31895    229018.04    -23389.58    1479.1064   -24868.686    -220.5106     9853.179    79.649215    15.707332    29.658884 
 5198800     220.3702   -358.87673    229018.04   -23371.704    1459.5912   -24831.295   -904.23756    9856.0424    79.649597    15.708982    29.649925 
 5199000    235.24871   -342.87675    229018.04   -23289.136    1558.1369   -24847.272   -880.81306    9857.0078    79.650168    15.709451    29.655205 
 5199200    230.28951   -269.35981    229018.04   -23313.439    1525.2903   -24838.729   -594.71023    9854.5963    79.651871    15.712022    29.655438 
 5199400     227.0106   -322.89318    229018.04   -23358.787    1503.5729    -24862.36   -806.71845    9854.5394    79.651834    15.714134    29.642296 
 5199600    228.48753   -321.92366    229018.04   -23317.616    1513.3552   -24830.971   -775.16274    9857.4465    79.652632    15.714597    29.643752 
 5199800    219.57939   -301.27119    229018.04   -23367.801    1454.3533   -24822.155   -744.95054    9858.7407      79.6538    15.713604     29.64642 
 5200000    228.71143   -415.68303    229018.04   -23287.964    1514.8382   -24802.802    -1160.408    9856.8124    79.654058     15.71497    29.645321 
Loop time of 7331.18 on 160 procs for 5200000 steps with 8943 atoms

Performance: 612.834 ns/day, 0.039 hours/ns, 709.299 timesteps/s
97.8% CPU use with 160 MPI tasks x no OpenMP threads

MPI task timing breakdown:
Section |  min time  |  avg time  |  max time  |%varavg| %total
---------------------------------------------------------------
Pair    | 0.25421    | 1521.5     | 5812.2     |5197.8 | 20.75
Neigh   | 0.32947    | 98.387     | 379.62     |1231.3 |  1.34
Comm    | 11.638     | 2022.2     | 5848.8     |4634.9 | 27.58
Output  | 89.237     | 89.311     | 91.153     |   1.6 |  1.22
Modify  | 221.29     | 3502.2     | 7142.5     |4980.4 | 47.77
Other   |            | 97.54      |            |       |  1.33

Nlocal:    55.8937 ave 177 max 0 min
Histogram: 72 2 45 1 0 0 0 0 4 36
Nghost:    539.475 ave 937 max 0 min
Histogram: 19 5 0 8 8 39 29 14 22 16
Neighs:    0 ave 0 max 0 min
Histogram: 160 0 0 0 0 0 0 0 0 0
FullNghs:  5608.99 ave 22158 max 0 min
Histogram: 93 27 0 0 0 0 0 2 18 20

Total # of neighbors = 897438
Ave neighs/atom = 100.351
Neighbor list builds = 559773
Dangerous builds = 0
write_data 		${DIR}/data.${NAME}_run
write_data 		run_11/data.${NAME}_run
write_data 		run_11/data.ibeam_cooling_11_run
Total wall time: 2:02:26
