
### Dimensions ###


### IMPORT ATOMS ###
read_data ../Box_Setup/data.Ibeam_240K
  orthogonal box = (0 0 0) to (157.504 36.4877 39.8503)
  8 by 2 by 4 MPI processor grid
  reading atoms ...
  8943 atoms
  reading velocities ...
  8943 velocities
group water type 2
2223 atoms in group water
group graphite type 1
6720 atoms in group graphite


# Define potential
#
pair_style          sw
pair_coeff * * MLC_e.sw C mW

# Add velocity/set timestep
#

fix		1 graphite setforce 0.0 0.0 0.0
velocity 	graphite set 0.0 0.0 0.0
velocity            water create ${START_TEMP} ${SEED} rot yes dist gaussian
velocity            water create 240 ${SEED} rot yes dist gaussian
velocity            water create 240 29015 rot yes dist gaussian
timestep            5.0

# Define output
#
compute 1 water msd
compute 2 water temp


thermo	            100
thermo_style custom step c_2 press vol etotal ke pe c_1[4] density

# Neighbor lists
#
neigh_modify        delay 0 every 1 check yes


# Set fixes
#
fix                 2 water momentum 10 linear 1 1 1 rescale
fix                 3 all nve
fix                 4 water temp/csvr ${START_TEMP} ${START_TEMP} 500.0 928347
fix                 4 water temp/csvr 240 ${START_TEMP} 500.0 928347
fix                 4 water temp/csvr 240 240 500.0 928347

# Run 0.05 ns equilibration
#
dump                1 all custom 100 ${DIR}/eq.${NAME}.dump id type x y z vx vy vz
dump                1 all custom 100 run_26/eq.${NAME}.dump id type x y z vx vy vz
dump                1 all custom 100 run_26/eq.ibeam_cooling_26.dump id type x y z vx vy vz
run                 10000
Neighbor list info ...
  update every 1 steps, delay 0 steps, check yes
  max neighbors/atom: 2000, page size: 100000
  master list distance cutoff = 6.67472
  ghost atom cutoff = 6.67472
  binsize = 3.33736, bins = 48 11 12
  1 neighbor lists, perpetual/occasional/extra = 1 0 0
  (1) pair sw, perpetual
      attributes: full, newton on
      pair build: full/bin/atomonly
      stencil: full/bin/3d
      bin: standard
Per MPI rank memory allocation (min/avg/max) = 0.5062 | 3.768 | 4.796 Mbytes
Step c_2 Press Volume TotEng KinEng PotEng c_1[4] Density 
       0          240   -163.35224    229018.04   -21211.582    1589.6064   -22801.188            0   0.87555383 
     100    248.83265   -249.88254    229018.04   -21180.901    1648.1082   -22829.009   0.85331389   0.87555383 
     200    237.74674   -369.25763    229018.04   -21212.424    1574.6823   -22787.106    1.2730749   0.87555383 
     300    243.71966   -396.56134    229018.04   -21197.492     1614.243   -22811.735    1.6274206   0.87555383 
     400     240.1113   -395.99802    229018.04   -21209.473    1590.3436   -22799.817    1.9626004   0.87555383 
     500    239.34659   -212.72186    229018.04   -21209.065    1585.2786   -22794.344    2.3774179   0.87555383 
     600    230.73235   -281.10844    229018.04   -21318.317    1528.2234    -22846.54    2.5784472   0.87555383 
     700    235.58627   -201.10031    229018.04   -21291.328    1560.3727     -22851.7    2.9470265   0.87555383 
     800    233.42397    -348.9019    229018.04   -21329.816     1546.051   -22875.867    3.1589435   0.87555383 
     900    230.79768   -68.897394    229018.04   -21287.142    1528.6561   -22815.798    3.5530676   0.87555383 
    1000    239.81679   -334.31184    229018.04   -21219.613    1588.3929   -22808.005    3.9489464   0.87555383 
    1100    232.20668   -388.20055    229018.04   -21219.491    1537.9884   -22757.479     4.287988   0.87555383 
    1200    233.02133   -317.22646    229018.04   -21259.322    1543.3842   -22802.706    4.5860666   0.87555383 
    1300    240.39332   -341.01214    229018.04   -21211.975    1592.2115   -22804.186    4.7764547   0.87555383 
    1400    241.83668   -211.06735    229018.04   -21135.157    1601.7714   -22736.928    5.3802824   0.87555383 
    1500    243.84077    -288.3917    229018.04   -21140.922    1615.0452   -22755.967    5.7431354   0.87555383 
    1600    248.56559   -210.65044    229018.04   -21130.319    1646.3394   -22776.659    6.1859604   0.87555383 
    1700    245.37603   -375.13921    229018.04   -21158.078    1625.2138   -22783.291    6.4634297   0.87555383 
    1800    244.74479   -336.72117    229018.04   -21173.219    1621.0328   -22794.252     6.871365   0.87555383 
    1900     250.8261   -350.83295    229018.04   -21099.687    1661.3115   -22760.999    7.2708782   0.87555383 
    2000    244.09226   -250.86739    229018.04   -21075.805    1616.7109   -22692.516    7.9059382   0.87555383 
    2100    239.31475   -351.09959    229018.04   -21090.484    1585.0677   -22675.551    8.2247926   0.87555383 
    2200    243.91484   -193.98454    229018.04   -21086.596    1615.5358   -22702.132    8.3653125   0.87555383 
    2300    248.10472   -273.64951    229018.04   -21129.031    1643.2868   -22772.317    8.7700155   0.87555383 
    2400    238.62564   -268.94936    229018.04   -21120.274    1580.5035   -22700.777    9.2061576   0.87555383 
    2500    246.70468   -252.88544    229018.04   -21112.717    1634.0139   -22746.731    9.4357055   0.87555383 
    2600    238.31807   -239.56349    229018.04   -21162.016    1578.4664   -22740.483    9.8845178   0.87555383 
    2700    241.54987   -173.70112    229018.04   -21138.852    1599.8717   -22738.724    10.341133   0.87555383 
    2800    241.73861     -317.448    229018.04   -21148.285    1601.1218   -22749.406    10.686976   0.87555383 
    2900    238.66075   -167.53105    229018.04   -21221.192     1580.736   -22801.928    11.085032   0.87555383 
    3000    235.44902    -244.8877    229018.04   -21245.001    1559.4636   -22804.465    11.377295   0.87555383 
    3100    241.16065   -261.47228    229018.04   -21243.193    1597.2938   -22840.487    11.588372   0.87555383 
    3200    236.14461   -339.57812    229018.04   -21275.226    1564.0707   -22839.297    12.047544   0.87555383 
    3300    235.24797   -320.73844    229018.04    -21237.99     1558.132   -22796.122    12.210215   0.87555383 
    3400     239.3311   -415.44808    229018.04   -21235.243     1585.176   -22820.419    12.440529   0.87555383 
    3500    232.01442   -409.60867    229018.04   -21235.008     1536.715   -22771.723    12.849856   0.87555383 
    3600    241.92479   -280.29012    229018.04   -21225.323     1602.355   -22827.678    13.091384   0.87555383 
    3700    234.91521   -200.02576    229018.04   -21250.442     1555.928    -22806.37    13.258331   0.87555383 
    3800    238.31314   -350.94653    229018.04   -21239.525    1578.4337   -22817.959     13.54798   0.87555383 
    3900    238.00132   -324.56985    229018.04   -21217.811    1576.3684   -22794.179    14.268298   0.87555383 
    4000    233.34672    -355.1543    229018.04   -21225.538    1545.5393   -22771.077    14.756453   0.87555383 
    4100    237.11963   -210.11134    229018.04     -21184.2    1570.5287   -22754.729    15.358756   0.87555383 
    4200    242.26453   -236.20631    229018.04   -21163.584    1604.6052   -22768.189      15.7436   0.87555383 
    4300    251.02762   -376.28162    229018.04   -21074.276    1662.6463   -22736.923     15.99506   0.87555383 
    4400    247.24556   -326.27539    229018.04   -21073.235    1637.5964   -22710.831    16.617058   0.87555383 
    4500    241.49018   -347.72911    229018.04   -21132.985    1599.4764   -22732.462    17.283213   0.87555383 
    4600    235.47683   -449.62167    229018.04   -21161.734    1559.6478   -22721.382    17.623175   0.87555383 
    4700    235.14928   -481.49107    229018.04   -21201.845    1557.4783   -22759.324    18.000806   0.87555383 
    4800    242.29218   -273.14198    229018.04   -21154.326    1604.7883   -22759.114    18.131598   0.87555383 
    4900    233.70622   -388.38307    229018.04   -21174.399    1547.9204   -22722.319    18.447377   0.87555383 
    5000    235.95304    -277.6907    229018.04   -21200.349    1562.8019    -22763.15    18.822058   0.87555383 
    5100    228.06544   -170.58497    229018.04   -21209.614    1510.5595   -22720.174    19.173167   0.87555383 
    5200    239.94369   -186.12544    229018.04   -21175.687    1589.2334    -22764.92    19.724365   0.87555383 
    5300     235.3566   -264.99521    229018.04   -21228.885    1558.8515   -22787.736    20.040701   0.87555383 
    5400    236.07384   -333.08818    229018.04   -21199.069     1563.602   -22762.671    20.509592   0.87555383 
    5500     239.5628   -392.39636    229018.04   -21221.233    1586.7107   -22807.944    20.931612   0.87555383 
    5600    238.48787   -166.91563    229018.04   -21250.248     1579.591   -22829.839    21.354614   0.87555383 
    5700    238.72767   -199.37909    229018.04   -21230.633    1581.1793   -22811.812    21.981472   0.87555383 
    5800    242.33371   -133.00784    229018.04   -21144.525    1605.0634   -22749.588      22.1254   0.87555383 
    5900    241.45392      -280.25    229018.04   -21164.269    1599.2362   -22763.505    22.310277   0.87555383 
    6000    233.35362   -299.49182    229018.04   -21244.245     1545.585    -22789.83    22.926686   0.87555383 
    6100    236.19597   -153.23448    229018.04   -21224.901    1564.4109   -22789.312    23.272315   0.87555383 
    6200    235.71876   -108.03302    229018.04    -21189.24    1561.2502   -22750.491    23.577984   0.87555383 
    6300    243.33919   -170.75977    229018.04   -21144.274     1611.723   -22755.997    23.966894   0.87555383 
    6400    244.55875   -149.36861    229018.04   -21142.798    1619.8006   -22762.598    24.335755   0.87555383 
    6500    242.35335   -350.32594    229018.04       -21176    1605.1935   -22781.194    24.434156   0.87555383 
    6600      239.954   -265.42101    229018.04    -21232.68    1589.3017   -22821.982    24.326975   0.87555383 
    6700    233.19542   -358.46229    229018.04   -21286.203    1544.5372    -22830.74    24.439956   0.87555383 
    6800    239.81384   -243.40048    229018.04   -21242.182    1588.3734   -22830.555    24.512174   0.87555383 
    6900    237.64144   -192.64688    229018.04   -21280.961    1573.9848   -22854.946    24.512919   0.87555383 
    7000    234.73215   -383.45204    229018.04   -21316.083    1554.7155   -22870.799    24.902208   0.87555383 
    7100    237.61212   -284.59823    229018.04   -21241.249    1573.7906    -22815.04    24.776825   0.87555383 
    7200    234.67012   -400.69686    229018.04   -21234.718    1554.3047   -22789.023     24.79546   0.87555383 
    7300    235.87742   -370.82976    229018.04   -21291.404    1562.3011   -22853.705    25.023824   0.87555383 
    7400    232.60513   -311.26293    229018.04   -21293.489    1540.6275   -22834.116    25.155591   0.87555383 
    7500    229.81667   -354.04875    229018.04   -21316.725    1522.1585   -22838.883    25.721098   0.87555383 
    7600    239.65724   -164.69134    229018.04   -21345.532    1587.3361   -22932.868    25.763559   0.87555383 
    7700    237.06154   -350.42307    229018.04   -21310.028    1570.1439   -22880.172    26.332461   0.87555383 
    7800    242.97541   -543.53534    229018.04   -21267.399    1609.3136   -22876.713    27.155452   0.87555383 
    7900    244.13863   -420.93758    229018.04   -21249.112     1617.018    -22866.13    27.387841   0.87555383 
    8000    244.26261   -226.77972    229018.04   -21245.107    1617.8392   -22862.946    27.581663   0.87555383 
    8100    236.12249   -247.97594    229018.04   -21275.732    1563.9242   -22839.657    27.867107   0.87555383 
    8200    238.77317    -52.18939    229018.04   -21290.329    1581.4807    -22871.81    28.306825   0.87555383 
    8300    231.38221   -254.50905    229018.04    -21283.51    1532.5277   -22816.038     28.87186   0.87555383 
    8400    236.62641   -293.32792    229018.04   -21280.918    1567.2619    -22848.18    29.379076   0.87555383 
    8500    235.95268   -380.28172    229018.04   -21277.561    1562.7995   -22840.361    29.848248   0.87555383 
    8600     236.9147   -405.43613    229018.04   -21208.949    1569.1714    -22778.12    30.403453   0.87555383 
    8700    235.67744   -285.67904    229018.04   -21268.357    1560.9765   -22829.334    30.825922   0.87555383 
    8800    240.94488   -389.39818    229018.04   -21210.443    1595.8646   -22806.308    31.067066   0.87555383 
    8900    235.69961   -294.92612    229018.04   -21233.872    1561.1234   -22794.995    31.134873   0.87555383 
    9000    241.56684     -201.676    229018.04   -21186.356    1599.9842    -22786.34    31.480465   0.87555383 
    9100    234.28418   -150.34097    229018.04   -21166.508    1551.7484   -22718.257    31.933938   0.87555383 
    9200    231.03825   -388.63192    229018.04   -21202.871    1530.2495    -22733.12    32.376036   0.87555383 
    9300    232.81304   -347.12957    229018.04    -21229.71    1542.0046   -22771.715    32.979615   0.87555383 
    9400    236.06155   -318.52901    229018.04   -21264.217    1563.5206   -22827.737    33.379299   0.87555383 
    9500    243.45158   -160.53166    229018.04   -21227.647    1612.4674   -22840.115    33.944221   0.87555383 
    9600    236.08862   -218.84061    229018.04   -21308.718    1563.6999   -22872.418    34.681792   0.87555383 
    9700    237.69335   -380.95724    229018.04   -21250.016    1574.3286   -22824.344    35.033651   0.87555383 
    9800    237.13525   -318.60999    229018.04   -21262.881    1570.6321   -22833.513    35.540379   0.87555383 
    9900    244.47134   -238.23024    229018.04   -21206.448    1619.2217    -22825.67    35.824235   0.87555383 
   10000    240.38279   -277.01277    229018.04   -21123.989    1592.1417    -22716.13     35.78526   0.87555383 
Loop time of 15.0293 on 64 procs for 10000 steps with 8943 atoms

Performance: 287.439 ns/day, 0.083 hours/ns, 665.368 timesteps/s
99.9% CPU use with 64 MPI tasks x no OpenMP threads

MPI task timing breakdown:
Section |  min time  |  avg time  |  max time  |%varavg| %total
---------------------------------------------------------------
Pair    | 0.00054356 | 3.6836     | 12.225     | 209.7 | 24.51
Neigh   | 0.00081158 | 0.25041    | 0.89724    |  62.2 |  1.67
Comm    | 0.023509   | 4.2697     | 12.653     | 189.1 | 28.41
Output  | 0.19306    | 0.19314    | 0.19388    |   0.0 |  1.29
Modify  | 0.29247    | 6.4994     | 14.677     | 239.2 | 43.24
Other   |            | 0.1331     |            |       |  0.89

Nlocal:    139.734 ave 439 max 0 min
Histogram: 25 11 12 0 0 0 0 0 0 16
Nghost:    822.234 ave 1338 max 0 min
Histogram: 8 0 4 0 0 5 23 8 4 12
Neighs:    0 ave 0 max 0 min
Histogram: 64 0 0 0 0 0 0 0 0 0
FullNghs:  14092.2 ave 53727 max 0 min
Histogram: 40 8 0 0 0 0 0 0 6 10

Total # of neighbors = 901898
Ave neighs/atom = 100.85
Neighbor list builds = 575
Dangerous builds = 0
write_data 	    ${DIR}/data.${NAME}_eq
write_data 	    run_26/data.${NAME}_eq
write_data 	    run_26/data.ibeam_cooling_26_eq

undump              1
unfix               4



################################################
#######         Run Simulation         #########
################################################

reset_timestep      0
timestep	    10.0
log                 ${DIR}/log.run_${NAME}
log                 run_26/log.run_${NAME}
log                 run_26/log.run_ibeam_cooling_26
