
# Set production fixes - Nose/Hoover
#
fix                 4 water temp/csvr ${START_TEMP} ${END_TEMP} 500.0 928347
fix                 4 water temp/csvr 240 ${END_TEMP} 500.0 928347
fix                 4 water temp/csvr 240 227 500.0 928347


## divide "droplet" into core and surface
#region		core_reg cylinder z 135 135 44.6 20 INF units box
#region		surface_reg cylinder z 135 135 44.6 20 INF units box side out
#group		core dynamic all region core_reg
#group		surface dynamic all region surface_reg

## compute pressure core
#compute        peratom_core core stress/atom NULL
#compute        p_core core reduce sum c_peratom_core[1] c_peratom_core[2] c_peratom_core[3]
#variable       press_core equal -(c_p_core[1]+c_p_core[2]+c_p_core[3])/(3*1249982.5)


## compute pressure surface
#compute        peratom_surf surface stress/atom NULL
#compute        p_surf surface reduce sum c_peratom_surf[1] c_peratom_surf[2] #c_peratom_surf[3]
#variable       press_surf equal -(c_p_surf[1]+c_p_surf[2]+c_p_surf[3])/(3*42395)

## compute total pressure of drop
compute        peratom water stress/atom NULL
compute        p water reduce sum c_peratom[1] c_peratom[2] c_peratom[3]
variable       press equal -(c_p[1]+c_p[2]+c_p[3])/(3*58301)


# compute order parameter
compute        3 all orientorder/atom nnn NULL cutoff 3.5

# compute center of mass of bridge
compute 	4 water com

# Run simulation
thermo_style        custom step c_2 press vol etotal ke pe v_press c_1[4] c_4[*]
thermo              200
dump		     1 water custom 400 ${DIR}/prod.${NAME}.dump id type x y z vx vy vz c_3[*] c_peratom[*]
dump		     1 water custom 400 run_26/prod.${NAME}.dump id type x y z vx vy vz c_3[*] c_peratom[*]
dump		     1 water custom 400 run_26/prod.ibeam_cooling_26.dump id type x y z vx vy vz c_3[*] c_peratom[*]
run                 ${STEPS}
run                 5200000
Neighbor list info ...
  update every 1 steps, delay 0 steps, check yes
  max neighbors/atom: 2000, page size: 100000
  master list distance cutoff = 6.67472
  ghost atom cutoff = 6.67472
  binsize = 3.33736, bins = 48 11 12
  2 neighbor lists, perpetual/occasional/extra = 1 1 0
  (1) pair sw, perpetual
      attributes: full, newton on
      pair build: full/bin/atomonly
      stencil: full/bin/3d
      bin: standard
  (2) compute orientorder/atom, occasional, copy from (1)
      attributes: full, newton on
      pair build: copy
      stencil: none
      bin: none
Per MPI rank memory allocation (min/avg/max) = 0.9066 | 5.942 | 7.203 Mbytes
Step c_2 Press Volume TotEng KinEng PotEng v_press c_1[4] c_4[1] c_4[2] c_4[3] 
       0    240.38279   -277.01277    229018.04   -21123.989    1592.1417    -22716.13   -611.56642     35.78526    78.597177    15.909247    29.715144 
     200     237.8848   -242.79917    229018.04   -21149.673    1575.5966    -22725.27   -463.10541    35.878256    78.595824    15.907208    29.716747 
     400     240.4706   -216.69408    229018.04   -21156.002    1592.7233   -22748.725   -351.87946     36.83303    78.596282    15.907495    29.753219 
     600    226.70902   -316.89064    229018.04   -21266.123    1501.5754   -22767.699   -746.64134    39.017289    78.596468    15.907037    29.782098 
     800    238.50537   -456.68386    229018.04   -21235.868    1579.7069   -22815.575   -1317.2792    39.455202    78.596215    15.905549    29.793992 
    1000    239.47635   -453.80673    229018.04   -21141.873    1586.1381   -22728.011   -1291.6316    40.876594    78.594792    15.906008    29.791823 
    1200    237.87516   -344.68969    229018.04   -21226.229    1575.5328   -22801.762   -890.01246    43.129581    78.595889    15.905267    29.795718 
    1400    250.24244   -254.08089    229018.04   -21080.961    1657.4457   -22738.407   -487.71421    44.888351    78.594859    15.903376    29.804412 
    1600    242.96576   -169.46146    229018.04   -21108.919    1609.2497   -22718.168   -205.56338    46.827783    78.592514    15.901414    29.815191 
    1800    241.76738   -302.86442    229018.04   -21170.048    1601.3124    -22771.36   -690.74616    48.881014     78.59083    15.899157    29.797548 
    2000    247.47521   -287.58356    229018.04   -21049.089    1639.1174   -22688.206   -623.18106    50.101554    78.591789    15.897203    29.791341 
    2200    241.58187    -371.5627    229018.04   -21054.391    1600.0837   -22654.474   -1005.5251    53.051925    78.592241    15.899147     29.77457 
    2400    242.66396   -263.13436    229018.04   -21089.317    1607.2508   -22696.568    -527.3315    56.433411    78.592282    15.898895     29.78752 
    2600    242.75787   -196.95186    229018.04    -21129.96    1607.8728   -22737.832   -295.70514    59.307394    78.591303    15.899616    29.759804 
    2800    248.65141   -268.83968    229018.04   -21072.685    1646.9078   -22719.593   -546.99751    58.864324    78.591749    15.899677    29.765564 
    3000    238.34406   -338.87604    229018.04   -21185.452    1578.6385   -22764.091   -835.53211    59.095319    78.593235    15.897505    29.740778 
    3200    234.73913   -353.16276    229018.04   -21199.518    1554.7617    -22754.28    -882.6592    58.460258    78.595973     15.89525     29.75086 
    3400    240.33302   -392.47065    229018.04   -21172.458    1591.8121    -22764.27   -1050.5228    58.682294    78.596772    15.894016    29.762587 
    3600      239.207   -318.05141    229018.04   -21162.784    1584.3541   -22747.138   -755.01151    58.779847    78.596665     15.89391    29.771032 
    3800    237.51012   -313.06831    229018.04   -21181.953     1573.115   -22755.068    -714.5221    59.957405    78.597271    15.893729    29.773876 
    4000    237.04547   -381.08887    229018.04   -21222.149    1570.0375   -22792.187   -1024.5195    61.978941    78.596517    15.893052    29.758949 
    4200    240.31391   -441.56564    229018.04    -21161.88    1591.6855   -22753.565   -1259.2927    62.470375    78.595322    15.892769    29.748084 
    4400    239.29937   -277.37182    229018.04    -21096.81    1584.9659   -22681.776   -541.49806    63.155389    78.595899    15.893262    29.760029 
    4600     241.7005   -163.66463    229018.04     -21145.8    1600.8694   -22746.669   -112.07988    64.498671    78.595976    15.892175    29.732917 
    4800    246.08993   -204.47222    229018.04   -21147.764    1629.9422   -22777.706   -288.81023     65.31959    78.595159    15.891835    29.741361 
    5000    237.46851   -371.64044    229018.04   -21189.167    1572.8394   -22762.006   -995.31149    65.859674    78.592569    15.892667    29.746987 
    5200    238.29551   -335.11544    229018.04   -21161.704    1578.3169   -22740.021    -829.3691     66.30019    78.590009    15.892929    29.746244 
    5400    244.25917    -251.0158    229018.04    -21186.23    1617.8164   -22804.047   -500.05629    66.951364    78.590077    15.893169    29.757266 
    5600    238.18891   -238.72033    229018.04   -21258.861    1577.6109   -22836.472   -422.24765     68.49186     78.59108     15.89092     29.74121 
    5800    248.59223   -302.22289    229018.04   -21105.892    1646.5158   -22752.408   -674.57756    69.843398    78.592208    15.885518    29.746541 
    6000    233.12952   -277.39408    229018.04   -21253.034    1544.1007   -22797.135   -602.59617    72.068316    78.593212    15.884897    29.737275 
    6200    238.09177   -250.34194    229018.04   -21183.218    1576.9675   -22760.186   -489.44582    73.398191    78.593687    15.883531    29.735658 
    6400    241.73668   -328.54552    229018.04   -21157.841    1601.1091    -22758.95   -757.37865    74.757076    78.594011    15.880783    29.720971 
    6600    236.60429    -266.5754    229018.04     -21226.6    1567.1154   -22793.715   -545.80234    76.675719    78.596232    15.880667    29.728806 
    6800    241.75642   -251.62461    229018.04   -21191.105    1601.2398   -22792.345   -494.14828    78.388768     78.59829    15.879268    29.704202 
    7000    236.19648   -440.64279    229018.04   -21211.937    1564.4143   -22776.351   -1243.5232     80.48341    78.599416    15.877537    29.694993 
    7200    243.46682   -417.07361    229018.04   -21128.417    1612.5684   -22740.985   -1104.8362    82.263914    78.598267    15.875502    29.700572 
    7400    239.73398   -352.58822    229018.04   -21197.727    1587.8445   -22785.571    -849.8728    83.974689    78.596666    15.875448    29.701766 
    7600    239.13909    -287.8114    229018.04   -21226.953    1583.9043   -22810.858   -616.85014    85.986145    78.594316    15.873328     29.70279 
    7800    242.26471   -107.48928    229018.04   -21105.716    1604.6063   -22710.322    46.198988    88.298709    78.596381    15.872436    29.686703 
    8000    244.45724   -381.04904    229018.04   -21111.104    1619.1283   -22730.233     -970.544    88.897983    78.596999    15.870888    29.722559 
    8200    239.85787   -286.00466    229018.04    -21204.59     1588.665   -22793.255   -619.52829    90.317161    78.598181    15.872096    29.748931 
    8400    233.26839    -249.1071    229018.04   -21216.559    1545.0205   -22761.579   -491.21097    91.869813     78.59698    15.872566     29.75316 
    8600    239.92629   -446.54534    229018.04   -21083.382    1589.1182     -22672.5   -1273.8124    91.692539    78.597952     15.87117    29.752175 
    8800    241.87225   -292.55395    229018.04    -21101.95     1602.007   -22703.957   -677.61659    92.807919     78.59758     15.87096    29.754106 
    9000     241.9199   -427.80204    229018.04   -21079.044    1602.3226   -22681.367   -1138.1678    94.416017    78.597967    15.871352    29.756837 
    9200    242.66519   -248.33497    229018.04   -21156.273    1607.2589   -22763.532     -448.907    95.916837    78.598044    15.872115    29.786274 
    9400    236.31987   -218.79324    229018.04   -21228.662    1565.2316   -22793.894   -375.73057     98.14716    78.599601    15.870547    29.783531 
    9600    230.04962   -302.36619    229018.04   -21247.017    1523.7014   -22770.718   -684.68539     98.95273    78.601372    15.869324    29.810906 
    9800     235.3491   -315.08794    229018.04   -21158.158    1558.8018    -22716.96   -774.28912    99.912287    78.601577    15.868564    29.805599 
   10000    242.28445   -280.99816    229018.04   -21006.296    1604.7371   -22611.033   -586.05205    101.58761    78.601738    15.866612    29.800129 
   10200    241.44941     -272.446    229018.04   -21064.435    1599.2063   -22663.642   -578.69704    104.33974     78.60148    15.866548    29.804102 
   10400    244.65177   -303.50693    229018.04   -21073.012    1620.4167   -22693.429   -710.20964    106.54827    78.599772    15.871048    29.772655 
   10600    237.40931   -174.27509    229018.04   -21055.415    1572.4473   -22627.862   -193.24647      108.133    78.599339    15.872727    29.771544 
   10800    242.16955   -335.72048    229018.04   -21074.531    1603.9761   -22678.507   -828.19835    110.63211    78.600842    15.873134    29.754217 
   11000    244.01126   -287.45365    229018.04   -21128.395    1616.1744   -22744.569   -662.66587    112.56433    78.602538    15.873305    29.750055 
   11200    236.34678    -348.3285    229018.04   -21115.768    1565.4098   -22681.178   -838.21826    112.16359    78.601821    15.875022    29.734311 
   11400    241.94862   -205.81435    229018.04   -21114.228    1602.5128   -22716.741   -326.86896    112.92308    78.600375      15.8763     29.75079 
   11600    239.97224   -220.06849    229018.04   -21057.389    1589.4226   -22646.811   -354.47421    112.90927    78.599127    15.876627    29.716925 
   11800    244.36701   -278.23222    229018.04   -21085.315    1618.5307   -22703.846   -636.94466    115.34522    78.600262    15.876075    29.719261 
   12000    251.09662   -373.84163    229018.04   -21038.551    1663.1033   -22701.654   -983.06181    118.19728    78.599382    15.874346    29.678508 
   12200    243.04393   -197.25094    229018.04   -21108.967    1609.7674   -22718.735   -287.87547    119.56312    78.598753    15.873991    29.688974 
   12400    248.38827   -153.13935    229018.04   -21020.033    1645.1649   -22665.197   -152.12967    119.53816    78.599667    15.871129    29.695193 
   12600    246.08515   -389.60348    229018.04   -21006.088    1629.9105   -22635.998    -1053.434    120.45117     78.59942    15.871195    29.690382 
   12800    237.90743   -152.21182    229018.04   -21118.438    1575.7466   -22694.185   -123.24509     121.2107    78.598766    15.872314    29.705671 
   13000     241.3206    -183.3924    229018.04   -21153.836    1598.3532    -22752.19   -231.65802    121.42399    78.599282    15.873779    29.718461 
   13200    234.98257    -263.8512    229018.04    -21096.01    1556.3741   -22652.384   -549.22286    123.65757    78.600759    15.874611    29.715694 
   13400    237.65192   -220.55464    229018.04   -21067.655    1574.0542   -22641.709   -368.94375    126.66169    78.603131    15.872843    29.742387 
   13600    249.34884   -208.18422    229018.04   -21123.617    1651.5271   -22775.145   -314.43253    128.44634    78.602833    15.871334    29.738425 
   13800    235.62224   -275.54994    229018.04   -21219.888    1560.6109   -22780.499   -593.82393    129.68653    78.601192    15.873376    29.747836 
   14000    238.85897   -334.75661    229018.04   -21151.474    1582.0489   -22733.522   -799.21702    131.53227    78.603502    15.873581    29.738548 
   14200    239.08257   -350.96085    229018.04   -21208.176    1583.5299   -22791.706   -886.29722    135.22824    78.604828    15.873353    29.720756 
   14400     230.8456   -207.13267    229018.04   -21257.754    1528.9735   -22786.727   -311.69175     135.8958    78.608134    15.874581    29.687832 
   14600    234.65996   -352.07679    229018.04   -21205.285    1554.2374   -22759.522   -884.09329    136.72137    78.609846    15.876926    29.680541 
   14800    234.48535   -177.99871    229018.04   -21138.432    1553.0809   -22691.513   -227.44347    137.18887    78.610587    15.878088    29.678953 
   15000    241.97022   -259.58757    229018.04   -21081.085    1602.6558   -22683.741   -535.93855    139.43124    78.613175    15.877305    29.668154 
   15200    242.94258   -257.85252    229018.04   -21160.338    1609.0962   -22769.434   -528.16005    141.57764    78.614139    15.879303    29.683782 
   15400     242.9756   -328.13132    229018.04    -21123.61    1609.3148   -22732.925   -813.30524    144.11331    78.613352    15.878817    29.678037 
   15600    239.02199   -281.38661    229018.04    -21200.17    1583.1287   -22783.298   -615.34543    146.55598    78.611677    15.878753     29.66132 
   15800    244.03559   -243.01698    229018.04   -21077.574    1616.3355   -22693.909   -442.77325    149.56127    78.611683    15.877591    29.653545 
   16000    237.18831   -363.19609    229018.04   -21129.544    1570.9835   -22700.528   -934.77326    151.18539    78.614663    15.876631    29.634735 
   16200    242.53119   -270.85413    229018.04    -21064.25    1606.3714   -22670.622   -586.65388    151.66387    78.613905    15.873403    29.616279 
   16400    246.74779   -163.54606    229018.04   -21066.005    1634.2994   -22700.304   -114.87556    152.80536    78.613643    15.870738    29.616792 
   16600    239.61365   -395.96083    229018.04   -21101.386    1587.0474   -22688.434   -1058.5884    154.46148    78.614958    15.869026    29.603302 
   16800    241.69609   -479.63289    229018.04    -21072.05    1600.8402    -22672.89   -1358.9231     156.4016    78.616317    15.867773    29.616816 
   17000    238.15383   -238.13849    229018.04   -21095.694    1577.3785   -22673.073   -461.75718     160.0222     78.61513    15.867452    29.612102 
   17200    241.29421   -358.82665    229018.04   -21126.121    1598.1784   -22724.299   -931.25284    162.04304    78.616293    15.867141    29.608319 
   17400    238.55181   -472.66475    229018.04   -21077.964    1580.0145   -22657.979   -1352.1595    164.52577    78.618642    15.865571    29.625998 
   17600    241.60035   -254.16626    229018.04   -21047.257    1600.2061   -22647.463     -503.794     165.4784    78.620208    15.867273    29.627686 
   17800    240.36408   -273.83211    229018.04    -21035.38    1592.0178   -22627.398   -573.61344    166.24804    78.621708    15.865153    29.639114 
   18000    240.18598   -480.25546    229018.04   -21031.031    1590.8382   -22621.869   -1406.4079    166.28125    78.620981    15.863383    29.633518 
   18200    242.89099   -375.11313    229018.04   -21084.185    1608.7545    -22692.94    -1020.839    167.12439     78.62206     15.85973    29.635586 
   18400    242.96816   -403.40785    229018.04   -21108.745    1609.2656    -22718.01   -1116.3419     167.9625    78.622056    15.859717    29.635565 
   18600    246.35013   -218.41891    229018.04   -21045.943    1631.6656   -22677.609    -376.7846    168.59312    78.620468    15.858737    29.651806 
   18800    239.64488   -291.91594    229018.04   -21098.095    1587.2543    -22685.35   -680.92902    168.54925    78.619135    15.858721    29.647369 
   19000    237.43355   -371.91034    229018.04   -21123.043    1572.6079   -22695.651   -963.11922    171.35266    78.617553    15.862218    29.665857 
   19200     238.8131   -165.62293    229018.04   -21142.075    1581.7451    -22723.82   -172.74988    173.93428    78.616585    15.863828    29.674666 
   19400    242.61611   -231.85905    229018.04   -21089.458    1606.9338   -22696.392   -459.64946    174.94354    78.617856    15.863361    29.685161 
   19600    241.57528   -297.50575    229018.04    -21128.34      1600.04    -22728.38   -692.10899    175.37549    78.614872    15.864022    29.677523 
   19800    238.04558   -263.10675    229018.04   -21122.935    1576.6616   -22699.596   -570.68048    174.85453    78.613736    15.864579    29.657036 
   20000    237.91926   -201.03208    229018.04   -21147.056    1575.8249    -22722.88   -280.94856    173.70329     78.61513     15.86521    29.655684 
   20200     235.2487   -120.78032    229018.04   -21138.822    1558.1368   -22696.959    7.9269548    172.07806     78.61597    15.866661    29.664799 
   20400    237.14404   -272.63648    229018.04   -21172.845    1570.6903   -22743.536   -606.01372    172.41782    78.616757    15.870105    29.662513 
   20600    239.00512   -219.34447    229018.04   -21128.415    1583.0169   -22711.432   -400.82692    173.61082     78.61692    15.872331    29.681178 
   20800    236.16565   -181.26474    229018.04   -21114.458    1564.2101   -22678.668   -224.35223    173.97643    78.616679     15.87196    29.674275 
   21000    239.40609   -165.68207    229018.04   -21127.753    1585.6727   -22713.426   -186.95912    177.12303    78.618385    15.873505     29.66439 
   21200    241.03046   -294.67322    229018.04   -21067.752    1596.4315   -22664.183   -669.36533    178.92402    78.616213    15.876762    29.645255 
   21400    240.13147   -301.31115    229018.04   -21175.597    1590.4771   -22766.074   -702.04191    179.63209    78.616115    15.877557    29.641335 
   21600     241.4962   -126.47243    229018.04   -21099.274    1599.5162   -22698.791   -43.623415    181.95687     78.61578      15.8757    29.623677 
   21800    246.51969   -264.43165    229018.04   -21111.782    1632.7887   -22744.571   -541.88252    182.41918    78.614075    15.874451    29.622261 
   22000     240.3756   -274.48688    229018.04   -21161.553    1592.0941   -22753.647   -638.63801    185.43407    78.615102    15.876413    29.632958 
   22200    245.01128   -154.92897    229018.04   -21148.739    1622.7979   -22771.537   -141.05587    187.73448    78.615978    15.877044    29.627077 
   22400    239.71227   -244.15769    229018.04   -21169.422    1587.7007   -22757.123   -469.30881    189.16583    78.616795    15.878191      29.6363 
   22600    236.03539   -175.73685    229018.04   -21156.973    1563.3474    -22720.32   -205.07169    190.79504     78.61877    15.881021    29.631004 
   22800    238.53643   -344.44094    229018.04    -21109.28    1579.9126   -22689.193   -873.47709    193.93724    78.619479    15.879702    29.641058 
   23000    240.20173   -343.50074    229018.04   -21181.382    1590.9425   -22772.324   -835.15042     195.0032    78.619251    15.877487    29.623333 
   23200    243.44466   -239.32806    229018.04     -21186.1    1612.4216   -22798.521    -484.8383    198.03992    78.620036    15.877417    29.600575 
   23400     243.7129   -249.26678    229018.04   -21111.919    1614.1983   -22726.118   -537.16686    200.51571    78.621626    15.877123    29.609376 
   23600    238.98811   -287.40353    229018.04    -21221.65    1582.9043   -22804.554   -657.24189    202.22199    78.622405    15.878411    29.621569 
   23800     238.8491   -419.09104    229018.04   -21216.581    1581.9836   -22798.564   -1135.7249    201.85718    78.622791    15.877016    29.609347 
   24000    237.11599    -199.5126    229018.04   -21102.584    1570.5046   -22673.088   -247.13412    202.34479    78.621315    15.874569    29.607629 
   24200    245.15298    -252.4205    229018.04    -21153.66    1623.7364   -22777.396   -539.54925    205.60516    78.622963    15.872003    29.599522 
   24400    237.95042   -400.84026    229018.04       -21063    1576.0313   -22639.031   -1104.5357    206.24863    78.623395     15.87027    29.588562 
   24600    238.14198   -517.48472    229018.04    -21132.64    1577.3001    -22709.94   -1537.8658    207.74913    78.625822    15.870499    29.583633 
   24800    240.63352   -288.03028    229018.04    -21075.27    1593.8024   -22669.073   -643.20223    210.94301    78.625511    15.871836    29.582499 
   25000    238.27117   -402.69252    229018.04   -21098.789    1578.1557   -22676.944   -1094.6373    212.59483    78.625214    15.871532    29.618036 
   25200    244.31459   -258.13363    229018.04   -21134.682    1618.1835   -22752.866   -526.60788    215.32935    78.624397    15.871647    29.625116 
   25400    239.17565   -413.51078    229018.04   -21133.845    1584.1464   -22717.992   -1126.5292    215.82777    78.624241    15.871304    29.631458 
   25600    244.04592   -174.26807    229018.04   -21118.649     1616.404   -22735.053   -209.12435    215.28864    78.622422    15.871519    29.627065 
   25800    239.14168   -410.81623    229018.04   -21189.667    1583.9214   -22773.589   -1167.0582    215.67397     78.62473    15.874403    29.616561 
   26000    238.62796   -319.43489    229018.04   -21224.668    1580.5189   -22805.187   -748.97363    214.39857    78.625058    15.873993    29.613054 
   26200    238.62274    -158.6329    229018.04   -21127.003    1580.4843   -22707.487   -126.05175    214.98372    78.625744    15.871218    29.619969 
   26400    238.96431   -481.76713    229018.04   -21200.102    1582.7466   -22782.849   -1413.9491     215.5952    78.624497    15.867081    29.626477 
   26600    241.90309    -357.5675    229018.04   -21169.325    1602.2112   -22771.536   -861.85043    217.36576    78.623902    15.866805    29.608703 
   26800    245.12462   -264.13588    229018.04   -21133.727    1623.5486   -22757.275   -502.89642     217.5242    78.622631    15.864453    29.607828 
   27000    240.92331    -267.1153    229018.04   -21142.747    1595.7218   -22738.469   -549.68336    218.50761    78.623021    15.864131    29.607355 
   27200    244.14783   -386.93905    229018.04   -21043.629     1617.079   -22660.708   -1018.8922    219.55111    78.622432    15.865543     29.60621 
   27400    243.80953   -336.11285    229018.04   -21097.472    1614.8383    -22712.31   -814.24761    220.68382     78.62563    15.863737     29.60035 
   27600    241.84761   -255.89205    229018.04   -21107.734    1601.8438   -22709.578   -533.56958    223.14584    78.626499    15.861892     29.58529 
   27800    231.23804    -256.4265    229018.04   -21224.889    1531.5728   -22756.462   -482.86426    224.41502    78.627656    15.859761    29.595158 
   28000    241.90192   -339.85948    229018.04   -21155.701    1602.2035   -22757.904   -856.73737    223.14474    78.627444    15.859616    29.593624 
   28200    242.66448   -365.30748    229018.04   -21069.888    1607.2542   -22677.142   -961.32188    225.28602     78.62791    15.860581     29.62528 
   28400    246.28971   -387.51726    229018.04   -21059.111    1631.2654   -22690.376   -1006.8776      228.157    78.627984    15.860516     29.63373 
   28600    240.23277   -171.77717    229018.04    -21099.57    1591.1481   -22690.718   -191.25782    228.99915    78.626952    15.857625    29.612054 
   28800    242.15487   -163.03052    229018.04   -21145.439    1603.8788   -22749.318    -161.2588    230.17339     78.62646    15.854345    29.608184 
   29000    247.92007   -255.66253    229018.04   -21100.111    1642.0639   -22742.174    -521.1454     232.3772    78.624287    15.854366    29.617949 
   29200    239.16828   -340.32417    229018.04    -21156.61    1584.0976   -22740.707   -871.24153    234.01234    78.623607    15.854161    29.624595 
   29400    241.69537   -199.80259    229018.04   -21119.579    1600.8354   -22720.414   -289.70072    233.46293    78.624319    15.856437    29.628213 
   29600    242.26853   -180.54658    229018.04   -21118.763    1604.6317   -22723.395    -247.6079    235.01516    78.624793    15.856858    29.622764 
   29800    242.49461   -356.24108    229018.04   -21064.848    1606.1291   -22670.977    -877.8922    238.25833    78.624247    15.858095    29.620615 
   30000    240.98103   -393.07343    229018.04   -21104.809    1596.1041   -22700.913   -1042.6035    240.71856    78.623656    15.858318    29.621841 
   30200    240.11103   -464.13102    229018.04   -21111.259    1590.3418   -22701.601   -1322.7664    243.74796    78.622544    15.855932    29.607059 
   30400    238.78412   -328.45136    229018.04   -21127.871    1581.5532   -22709.424   -807.40469    245.94517    78.622086     15.85347    29.635026 
   30600    232.19325   -266.39929    229018.04   -21214.821    1537.8995    -22752.72   -510.58416     246.5062    78.621027    15.853489    29.640676 
   30800    236.86507   -262.95779    229018.04   -21153.557    1568.8426     -22722.4   -592.21295    247.25375    78.620961    15.853986    29.628605 
   31000    241.28469   -462.36848    229018.04   -21110.232    1598.1153   -22708.347   -1338.9609    246.77725    78.622279    15.852899    29.630885 
   31200    239.89186     -350.306    229018.04   -21042.088    1588.8902   -22630.978   -898.38555    247.33547    78.620981    15.851406    29.618882 
   31400    243.55373   -358.71163    229018.04   -21009.155     1613.144   -22622.299   -887.24473    249.35071    78.619685    15.849731    29.630291 
   31600    247.32748   -271.62947    229018.04   -20988.913    1638.1389   -22627.051   -560.70028    249.22034    78.620102    15.852375    29.643671 
   31800    238.79573    -175.4286    229018.04   -21094.575    1581.6301   -22676.205   -229.51671    250.94208    78.621542    15.850245    29.656554 
   32000    240.23661   -262.11938    229018.04   -21114.069    1591.1736   -22705.243   -521.51747    252.69081    78.621521     15.84771    29.664691 
   32200    237.98118   -342.12712    229018.04   -21198.648     1576.235   -22774.883   -845.96125    252.74511    78.620957    15.845558     29.66477 
   32400    239.74747   -383.63109    229018.04   -21188.625    1587.9338   -22776.559   -978.37469    252.36214    78.619991    15.844625    29.695315 
   32600    244.32813    -318.7964    229018.04   -21199.625    1618.2732   -22817.898   -766.46051    253.64102    78.620957    15.845201    29.698086 
   32800    237.62428   -380.66064    229018.04   -21206.723    1573.8711   -22780.594   -995.70669    254.60269     78.62181    15.847672    29.706859 
   33000    236.25927   -399.63403    229018.04   -21168.069    1564.8302   -22732.899   -1077.7197    256.83452    78.624396    15.848456    29.702778 
   33200    240.70894   -419.73831    229018.04   -21178.526     1594.302   -22772.828   -1176.4829    257.75998    78.623928    15.848274    29.699348 
   33400    237.88235   -365.08785    229018.04   -21182.845    1575.5804   -22758.425   -957.08774     257.1401    78.622458     15.84757    29.700781 
   33600    237.59441   -374.51419    229018.04   -21244.109    1573.6733   -22817.782   -976.02366    260.16895    78.622323    15.848081    29.704687 
   33800    238.35289   -223.86567    229018.04   -21128.888     1578.697   -22707.585   -411.39204    261.90809    78.620441    15.850752    29.718226 
   34000     236.6747   -167.02522    229018.04   -21156.636    1567.5817   -22724.218    -175.2801    262.78121    78.620167    15.853993    29.743457 
   34200    239.38195   -225.05041    229018.04   -21169.582    1585.5128   -22755.095   -422.46668    263.45239    78.618317    15.855085    29.738529 
   34400    238.57598   -225.83711    229018.04   -21173.688    1580.1746   -22753.863   -372.22502    265.91279    78.619189    15.855688    29.730851 
   34600    242.89677   -292.10721    229018.04   -21165.286    1608.7927   -22774.079   -663.54409    269.67958    78.617387    15.852269     29.73391 
   34800    243.06377   -248.17041    229018.04   -21143.944    1609.8988   -22753.842    -473.9948    271.35544    78.618377    15.849895    29.733499 
   35000    233.79447   -311.87576    229018.04   -21111.851    1548.5049   -22660.356    -729.8492    273.97576    78.619168    15.850158    29.742773 
   35200    238.22968   -192.13367    229018.04   -21117.475    1577.8809   -22695.356    -260.4846    274.97982    78.617374    15.852242    29.747454 
   35400     244.4278   -342.54057    229018.04   -21072.517    1618.9333   -22691.451   -868.98168     276.8753    78.616726    15.854237     29.75604 
   35600    239.01812   -191.33609    229018.04   -21192.146     1583.103   -22775.249   -274.10941    278.04525    78.616207    15.857591    29.763205 
   35800    240.50461   -504.53737    229018.04   -21105.374    1592.9486   -22698.322   -1499.3999    280.54628    78.617058    15.857188    29.743276 
   36000    243.31566   -227.48079    229018.04   -21185.365    1611.5672   -22796.932   -385.52314    279.67793    78.615537    15.855976    29.724959 
   36200    240.95699   -345.08056    229018.04   -21184.938    1595.9449   -22780.883   -844.29081    281.95204    78.615371    15.856344     29.72883 
   36400    241.74363   -303.15938    229018.04   -21138.066    1601.1551   -22739.221   -698.73565    282.19575    78.615277    15.854931    29.733617 
   36600    233.34637   -47.262176    229018.04   -21178.676     1545.537   -22724.213     311.6871    282.97985    78.613972     15.85358     29.73571 
   36800    237.31956    -536.5483    229018.04   -21154.289    1571.8529   -22726.142   -1581.5658    287.34052    78.614171    15.854236    29.707014 
   37000    242.30032   -155.39626    229018.04   -21130.329    1604.8422   -22735.171   -110.13979    287.25401    78.615828    15.854908    29.677159 
   37200    231.88708   -261.58876    229018.04   -21211.818    1535.8716   -22747.689   -523.39771    289.02732    78.615585    15.853605    29.665506 
   37400     242.0387   -341.54336    229018.04   -21196.686    1603.1094   -22799.795   -824.31375    289.14295    78.613988    15.852031    29.640166 
   37600    237.11587   -421.99429    229018.04   -21136.192    1570.5037   -22706.696   -1146.1147    288.28281    78.613632     15.85096    29.635233 
   37800    234.78999   -319.38373    229018.04    -21180.24    1555.0986   -22735.339   -750.32682    290.70259    78.611069    15.853057    29.630109 
   38000    239.37374   -271.49498    229018.04    -21147.23    1585.4585   -22732.689   -597.56047    290.00238    78.610442    15.853843    29.629345 
   38200    239.58289    -372.3137    229018.04   -21154.618    1586.8437   -22741.462   -949.47847    289.84598    78.610335    15.855772    29.652001 
   38400    237.47499   -370.10744    229018.04   -21142.322    1572.8824   -22715.205   -939.42083    288.76815    78.610284    15.858284    29.668955 
   38600    235.67128   -393.03838    229018.04   -21134.633    1560.9357   -22695.569   -1010.0068    290.85417    78.608739    15.859234    29.670417 
   38800    236.47862   -265.86049    229018.04   -21147.459     1566.283   -22713.742   -537.58772    292.95571     78.60686     15.85863    29.664604 
   39000    239.22252   -377.28617    229018.04   -21102.285    1584.4569   -22686.742    -952.4302    293.30651     78.60684     15.85988    29.663438 
   39200    235.15317   -419.29433    229018.04   -21172.719    1557.5041   -22730.223   -1145.7526    294.32632    78.606747    15.857447    29.669215 
   39400    240.65068   -277.65942    229018.04   -21141.138    1593.9161   -22735.054   -618.52581    296.16493    78.607486    15.853104    29.660074 
   39600    233.93445   -285.63746    229018.04   -21146.239    1549.4321   -22695.671    -613.6509    298.43869    78.607309    15.852792    29.668368 
   39800    246.34901   -294.05766    229018.04   -20956.273    1631.6581   -22587.931   -626.76164     296.9885    78.607984    15.852594    29.667198 
   40000    241.45266   -297.60627    229018.04   -21067.878    1599.2279   -22667.106   -666.17685    296.26581    78.607615    15.851056    29.662311 
   40200    233.69852   -296.40792    229018.04   -21168.526    1547.8694   -22716.395    -711.7926    297.58695    78.606124    15.849475    29.659832 
   40400    246.65358   -234.65568    229018.04   -21052.679    1633.6755   -22686.354   -447.56695    296.96139    78.605008    15.846061    29.643605 
   40600    233.08084   -435.55524    229018.04   -21151.119    1543.7783   -22694.897   -1197.0079    299.23328    78.604108    15.843575    29.639307 
   40800    230.51363   -232.20243    229018.04   -21112.597    1526.7748   -22639.372   -429.08274     300.8487    78.603051    15.842047    29.661142 
   41000    238.90057   -412.72605    229018.04   -21035.232    1582.3245   -22617.556   -1139.7056     304.6247    78.601172    15.841867     29.65038 
   41200    243.14782   -99.381323    229018.04   -21032.307    1610.4555   -22642.762    104.05275    306.35712    78.601228    15.840881    29.640168 
   41400    242.25573   -156.04496    229018.04   -21089.917    1604.5469   -22694.464    -105.3606      307.197    78.600698    15.840604     29.64536 
   41600    247.79334    -308.7865    229018.04   -21002.231    1641.2245   -22643.455   -719.68607    308.10359    78.598792    15.841213    29.643657 
   41800    232.82466   -358.20752    229018.04   -21051.957    1542.0815   -22594.038   -924.12734    309.13305    78.599968     15.84205     29.63635 
   42000    239.05047   -337.28469    229018.04   -21084.656    1583.3173   -22667.973   -800.19995    310.46912    78.600793    15.845617    29.661734 
   42200    241.60564   -247.54021    229018.04   -21073.021    1600.2411   -22673.262   -468.70165    312.97622    78.598319    15.847568    29.667738 
   42400    239.64897   -72.867442    229018.04   -21060.676    1587.2814   -22647.957    194.66936    313.56809    78.597405    15.846845     29.66313 
   42600    240.41766   -324.90521    229018.04   -21098.901    1592.3727   -22691.274   -801.36488     315.2008    78.597371    15.845239    29.673997 
   42800    245.49859   -265.57098    229018.04   -20956.045    1626.0256    -22582.07   -575.91862    316.36534    78.597517    15.845819    29.676061 
   43000    250.40904   -293.00265    229018.04   -20967.403    1658.5492   -22625.952   -674.06671    318.11644    78.597499    15.846909    29.679817 
   43200    243.82666   -307.49825    229018.04   -21023.965    1614.9517   -22638.917   -724.91226    319.10656    78.597603    15.847637    29.651805 
   43400    242.04468   -253.56672    229018.04   -21085.183     1603.149   -22688.332   -484.07386    319.69625    78.597328    15.847097    29.661781 
   43600    235.65016   -287.96577    229018.04   -21118.436    1560.7958   -22679.232   -622.36784    319.38467    78.598158    15.848427    29.663649 
   43800    240.44701    -197.2025    229018.04   -21067.024    1592.5671   -22659.591   -269.10038    320.26925    78.596606    15.849644    29.667502 
   44000    234.80786   -150.89797    229018.04   -21123.692     1555.217   -22678.909   -120.72358    320.06794    78.596892    15.851688    29.671706 
   44200      244.961   -397.40296    229018.04   -21061.283    1622.4649   -22683.748   -1071.0924     322.0515    78.598222    15.853197    29.670753 
   44400    242.26176   -347.21594    229018.04   -21048.213    1604.5868   -22652.799   -859.74837    322.55543    78.599449    15.854985    29.674734 
   44600    236.15422   -353.96276    229018.04   -21056.639    1564.1344   -22620.773   -915.68787     324.2328    78.600766    15.854612    29.681954 
   44800    236.53491   -277.26015    229018.04   -21080.783    1566.6559   -22647.439    -569.9702    326.71265    78.599962    15.852386     29.68565 
   45000    235.49588   -488.68719    229018.04   -21111.708     1559.774   -22671.482   -1431.8871    327.71842      78.6017    15.849025     29.68275 
   45200    247.80443   -299.29601    229018.04   -20989.522    1641.2979    -22630.82   -695.86903    328.92329     78.60392    15.848532    29.679877 
   45400    243.72794   -386.87889    229018.04   -20920.267    1614.2979   -22534.565   -1041.2894    328.20324    78.602212    15.848748    29.694118 
   45600     247.8956   -371.98901    229018.04   -20907.613    1641.9018   -22549.515    -980.4798    329.90313     78.60157    15.848063    29.684065 
   45800    234.37769   -249.02673    229018.04    -21029.16    1552.3678   -22581.528   -459.50062    332.71556    78.602817    15.848623    29.670407 
   46000    244.28485   -266.19584    229018.04   -21019.959    1617.9865   -22637.945   -605.91958     334.5086    78.601926    15.848774     29.66727 
   46200    244.11744   -166.42215    229018.04   -20997.172    1616.8777    -22614.05   -130.01778    335.90536    78.602986    15.852654    29.679581 
   46400    245.00349   -366.50565    229018.04   -21001.228    1622.7463   -22623.975   -924.04654    337.13011    78.603851    15.854865    29.682718 
   46600     240.0941    -303.2771    229018.04   -21057.056    1590.2296   -22647.286   -689.44027     338.2476    78.603669    15.855906    29.684274 
   46800    241.53154   -293.81123    229018.04   -21011.556    1599.7503   -22611.306   -666.27869    340.01916    78.604392    15.859552    29.685605 
   47000    240.21494   -228.26784    229018.04   -20967.448      1591.03   -22558.478    -441.0189    340.41405    78.603337    15.861027    29.680723 
   47200    248.22289    -302.0815    229018.04   -21031.578    1644.0695   -22675.647   -702.40268    341.94786    78.600969    15.859439    29.666602 
   47400    242.67674   -236.26206    229018.04   -21059.472    1607.3354   -22666.808   -468.66083    343.91361     78.59939    15.857151    29.687768 
   47600     240.0178   -345.30029    229018.04   -21029.877    1589.7243   -22619.601   -884.51619    345.69307    78.596637    15.858698    29.719147 
   47800    243.98613   -325.36876    229018.04   -21051.348    1616.0079   -22667.356   -800.54025    346.02119    78.597335    15.860294    29.746989 
   48000    241.49421   -384.33415    229018.04    -21079.28    1599.5031   -22678.783   -1039.3955    346.55172    78.598125    15.861657    29.759368 
   48200    235.11983   -235.36923    229018.04   -21109.443    1557.2833   -22666.726   -434.54014    351.42535    78.598827    15.861264    29.763228 
   48400    239.03828   -246.20219    229018.04   -21125.541    1583.2366   -22708.778   -443.10008    353.85239     78.60083    15.856352    29.733134 
   48600     237.9717   -344.29469    229018.04   -21082.323    1576.1722   -22658.496   -837.50517    352.93982    78.603199    15.853783    29.701081 
   48800    240.51128   -250.05534    229018.04   -21081.617    1592.9928    -22674.61   -436.54419    353.05622    78.604657    15.855179    29.683319 
   49000    241.13668   -382.57476    229018.04   -21106.533     1597.135   -22703.668   -997.31754     353.6296    78.605515      15.8566    29.690696 
   49200     238.6998   -302.35768    229018.04   -21114.249    1580.9947   -22695.243   -694.14308    354.68279    78.603586    15.857437    29.700832 
   49400    244.73434    -303.5315    229018.04   -21123.462    1620.9636   -22744.426   -707.35635    356.81593    78.601492    15.856625     29.70408 
   49600    239.56609   -328.82232    229018.04   -21105.473    1586.7325   -22692.205   -806.48718     358.0941    78.600563    15.854465    29.710277 
   49800    239.09112   -186.72346    229018.04   -21114.367    1583.5866   -22697.953   -268.02984    358.58836    78.599371    15.851676    29.729186 
   50000    237.58657   -413.94353    229018.04   -21140.645    1573.6213   -22714.266   -1118.0605     358.6302    78.600098    15.850082    29.724102 
   50200    242.18879   -370.12357    229018.04   -21162.958    1604.1035   -22767.062   -927.39003    359.58297    78.601281    15.849394    29.698886 
   50400    243.04575   -127.40502    229018.04   -21160.789    1609.7795   -22770.568 -0.090198751    359.33169     78.60051     15.85145    29.690835 
   50600    239.01615   -178.91608    229018.04   -21194.948      1583.09   -22778.038   -207.70553    359.42331    78.599548    15.851469    29.703989 
   50800    244.72344    -420.9242    229018.04   -21214.111    1620.8914   -22835.003   -1156.8998    360.54935    78.599368    15.852207    29.700282 
   51000    238.15603   -500.90183    229018.04   -21153.372    1577.3931   -22730.766   -1473.1054    362.45628    78.598653    15.849381     29.66894 
   51200    237.91789   -208.00196    229018.04   -21140.104    1575.8158    -22715.92   -335.45079    362.19914      78.5986    15.850674    29.651814 
   51400    234.19302   -547.27787    229018.04   -21209.029    1551.1446   -22760.174    -1635.846    363.05348    78.601193    15.852324    29.632312 
   51600    239.53792   -249.24934    229018.04   -21166.794    1586.5459    -22753.34   -498.55899    364.09762    78.601417    15.851309    29.619733 
   51800    242.19715   -312.09142    229018.04   -21129.027    1604.1589   -22733.186   -733.97816    365.87197    78.599653    15.849916    29.633828 
   52000    248.26112   -374.35382    229018.04   -21147.105    1644.3228   -22791.427   -977.87585    367.71552    78.599461    15.851205    29.633461 
   52200    240.86274   -168.60185    229018.04   -21181.609    1595.3206   -22776.929   -169.15996    368.48057     78.59987    15.853236    29.637108 
   52400    243.82912   -248.94256    229018.04   -21159.098     1614.968   -22774.066   -469.26302    368.53526    78.601289    15.850316    29.629388 
   52600    242.87233   -307.70747    229018.04   -21131.063    1608.6309   -22739.694   -728.18614     368.6777    78.599793    15.847955    29.644285 
   52800    241.79931   -346.92908    229018.04   -21263.533    1601.5239   -22865.057   -851.51237    369.81138     78.59817    15.849203    29.645563 
   53000    241.83128   -385.24488    229018.04   -21245.077    1601.7356   -22846.813    -1010.948    370.92987    78.598015    15.853079    29.648646 
   53200    238.89955   -239.87574    229018.04   -21190.925    1582.3177   -22773.243   -418.45602    372.18165    78.596601    15.856102    29.658449 
   53400    234.04227   -256.54327    229018.04   -21173.148    1550.1462   -22723.294   -517.06068    372.59781     78.59463     15.85748    29.676629 
   53600    243.55262   -253.40226    229018.04   -21144.609    1613.1367   -22757.746   -494.05872    373.64408    78.596718    15.860341    29.650149 
   53800    240.26351   -287.92769    229018.04    -21146.38    1591.3517   -22737.731   -608.18553    373.30559    78.598532    15.862342    29.662919 
   54000    247.71227   -314.16318    229018.04   -21040.627    1640.6875   -22681.314   -753.56278    374.64329    78.596748    15.863143    29.653028 
   54200    238.99109   -364.01772    229018.04   -21139.998     1582.924   -22722.922   -964.92621    376.54741     78.59695     15.86281    29.643695 
   54400    230.25881   -236.20734    229018.04    -21215.39     1525.087   -22740.477   -426.43649    376.05821    78.596635    15.866336    29.662203 
   54600    241.04519   -305.21395    229018.04   -21178.494     1596.529   -22775.023     -712.289    377.86304    78.595877    15.868142    29.666801 
   54800    244.28168   -208.74464    229018.04   -21138.766    1617.9655   -22756.731   -334.96563    378.31521    78.592218    15.870686    29.652991 
   55000    241.02499   -306.76217    229018.04   -21176.386    1596.3953   -22772.782   -703.75783    378.51345    78.590367    15.870668    29.640245 
   55200    238.46318   -411.14643    229018.04   -21162.417    1579.4275   -22741.844   -1116.9614    378.49124    78.590055     15.86761    29.629057 
   55400     243.7077   -409.47251    229018.04   -21192.322    1614.1638   -22806.485   -1102.7883    380.94396    78.591049    15.868184    29.624748 
   55600    239.13996   -278.12683    229018.04   -21153.717      1583.91   -22737.627   -623.49377    380.00609    78.590288    15.869031    29.623095 
   55800    241.60247   -310.21308    229018.04   -21179.282    1600.2201   -22779.502   -690.27546    380.31345    78.590711    15.871259    29.617333 
   56000    238.27998    -267.8639    229018.04    -21180.59    1578.2141   -22758.804   -539.56688     380.2959    78.590118     15.87108     29.61898 
   56200     245.1656   -366.37252    229018.04   -21097.426      1623.82   -22721.246   -958.96989    380.79776     78.58782    15.871783    29.624367 
   56400     242.1115   -143.21914    229018.04   -21071.989    1603.5916   -22675.581   -58.853809    380.92696    78.585671    15.872467    29.629489 
   56600    234.05893   -463.59254    229018.04   -21196.941    1550.2565   -22747.198   -1342.1631    382.18683    78.584863    15.872469    29.648374 
   56800    242.35418   -277.73991    229018.04   -21177.247     1605.199   -22782.446   -609.63659    383.03324    78.586053    15.871641    29.628187 
   57000    235.07545   -336.62069    229018.04   -21236.963    1556.9893   -22793.952   -846.67749    383.54431    78.586738     15.87124    29.636445 
   57200    237.62433   -354.16581    229018.04    -21240.26    1573.8715   -22814.131   -918.86605    385.13645    78.588699    15.870407    29.640183 
   57400    229.62161   -226.51243    229018.04   -21248.342    1520.8666   -22769.209   -419.66477    384.82036    78.587255    15.868785    29.647594 
   57600    237.25669   -185.02375    229018.04   -21152.943    1571.4364    -22724.38   -250.81719    386.08186    78.587542    15.867209    29.670743 
   57800    242.30148   -267.05972    229018.04   -21140.716    1604.8499   -22745.566   -575.67249    385.13429    78.585947    15.865443    29.689147 
   58000    245.91012   -347.84413    229018.04   -21099.914    1628.7512   -22728.665   -893.71631    386.85392    78.583776    15.864383    29.708109 
   58200    243.57922   -235.21616    229018.04   -21123.791    1613.3128   -22737.103   -437.68273    386.02207    78.583055    15.862941    29.693867 
   58400    235.18958    -364.4158    229018.04   -21260.431    1557.7452   -22818.177   -986.71756    389.32434    78.582329    15.863344    29.716891 
   58600    243.90114   -219.99109    229018.04   -21192.476     1615.445   -22807.922   -402.39483    390.16385    78.580351    15.862055    29.723199 
   58800    239.26155   -352.75532    229018.04   -21234.534    1584.7153   -22819.249   -925.18115    390.50674    78.580273    15.861919    29.711498 
   59000    233.34164   -236.83122    229018.04   -21217.602    1545.5057   -22763.108   -456.48486    391.36418    78.580241    15.859801    29.680491 
   59200    235.02692   -269.76361    229018.04   -21204.033    1556.6679   -22760.701   -599.06073    394.25624    78.579193     15.86029    29.700134 
   59400     238.3821   -347.25976    229018.04   -21127.917    1578.8904   -22706.807    -886.8515     395.3229    78.579119    15.861318    29.722292 
   59600    243.82053   -479.71787    229018.04   -21044.966    1614.9111   -22659.878   -1383.8931     396.2961    78.579309    15.859816    29.714288 
   59800    244.09997   -311.35275    229018.04   -21015.977     1616.762   -22632.739   -759.15759    396.00309    78.580211     15.85962    29.733859 
   60000    236.33512   -73.481264    229018.04   -21140.825    1565.3326   -22706.158    180.91468    395.89794    78.581021    15.861046    29.751783 
   60200    242.69027    -347.8213    229018.04   -21069.909     1607.425   -22677.334   -848.72119    399.36168    78.581362    15.859978    29.758137 
   60400    242.56223   -347.13333    229018.04   -21151.395     1606.577   -22757.972   -885.00808    400.23266    78.581775    15.858346    29.757368 
   60600    238.31498   -277.95949    229018.04   -21174.141    1578.4459   -22752.587   -589.26004    399.64533    78.580245    15.857637    29.762164 
   60800      237.531   -327.66222    229018.04   -21196.381    1573.2533   -22769.634   -784.97264     402.9984    78.578493    15.856114    29.751889 
   61000     234.3711   -307.82542    229018.04   -21144.277    1552.3241   -22696.602   -726.59849    404.18938    78.577523    15.854943    29.756966 
   61200    235.77461   -244.22157    229018.04   -21247.481    1561.6201   -22809.101   -455.89758    405.17698    78.576643    15.852317    29.766507 
   61400    238.59136   -95.539932    229018.04   -21166.567    1580.2765   -22746.844    104.43535    405.80937    78.574435    15.854167    29.793456 
   61600    238.36128   -353.04046    229018.04   -21116.958    1578.7525    -22695.71   -849.48062     406.6026    78.574157     15.85467    29.793004 
   61800    244.19063   -238.03299    229018.04   -21060.003    1617.3625   -22677.365   -434.39199    408.22412    78.573524    15.855102    29.803131 
   62000    232.08368   -314.86471    229018.04   -21146.536    1537.1738    -22683.71   -750.48842    408.40611     78.57152    15.856506    29.797264 
   62200     235.8866   -293.91724    229018.04   -21064.215    1562.3619   -22626.577   -657.36772    410.17437    78.570451     15.85869    29.809812 
   62400    246.65977   -206.33586    229018.04   -21037.427    1633.7165   -22671.143   -324.31069    412.46214    78.570507    15.857771    29.796289 
   62600    235.12215   -296.86286    229018.04   -21005.395    1557.2986   -22562.694   -663.73615    413.38461    78.570982    15.856288    29.778579 
   62800    244.27695   -383.97639    229018.04   -21032.208    1617.9342   -22650.142   -1029.2348    417.30897    78.571725    15.855471    29.781355 
   63000    236.43614   -331.25181    229018.04   -21102.112    1566.0017   -22668.114    -804.2558    417.25445    78.570679    15.853374    29.801969 
   63200    235.94659   -222.43725    229018.04   -21206.227    1562.7592   -22768.986   -415.20058    418.98555     78.57232     15.85002    29.810971 
   63400    237.13554   -370.18174    229018.04   -21097.043    1570.6341   -22667.677   -965.91142    420.76276     78.57233    15.851937     29.82026 
   63600    238.84539   -345.64629    229018.04   -21066.589     1581.959   -22648.548   -859.32693    422.94699    78.571424    15.851181    29.815121 
   63800    244.43635    -225.6654    229018.04   -21030.818    1618.9899   -22649.808   -384.11496    425.39667    78.571267    15.852413    29.835106 
   64000    237.92306   -279.10892    229018.04   -21108.556    1575.8501   -22684.406   -636.78612    426.92815    78.571733    15.853294    29.821005 
   64200    240.88404   -219.52136    229018.04   -21079.805    1595.4617   -22675.267   -362.83209    426.62085    78.571481    15.854801    29.819472 
   64400     238.4688   -291.34189    229018.04   -21037.636    1579.4647   -22617.101   -637.47041     428.9197    78.570431    15.857789    29.837114 
   64600     241.7599    -291.2605    229018.04   -21120.513    1601.2628   -22721.776   -659.52223    431.24553    78.568422     15.85792    29.849787 
   64800       244.74   -235.36335    229018.04    -21037.85    1621.0011   -22658.851   -462.37871    432.82054    78.568099    15.859437    29.864116 
   65000    238.56924   -342.75799    229018.04   -21090.129    1580.1299   -22670.259   -864.28775    434.72105    78.567544    15.862079    29.873372 
   65200     240.0371   -365.92172    229018.04   -21106.756    1589.8521   -22696.609   -962.09495     437.6153    78.568692    15.864512    29.865861 
   65400    241.95348   -239.29855    229018.04   -21041.943     1602.545   -22644.488    -456.6069     438.2174     78.56951    15.866269    29.870333 
   65600    243.52004   -337.35056    229018.04   -21028.322    1612.9209   -22641.243   -822.67571    440.52745    78.570303    15.867017    29.859484 
   65800     234.3142   -194.63574    229018.04   -21100.433    1551.9473    -22652.38   -291.71505    442.06102    78.571756    15.865676     29.86066 
   66000    236.82669   -387.64125    229018.04   -21144.238    1568.5884   -22712.827   -1012.2564    444.09998    78.572306    15.866458    29.851992 
   66200    238.79583   -318.56686    229018.04   -21084.973    1581.6307   -22666.604   -760.36208    445.39888    78.573077    15.865649    29.857094 
   66400    236.73428   -341.02718    229018.04   -21144.436    1567.9763   -22712.413   -856.96683    444.37168    78.574049    15.865421    29.837946 
   66600    236.41229   -146.18079    229018.04   -21118.144    1565.8437   -22683.987   -107.78402    442.49974    78.574182    15.864091    29.828554 
   66800    239.28972   -307.75084    229018.04   -21188.651     1584.902   -22773.553   -746.61914    443.30694    78.577214    15.862151     29.79965 
   67000    233.22763   -445.85022    229018.04   -21142.134    1544.7505   -22686.885   -1235.9337    441.99925     78.57861    15.857084    29.799824 
   67200    241.07593    -272.2091    229018.04   -21152.005    1596.7327   -22748.737   -575.55194    442.90405      78.5826    15.854372    29.787558 
   67400    242.06096    -256.8571    229018.04   -21082.591    1603.2569   -22685.848    -472.0737    443.65969    78.582243    15.856612    29.792031 
   67600    239.01819   -254.61425    229018.04   -21180.571    1583.1035   -22763.674    -540.0592    445.87169    78.583151    15.858988    29.808973 
   67800    236.21625    -137.4035    229018.04    -21156.13    1564.5452   -22720.675   -66.035331    447.23955    78.583366    15.859372    29.826508 
   68000    243.86212   -299.21884    229018.04   -21143.337    1615.1866   -22758.524   -691.42747    449.51309    78.582454    15.859805    29.821801 
   68200    239.49837   -302.77484    229018.04   -21174.501    1586.2839   -22760.785   -713.79751    449.63027      78.5818    15.859635    29.801489 
   68400    247.59136   -249.06677    229018.04   -21064.052    1639.8867   -22703.939   -467.86283    452.70489    78.579266    15.858235    29.800564 
   68600     241.1526   -367.35265    229018.04   -21087.595    1597.2405   -22684.835   -952.82824    454.29805    78.578453      15.8581    29.799442 
   68800    245.72226   -412.49501    229018.04   -21085.809    1627.5069   -22713.316   -1107.1111     454.8571    78.579583    15.856404     29.82049 
   69000    240.45655   -416.21838    229018.04   -21066.358    1592.6303   -22658.988   -1103.0935    455.74084    78.582282     15.85479    29.802398 
   69200    245.99198   -418.16517    229018.04   -21110.018    1629.2934   -22739.312   -1107.4439    457.28527    78.581417    15.851256    29.825962 
   69400    239.66783   -383.16423    229018.04   -21133.925    1587.4063   -22721.332   -990.47147    459.95741    78.581633    15.849091    29.817439 
   69600     237.9164   -353.22653    229018.04   -21120.473     1575.806   -22696.279   -856.87108    457.95145    78.577979    15.845963    29.818192 
   69800    239.23869   -364.88284    229018.04    -21102.08    1584.5639   -22686.644   -891.61177    459.41543    78.577652    15.847314    29.820065 
   70000     238.1786   -264.08077    229018.04   -21159.227    1577.5426    -22736.77   -505.15522    459.97352    78.578742    15.848291    29.824356 
   70200    237.82651   -321.45718    229018.04   -21153.915    1575.2106   -22729.126   -742.92411    462.89257    78.577417    15.848766    29.817082 
   70400    233.90522   -299.40605    229018.04     -21131.8    1549.2385   -22681.039   -665.62511    464.83091    78.576511    15.847895    29.823189 
   70600    237.54039   -366.39512    229018.04   -21077.024    1573.3155   -22650.339   -921.50565    465.60923    78.578952    15.847299    29.813244 
   70800    239.51977   -324.11786    229018.04    -21104.12    1586.4257   -22690.546   -768.91738    467.58577     78.57998    15.845147    29.808517 
   71000    242.89763   -373.25838    229018.04   -21043.876    1608.7984   -22652.675   -973.31299    469.89871     78.58023    15.844405    29.799255 
   71200    244.95556   -160.65561    229018.04   -20929.034    1622.4289   -22551.462   -140.53145    471.16082    78.580535     15.84418    29.799702 
   71400    247.98318    -222.7802    229018.04   -21017.275    1642.4819   -22659.757   -390.52846    473.92718    78.580674    15.841879    29.812388 
   71600    239.06081   -250.34634    229018.04   -21096.676    1583.3858   -22680.062   -484.61799    476.66761    78.580979    15.841392    29.798746 
   71800     236.7538   -215.30916    229018.04   -21105.518    1568.1056   -22673.623   -358.89895    477.38797    78.580555    15.838285    29.807188 
   72000    242.06776   -361.93225    229018.04   -21104.028    1603.3019    -22707.33   -941.50813    478.96625    78.582622     15.83601     29.81754 
   72200     241.6274   -287.91618    229018.04   -21094.834    1600.3852    -22695.22   -649.94413    477.70222    78.582463    15.834636    29.823812 
   72400    240.13677   -89.734089    229018.04   -21036.754    1590.5122   -22627.267    199.36633    478.93695    78.583489    15.833497    29.814687 
   72600    243.38227   -223.71328    229018.04   -21067.643    1612.0084   -22679.652   -390.73026    480.78897    78.584065    15.832833    29.825045 
   72800     243.0473   -274.94016    229018.04   -21115.866    1609.7897   -22725.656   -570.57961    481.60058    78.583981     15.83237    29.842003 
   73000    231.96638   -392.20971    229018.04   -21149.081    1536.3968   -22685.477    -1075.762    481.69751      78.5841    15.830226    29.842581 
   73200     245.3736   -344.74301    229018.04   -21049.604    1625.1977   -22674.802   -839.26822    480.95607    78.583005    15.828072    29.828979 
   73400    244.05745   -123.83691    229018.04   -21035.314    1616.4804   -22651.794   -4.2988061    482.91271    78.582923    15.826722    29.802406 
   73600    240.12528   -265.81097    229018.04   -21086.818    1590.4362   -22677.254    -524.7122    485.89121     78.58248    15.827561    29.800897 
   73800    246.39113   -216.59387    229018.04   -21065.321    1631.9372   -22697.258   -367.53566    487.89839    78.579863    15.827629    29.795322 
   74000    244.88432   -231.39078    229018.04   -20987.184     1621.957   -22609.141     -415.565    487.83511    78.578895    15.828609    29.791657 
   74200    238.90524   -347.77103    229018.04   -21049.746    1582.3554   -22632.101   -834.03094    488.80691    78.576488    15.830277    29.767455 
   74400    239.30639    -262.1321    229018.04   -21087.206    1585.0123   -22672.218   -535.57842    489.72585    78.575145    15.834755    29.755352 
   74600    239.69828   -366.69932    229018.04   -21120.436     1587.608   -22708.044   -962.25652    491.81224    78.574608    15.835354    29.760027 
   74800    236.49692   -227.23962    229018.04   -21031.389    1566.4042   -22597.793   -425.42634    493.85662    78.576122     15.83663    29.759683 
   75000    236.40036   -314.04841    229018.04   -21080.565    1565.7647   -22646.329   -757.94708    497.18009     78.57864    15.837153    29.763578 
   75200    244.64084   -362.55404    229018.04   -21049.071    1620.3443   -22669.416   -900.17581     498.8066    78.578105    15.835788    29.765542 
   75400     237.6472   -318.76084    229018.04   -21041.585    1574.0229   -22615.608    -752.7946    498.00656    78.577708    15.835478    29.770582 
   75600    244.01673    -274.7816    229018.04   -21049.208    1616.2106   -22665.418   -570.61389    499.74206    78.578412    15.833433    29.774769 
   75800    243.12396    -426.0311    229018.04   -21062.036    1610.2975   -22672.334   -1168.2424    502.19086    78.578453    15.833207    29.751791 
   76000     244.5019   -202.81949    229018.04   -21076.753    1619.4241   -22696.177   -303.45335    502.86596    78.578091    15.833561    29.718699 
   76200     237.7137   -304.39219    229018.04   -21125.774    1574.4634   -22700.237   -753.87634    505.38216    78.578438    15.834249    29.692804 
   76400     238.0004   -359.21309    229018.04   -21184.219    1576.3623   -22760.581   -891.36965    506.76479    78.579353    15.835138    29.678848 
   76600    236.97731   -125.63705    229018.04   -21148.045     1569.586   -22717.631   -22.862025    504.17166    78.578574    15.838184     29.67191 
   76800    243.81571   -563.18989    229018.04   -21032.157    1614.8792   -22647.036   -1716.8747    507.47901    78.578889    15.840183    29.698301 
   77000     237.2048   -285.85707    229018.04   -21152.734    1571.0927   -22723.826   -612.54936    507.30269    78.580456    15.839009    29.670614 
   77200    242.46901   -105.14191    229018.04   -21158.135    1605.9595   -22764.094    55.805559    507.96119    78.580228    15.838543    29.673257 
   77400     239.7846   -259.91488    229018.04   -21161.525    1588.1797   -22749.705   -526.94739    509.49107    78.580837    15.837383    29.661551 
   77600    240.74527   -368.68775    229018.04   -21155.335    1594.5426   -22749.877   -954.38353    510.56481    78.582646    15.836333    29.666281 
   77800    240.72768   -257.17826    229018.04   -21184.626     1594.426   -22779.052   -523.21342    510.17771    78.582259    15.837353     29.66324 
   78000    233.13912   -350.52022    229018.04   -21189.781    1544.1643   -22733.945   -895.44244     512.0541     78.58297    15.836873    29.659691 
   78200    238.15938   -293.47945    229018.04   -21100.892    1577.4153   -22678.307   -657.74474    512.71605    78.583726    15.837718    29.653046 
   78400    236.49943     -129.638    229018.04   -21122.832    1566.4208   -22689.252   -27.382032    513.93016    78.582412    15.837564    29.639692 
   78600    232.14593   -393.81225    229018.04   -21198.541    1537.5861   -22736.127   -1047.0926    516.60232    78.581111    15.837517    29.647763 
   78800    237.26548   -136.97214    229018.04   -21207.128    1571.4947   -22778.623    -70.86824    519.62414    78.579947    15.838648    29.630398 
   79000    234.77817   -381.27929    229018.04   -21139.589    1555.0203   -22694.609    -991.8306     521.4636    78.580068    15.836099    29.648314 
   79200    242.97573   -348.21021    229018.04   -21101.472    1609.3157   -22710.788   -872.03989    522.98604    78.580657    15.831714    29.676993 
   79400    234.54668   -254.51021    229018.04   -21142.419    1553.4871   -22695.906   -519.78044    527.53522    78.580544    15.828272    29.683924 
   79600    238.95984     -352.225    229018.04   -21116.723     1582.717    -22699.44   -879.94942    525.55387    78.580881    15.827887    29.667607 
   79800     236.6027   -201.35741    229018.04   -21118.985    1567.1049   -22686.089   -307.60081    528.56855     78.58138     15.82714    29.653672 
   80000     237.8789    -221.9114    229018.04   -21162.363    1575.5576    -22737.92   -408.03016    530.20065     78.57997    15.824478    29.661768 
   80200    239.41316    -300.5252    229018.04   -21130.041    1585.7195   -22715.761    -702.3447    533.27705    78.579125    15.823598    29.664048 
   80400    231.81081   -296.79843    229018.04   -21212.784    1535.3664    -22748.15   -642.74942    533.81453    78.579025    15.823769    29.669331 
   80600    242.01171   -313.14057    229018.04   -21038.252    1602.9306   -22641.182   -737.31226    534.52343    78.579354    15.823316    29.645836 
   80800    234.71143   -411.77949    229018.04   -21128.911    1554.5783    -22683.49   -1128.0789     531.4539    78.578719    15.823445    29.636399 
   81000    242.92037   -479.44971    229018.04   -21095.411    1608.9491    -22704.36    -1370.443    531.10867    78.579936    15.824811    29.628154 
   81200    240.24873   -241.15601    229018.04   -21118.011    1591.2538   -22709.265   -424.66427    529.99686    78.583415     15.82648    29.630594 
   81400    240.96305   -188.97472    229018.04   -21217.261     1595.985   -22813.246   -245.16589    530.14988     78.58458    15.823701    29.634977 
   81600    246.28393   -281.03839    229018.04    -21089.75    1631.2271   -22720.977   -648.22685    532.87823      78.5859    15.823048    29.644166 
   81800    242.24059   -425.36651    229018.04   -21077.413    1604.4466    -22681.86   -1131.4817    535.05898    78.585795    15.822908    29.665207 
   82000    248.36293   -373.18543    229018.04   -21054.034     1644.997   -22699.031    -958.1704    536.32289    78.584692    15.823693    29.685046 
   82200    236.54284   -508.61689    229018.04   -21148.874    1566.7084   -22715.583   -1448.7648    535.79415    78.586177     15.82438    29.700316 
   82400    236.20749   -335.96511    229018.04   -21176.948    1564.4872   -22741.435   -869.26081    536.94973    78.587925    15.828177    29.688252 
   82600    240.48146   -247.97342    229018.04   -21113.705    1592.7953     -22706.5   -438.08763     533.1514    78.589895     15.82846    29.682179 
   82800    239.93399   -331.30497    229018.04   -21087.075    1589.1691   -22676.244    -830.5019    533.87277    78.588192    15.828128    29.678892 
   83000    239.95624   -384.87157    229018.04   -21154.336    1589.3166   -22743.652   -1002.7075    534.80992    78.587971    15.828379    29.688865 
   83200    234.24455    -351.2606    229018.04   -21137.637     1551.486   -22689.123   -903.83452    532.36386    78.587656     15.82775     29.68236 
   83400     238.9356   -368.99016    229018.04   -21166.995    1582.5565   -22749.551   -929.05099    533.25492    78.588607    15.828887    29.678391 
   83600    243.62314   -198.42959    229018.04   -21125.745    1613.6038   -22739.349   -252.74554    534.23515    78.588341    15.827934    29.664322 
   83800    236.57251   -269.23842    229018.04   -21165.179    1566.9049   -22732.084   -550.13485    536.11406    78.590419    15.830689    29.671975 
   84000      240.505   -319.51934    229018.04   -21184.723    1592.9512   -22777.674   -750.17284    540.27707    78.590088    15.830366     29.67761 
   84200    241.94248   -230.21777    229018.04   -21240.269    1602.4722   -22842.741   -383.38696    542.42805    78.588408    15.828945    29.657595 
   84400    237.68138   -300.05023    229018.04    -21198.87    1574.2493   -22773.119   -657.77239    545.23079    78.585775    15.828738    29.661979 
   84600     236.7156   -220.31566    229018.04    -21203.13    1567.8526   -22770.983   -358.50334     543.8946    78.583779    15.831874    29.664077 
   84800    237.17743   -277.45173    229018.04   -21222.279    1570.9115   -22793.191   -594.11414    544.56381    78.582625     15.83475     29.67666 
   85000    241.90585   -345.11032    229018.04   -21158.878    1602.2295   -22761.108   -832.57121    545.23529    78.584954    15.836747    29.689449 
   85200    245.87712   -209.24347    229018.04   -21096.621    1628.5327   -22725.154   -309.31329    544.14022    78.583092    15.837703    29.695182 
   85400    241.20725   -387.90183    229018.04   -21124.523    1597.6024   -22722.126   -990.15295    545.17355    78.582494    15.836577    29.697556 
   85600    237.08067   -327.92899    229018.04   -21081.243    1570.2706   -22651.513   -807.27666     546.1931    78.583738    15.839255     29.68688 
   85800    243.85452   -271.72422    229018.04   -21082.682    1615.1362   -22697.818   -567.61411    548.39218    78.584854    15.842022    29.678782 
   86000    243.49559    -324.6416    229018.04   -21059.816    1612.7589   -22672.575   -727.13404    551.94537    78.584007    15.842369    29.709604 
   86200     239.4398   -330.43121    229018.04    -21111.65    1585.8959   -22697.546   -807.62805    552.65477    78.586082    15.843994    29.729906 
   86400    243.90857   -113.43288    229018.04   -21103.953    1615.4943   -22719.447    39.257318    551.02946    78.586747    15.845202    29.742579 
   86600    241.61252   -312.22059    229018.04   -21052.513    1600.2867     -22652.8   -730.04499    552.29959    78.588456    15.844928    29.711747 
   86800    232.18582   -167.86336    229018.04   -21076.083    1537.8502   -22613.934   -187.84676    552.13317    78.587533    15.845143    29.703654 
   87000    236.77175    -221.5029    229018.04   -21119.214    1568.2245   -22687.439   -372.51968    555.70325    78.585787    15.843636    29.711364 
   87200    243.79254   -170.46934    229018.04   -21065.309    1614.7258   -22680.034   -200.20311    557.60961    78.586639    15.842552    29.717507 
   87400    246.34806   -372.66731    229018.04     -21110.3    1631.6519   -22741.952   -920.46402    560.31976    78.585522    15.841849    29.715175 
   87600    238.73301   -168.79474    229018.04   -21066.408    1581.2147   -22647.623   -174.49764    560.14238    78.584166    15.842403    29.726047 
   87800    232.86886   -302.16325    229018.04   -21211.585    1542.3743    -22753.96   -692.02749    561.26042    78.584285    15.840421    29.738522 
   88000    247.08849   -291.85939    229018.04   -21037.505     1636.556   -22674.061   -638.69495     561.3823    78.585923    15.838046    29.753807 
   88200    247.72155   -252.73132    229018.04    -21001.63     1640.749   -22642.379   -469.79809    561.53666    78.587129    15.840169    29.761103 
   88400    239.05289   -322.24318    229018.04   -21060.835    1583.3334   -22644.169   -760.26694    561.69301    78.587912    15.842276    29.753605 
   88600    234.34308   -105.08478    229018.04   -21156.297    1552.1386   -22708.435    85.043013    562.91781    78.589398    15.839854    29.740022 
   88800    232.52861   -343.76881    229018.04   -21175.826    1540.1207   -22715.947   -824.82486    565.63964    78.588215     15.83853    29.726659 
   89000    236.82813   -302.93677    229018.04   -21234.898    1568.5979   -22803.496   -681.01575    568.02213    78.590476    15.837695    29.737247 
   89200    236.72467   -237.59932    229018.04   -21193.814    1567.9127   -22761.727   -439.30703    569.10404    78.590395    15.837395    29.737209 
   89400    242.06864   -292.22269    229018.04   -21156.718    1603.3077   -22760.026   -670.40593    573.43521    78.591358    15.837228    29.745796 
   89600    233.68615    -228.1685    229018.04   -21272.714    1547.7875   -22820.501   -371.49405    575.22794    78.592292    15.838889    29.762408 
   89800    237.33754   -351.17895    229018.04     -21190.4     1571.972   -22762.372   -897.76329    578.44286    78.594932    15.839286    29.777771 
   90000    240.54687   -205.01973    229018.04   -21134.219    1593.2285   -22727.447   -329.90996    578.78798    78.595166    15.838534    29.784438 
   90200    237.17045   -304.95785    229018.04   -21155.666    1570.8653   -22726.531    -683.0301    583.03753    78.594658     15.83728    29.755743 
   90400    240.52778   -343.88455    229018.04   -21221.551    1593.1021   -22814.653   -862.69957    587.97303    78.594528    15.836166    29.759079 
   90600    238.50708   -291.31331    229018.04   -21231.916    1579.7182   -22811.635   -631.41325    591.66909    78.595615    15.836445    29.774171 
   90800    241.94958   -387.83986    229018.04    -21128.84    1602.5192   -22731.359   -1054.5009    593.90772    78.595747     15.83609    29.793074 
   91000    232.76837   -222.31663    229018.04   -21195.627    1541.7087   -22737.336   -366.19353    594.00568    78.597068    15.836798    29.797608 
   91200    233.08778   -187.90101    229018.04   -21200.514    1543.8243   -22744.339   -186.36797    591.85787    78.595721    15.837193    29.808073 
   91400    237.97658   -353.81476    229018.04   -21164.088    1576.2045   -22740.293   -883.66781    593.09425    78.596164    15.836461    29.796407 
   91600    238.42342   -262.70553    229018.04   -21135.173    1579.1641   -22714.337    -525.7086    588.29748    78.596679     15.83342    29.808553 
   91800     242.8112    -339.7493    229018.04   -21082.627     1608.226   -22690.853   -778.97123    585.63303    78.596451    15.832648    29.801773 
   92000      242.528   -408.93622    229018.04   -21128.206    1606.3502   -22734.557   -1101.6576    583.66368     78.59456    15.830013    29.819767 
   92200    241.11064   -159.87798    229018.04   -21130.393    1596.9625   -22727.356   -124.47759    584.34286    78.596199    15.830078     29.81015 
   92400    245.20357   -242.31364    229018.04   -21092.584    1624.0715   -22716.656   -450.99882    582.79653    78.598794    15.827815    29.807345 
   92600    241.06727    -217.5865    229018.04    -21077.07    1596.6753   -22673.745   -353.72572    584.02385    78.598885    15.826274    29.823721 
   92800     236.8963   -392.32333    229018.04   -21161.453    1569.0495   -22730.503   -1044.0861    585.11422    78.598901    15.824879    29.830437 
   93000    240.51555   -378.15583    229018.04   -21216.527     1593.021   -22809.548   -978.58345    584.25947    78.600654    15.823003    29.820836 
   93200    238.80869   -404.17296    229018.04   -21111.138    1581.7159   -22692.854   -1096.0975    585.79122      78.6007    15.824623    29.838072 
   93400    237.40808   -265.00928    229018.04   -21173.935    1572.4392   -22746.374   -538.07932    584.16854    78.602035    15.827666    29.829401 
   93600    239.94162   -153.86461    229018.04   -21142.777    1589.2197   -22731.997   -116.69421    582.65501    78.603579     15.82988       29.843 
   93800    245.10406   -426.87661    229018.04   -21048.774    1623.4124   -22672.186   -1161.3545    582.71091    78.603043    15.829532    29.849467 
   94000    239.83408   -325.94713    229018.04   -21074.591    1588.5074   -22663.099   -749.62213    583.47848    78.602366    15.829321    29.841201 
   94200    234.97072   -225.06084    229018.04   -21123.682    1556.2956   -22679.978   -415.77341    583.37463    78.602427    15.830614      29.8466 
   94400    237.30236     -458.082    229018.04    -21041.02    1571.7389   -22612.759   -1304.6824    584.83803    78.600741    15.833446    29.853704 
   94600    239.87595   -329.73309    229018.04   -21119.493    1588.7847   -22708.278   -774.24175    583.92273    78.598901    15.834188    29.836185 
   94800    247.09152   -241.21329    229018.04    -21006.05    1636.5761   -22642.626   -465.91445    586.16618    78.598911    15.834669    29.834394 
   95000    242.13998   -217.86678    229018.04   -21020.401    1603.7803   -22624.181   -316.07681    589.65832    78.600393    15.833975    29.827863 
   95200    244.47045   -346.58214    229018.04   -21123.157    1619.2158   -22742.373   -835.34051    589.08027     78.60249    15.835271    29.827173 
   95400    244.71641   -166.07605    229018.04   -21162.546    1620.8449   -22783.391    -135.0627    587.85435    78.603051    15.836582    29.841657 
   95600    235.82611   -204.26296    229018.04   -21183.132    1561.9612   -22745.093    -304.8234     590.0385     78.60259    15.837065     29.85811 
   95800    235.30278   -300.11466    229018.04   -21113.666     1558.495   -22672.161   -681.68317    591.42394    78.602178    15.835394    29.870428 
   96000     239.4235   -258.22106    229018.04   -21167.176     1585.788   -22752.964   -511.53414    592.39029    78.600988    15.833849    29.856457 
   96200    235.09771   -208.82442    229018.04   -21195.052    1557.1368   -22752.189   -347.42858    594.56181    78.599319    15.832497    29.846808 
   96400    241.83276   -240.71897    229018.04   -21086.844    1601.7454   -22688.589   -438.91575    595.43959    78.600364    15.833011    29.816669 
   96600    234.13025   -371.29541    229018.04   -21139.334    1550.7289   -22690.063   -930.89645    596.43135    78.600333    15.834461    29.811767 
   96800    240.55015   -237.53668    229018.04   -21142.384    1593.2502   -22735.634   -426.69847    595.39296    78.599363    15.833738     29.78634 
   97000    246.36808   -137.20769    229018.04   -21132.551    1631.7845   -22764.336   -34.896993    595.82267    78.598469    15.834458    29.785674 
   97200    239.93728   -182.19654    229018.04   -21083.216    1589.1909   -22672.407   -223.55655    596.16762    78.599744    15.836815    29.776096 
   97400    248.50741   -360.15768    229018.04   -21102.166     1645.954    -22748.12   -904.76793    599.40186    78.599877    15.840417    29.779877 
   97600    241.11684   -364.80496    229018.04   -21135.696    1597.0036     -22732.7   -944.92809    599.45649     78.60024    15.841684    29.781006 
   97800    233.19019   -216.30631    229018.04   -21203.397    1544.5026   -22747.899   -340.06579    597.76211     78.59988    15.841813    29.788425 
   98000     230.2988   -415.10515    229018.04   -21309.154    1525.3518   -22834.506   -1135.6918    598.37384    78.598299    15.842483    29.793134 
   98200    229.33157   -201.33084    229018.04   -21277.958    1518.9455   -22796.904   -272.16656    598.76436    78.597044    15.840521    29.787967 
   98400    241.21123   -218.68255    229018.04   -21209.361    1597.6288    -22806.99   -335.15671     599.0035    78.597799    15.837473    29.776302 
   98600    243.03403   -302.61183    229018.04   -21180.439    1609.7019   -22790.141   -669.29194    601.77198    78.597766    15.835876    29.790357 
   98800    249.14472     -504.858    229018.04   -21079.556    1650.1752   -22729.731   -1500.9059    604.71699    78.599499    15.836615    29.782572 
   99000    244.74645   -396.28532    229018.04   -21050.273    1621.0438   -22671.317   -1036.0007    607.20578    78.598172    15.840128    29.777299 
   99200    237.42238   -218.20463    229018.04   -21102.143    1572.5339   -22674.677   -299.96187    605.20448     78.59693     15.84109     29.76572 
   99400    234.81901   -424.96321    229018.04     -21128.1    1555.2908    -22683.39   -1149.7372    606.04497     78.59431    15.839809     29.76242 
   99600    241.78905   -319.62209    229018.04   -21102.599    1601.4559   -22704.055   -730.94428    608.58377    78.592839    15.839248    29.756643 
   99800    247.69496   -176.98011    229018.04   -21096.195    1640.5729   -22736.768   -202.16047    609.82657    78.593205    15.839157    29.768641 
  100000    238.37723   -455.61978    229018.04   -21122.687    1578.8582   -22701.545   -1309.7914     611.1054    78.594201    15.837931    29.768168 
  100200     235.9136   -149.57524    229018.04    -21033.66    1562.5407   -22596.201   -105.71195    610.70039    78.593442    15.837349    29.747899 
  100400    245.50067    -184.1156    229018.04   -21078.555    1626.0393   -22704.595   -216.56601    611.84992    78.593914    15.836494    29.744196 
  100600    242.08294   -315.73007    229018.04   -21152.503    1603.4024   -22755.905   -733.69106    614.73888     78.59321    15.835134    29.752724 
  100800    241.90428   -316.71865    229018.04    -21090.24    1602.2191   -22692.459   -742.87094    614.23973     78.59468    15.838659     29.77728 
[...]
 5175800    229.44289   -317.01477    229018.04   -23304.703    1519.6828   -24824.386   -757.47345    9522.4169    78.789098    16.031772    29.695253 
 5176000    221.10221   -158.78483    229018.04   -23431.921    1464.4395    -24896.36   -173.24397    9520.5089     78.78682    16.031151     29.69529 
 5176200    222.22471    -258.8655    229018.04    -23426.15    1471.8743   -24898.025   -535.09372    9522.2457    78.785348    16.032332    29.699348 
 5176400    220.57633   -301.52175    229018.04   -23391.017    1460.9564   -24851.973   -727.53191    9519.9107    78.784806    16.034211    29.687012 
 5176600    230.01726   -220.58969    229018.04   -23344.515    1523.4871   -24868.002   -410.43602     9520.728    78.784047    16.034706    29.692834 
 5176800     221.3704   -243.38547    229018.04   -23405.254    1466.2159    -24871.47   -461.98926    9521.0553    78.784228    16.034613    29.670062 
 5177000    233.20302   -284.61822    229018.04   -23308.994    1544.5876   -24853.582   -642.23729    9520.1324    78.784902    16.038365    29.677355 
 5177200    233.51459   -245.75668    229018.04   -23305.206    1546.6512   -24851.857    -488.1329    9521.9805    78.784479    16.039185    29.696011 
 5177400    218.69387    -265.9446    229018.04   -23337.505    1448.4882   -24785.993   -603.34954    9522.7128    78.783825    16.041196    29.688626 
 5177600     227.2078   -193.11604    229018.04   -23329.867    1504.8791   -24834.746   -246.25836    9520.7239    78.783761    16.042945    29.678297 
 5177800    226.31871    -199.0747    229018.04   -23298.026    1498.9903   -24797.016   -340.62815    9522.3055    78.783054    16.045366     29.68149 
 5178000    223.04417   -303.16028    229018.04   -23392.909    1477.3018   -24870.211   -733.71427    9520.7047    78.780663    16.047811    29.683691 
 5178200    225.55158   -299.56301    229018.04   -23393.757    1493.9093   -24887.666   -707.84045    9520.6395    78.779341    16.048846    29.674818 
 5178400    228.55339   -313.50375    229018.04    -23286.85    1513.7913   -24800.642   -758.78509    9520.8169    78.778179    16.050312    29.667387 
 5178600      224.117   -296.31899    229018.04   -23339.651    1484.4076   -24824.059   -679.77573    9522.1902    78.775724     16.05023    29.672976 
 5178800    227.06693   -298.25828    229018.04   -23313.219     1503.946   -24817.165   -682.78604    9520.5112    78.777082    16.051364    29.677809 
 5179000    227.47972   -328.41657    229018.04   -23278.268    1506.6801   -24784.948   -805.25062    9521.8621    78.776692    16.052383    29.682188 
 5179200    225.67268   -269.60784    229018.04   -23339.315    1494.7114   -24834.026   -586.60093    9519.1971    78.775457    16.053747    29.679767 
 5179400    230.27563   -273.48097    229018.04   -23370.156    1525.1984   -24895.355   -627.36544    9521.7701    78.773071    16.053125    29.683036 
 5179600    229.13006   -195.05526    229018.04   -23343.123    1517.6109   -24860.734   -324.36736    9519.1723    78.772648    16.054446    29.676669 
 5179800     227.3344   -320.00434    229018.04   -23321.787    1505.7175   -24827.504   -785.80162    9520.3673    78.771105    16.056168    29.681088 
 5180000    225.96795   -259.83543    229018.04   -23360.676     1496.667   -24857.343   -592.45637    9518.4703    78.769509    16.056117    29.689966 
 5180200    230.44329   -281.14168    229018.04    -23378.24    1526.3088   -24904.549   -623.70136    9519.1288    78.768638    16.056584    29.689978 
 5180400    222.45859   -331.19714    229018.04   -23361.632    1473.4233   -24835.055   -808.65997    9520.6629    78.768782    16.058136    29.691251 
 5180600    227.46575   -202.60224    229018.04   -23379.668    1506.5875   -24886.256   -321.79142    9516.8613    78.766981    16.059415    29.692094 
 5180800    219.10742   -356.46479    229018.04   -23399.248    1451.2273   -24850.475   -933.28707    9521.3532    78.765118    16.060293    29.688018 
 5181000    226.87576   -323.56429    229018.04   -23357.338    1502.6798   -24860.018   -802.05834    9520.7531    78.763128    16.060607    29.686014 
 5181200     226.2727   -273.83588    229018.04   -23308.222    1498.6855   -24806.907   -635.36107    9518.0325    78.763162    16.062063    29.678456 
 5181400    225.91295   -297.32059    229018.04   -23318.334    1496.3028   -24814.637   -660.98852    9519.9927     78.76267    16.063517    29.684797 
 5181600    231.15416   -304.41619    229018.04   -23325.558    1531.0172   -24856.575   -750.13273    9519.4965    78.762179    16.063225    29.679962 
 5181800    220.01527   -281.39255    229018.04   -23415.419    1457.2403   -24872.659   -653.31549    9518.1292     78.76114    16.065404    29.684195 
 5182000    220.59639   -290.21053    229018.04   -23421.948    1461.0893   -24883.038   -693.34871    9520.0635    78.759854    16.066264    29.688653 
 5182200    228.51917   -201.38554    229018.04   -23340.767    1513.5647   -24854.332   -305.08188    9516.9675    78.758609    16.066139    29.683557 
 5182400    222.51412   -347.83627    229018.04   -23342.139    1473.7911    -24815.93   -902.12616    9520.2392    78.758892    16.067074    29.682367 
 5182600     225.9915   -229.79613    229018.04   -23322.446    1496.8231   -24819.269    -440.1841    9519.5174    78.758096     16.06669    29.688818 
 5182800     228.3981   -213.26762    229018.04   -23324.449    1512.7628   -24837.212   -352.80448     9517.554    78.756194    16.066752    29.694254 
 5183000    230.66568   -344.63659    229018.04   -23319.083    1527.7818   -24846.865   -858.65525    9519.7263    78.755874    16.068082    29.683211 
 5183200    226.58287   -230.35147    229018.04   -23332.558    1500.7399   -24833.298   -436.72745    9517.7026    78.754994    16.067113    29.679925 
 5183400     220.4343   -300.45924    229018.04   -23364.945    1460.0157   -24824.961   -719.08348    9518.5092    78.754563    16.066392    29.683167 
 5183600    225.46304   -353.63824    229018.04   -23347.227    1493.3229    -24840.55   -951.93172    9518.8056    78.752771    16.065019    29.677795 
 5183800    223.62846     -231.314    229018.04     -23413.2    1481.1718   -24894.372   -454.39216    9517.8314    78.751953    16.063576    29.676571 
 5184000    225.51857   -244.70422    229018.04   -23355.519    1493.6906   -24849.209   -495.68924    9518.0527    78.750427     16.06328    29.688112 
 5184200     224.4834   -337.68947    229018.04   -23369.913    1486.8344   -24856.747   -882.27345    9520.1195    78.748155    16.062316    29.678321 
 5184400    226.05246   -310.65131    229018.04   -23345.682    1497.2268   -24842.909   -755.83176    9518.9043    78.745996    16.061452    29.682122 
 5184600    223.76337   -313.65108    229018.04    -23342.18    1482.0653   -24824.246   -799.14114    9519.1434    78.743275    16.060537    29.689356 
 5184800    229.42782   -361.65447    229018.04   -23318.373     1519.583   -24837.956   -942.56622    9520.1827    78.742693    16.060552    29.674745 
 5185000    230.88582   -263.11396    229018.04   -23321.278    1529.2399   -24850.518   -569.02908    9519.1917    78.741598    16.061325    29.671691 
 5185200    225.49643    -307.4184    229018.04   -23336.706     1493.544    -24830.25    -755.0212    9517.4263    78.741843    16.062418    29.664013 
 5185400    223.74205   -385.79826    229018.04   -23370.769    1481.9241   -24852.693   -1033.2237    9521.9466    78.739878     16.06417    29.672741 
 5185600    230.36169    -268.7153    229018.04   -23341.698    1525.7684   -24867.467   -574.82446    9516.9413    78.739681    16.066314    29.679123 
 5185800    228.85343   -304.67791    229018.04   -23236.567    1515.7787   -24752.346   -752.29352    9520.2225    78.738497    16.067697    29.685144 
 5186000    229.64069    -317.0583    229018.04   -23277.285    1520.9929   -24798.278   -763.59758    9520.6335     78.73909    16.068704    29.691374 
 5186200    224.17317   -333.15316    229018.04   -23360.434    1484.7796   -24845.214   -860.31461    9520.6324    78.738663    16.069532    29.699274 
 5186400    227.89039   -249.57051    229018.04   -23373.342    1509.4001   -24882.742   -539.19982    9516.7255    78.739066     16.06873    29.699561 
 5186600    233.74262   -426.77807    229018.04   -23304.075    1548.1615   -24852.236   -1179.7572    9520.1931    78.738821    16.068229    29.686864 
 5186800    229.36383   -195.44612    229018.04   -23326.613    1519.1592   -24845.773   -320.27455    9517.5678    78.739413    16.067618     29.68866 
 5187000    226.85345   -179.46219    229018.04   -23316.095     1502.532   -24818.627   -217.96432    9517.3091    78.740536     16.06863    29.674018 
 5187200    229.24376   -334.98628    229018.04   -23340.533     1518.364   -24858.897    -847.0304     9521.571    78.741838    16.069122    29.684254 
 5187400    223.98511    -334.4708    229018.04   -23316.911     1483.534   -24800.445   -859.30797    9517.5814    78.741267    16.067408    29.685004 
 5187600    229.67617    -231.2028    229018.04   -23334.162    1521.2279    -24855.39   -448.05165     9519.459    78.740868    16.066516    29.680445 
 5187800    227.78218   -356.80884    229018.04   -23330.124    1508.6834   -24838.808    -899.5001     9521.692    78.742395    16.064783    29.690712 
 5188000    227.86459   -163.33091    229018.04   -23338.171    1509.2292     -24847.4   -157.66107    9514.5719    78.744526    16.062797    29.704249 
 5188200     231.5717   -328.32172    229018.04   -23321.884    1533.7827   -24855.667   -829.57564    9519.2671    78.746179    16.060857    29.703612 
 5188400    221.59035   -376.70474    229018.04   -23371.618    1467.6726   -24839.291   -1001.3924    9519.1247    78.747291    16.058369    29.702772 
 5188600     232.8604   -235.16349    229018.04   -23293.435    1542.3183   -24835.753   -480.28921    9517.2157    78.748011    16.058141    29.699267 
 5188800    228.09138   -268.57935    229018.04     -23321.5    1510.7313   -24832.232   -579.78521    9517.1246    78.749047    16.056738    29.707301 
 5189000     227.1836   -296.92993    229018.04   -23335.696    1504.7188   -24840.415   -675.98936    9518.5919    78.749417    16.055619    29.715785 
 5189200    223.75773   -264.34378    229018.04   -23339.489     1482.028   -24821.517   -596.92737    9516.3256    78.749563    16.054399    29.701125 
 5189400    229.99924   -272.14099    229018.04   -23321.793    1523.3678    -24845.16   -575.89501    9517.3544    78.750346    16.054547    29.701128 
 5189600    230.37744   -301.05529    229018.04   -23318.825    1525.8727   -24844.698   -694.97374    9516.8498    78.749615    16.053542    29.714702 
 5189800    225.08503   -314.17291    229018.04   -23362.625    1490.8192   -24853.445   -769.79632    9518.7233    78.750855    16.054503    29.713993 
 5190000    226.91836   -313.90783    229018.04   -23333.494     1502.962   -24836.456   -754.73018    9517.5204    78.751095    16.052562    29.705568 
 5190200    226.11945    -248.0773    229018.04   -23318.447    1497.6705   -24816.117    -514.3763    9517.6966    78.750944    16.052004    29.724669 
 5190400    226.02221   -336.97748    229018.04   -23336.526    1497.0265   -24833.553   -863.14736    9518.5138    78.751999    16.051774    29.713261 
 5190600    233.52257   -327.86265    229018.04   -23328.776     1546.704    -24875.48   -772.38752    9517.9693    78.753086    16.047903    29.708389 
 5190800    230.14816   -204.53039    229018.04   -23336.988    1524.3541   -24861.342   -355.45138    9516.5974    78.754678    16.049336    29.704465 
 5191000    220.32148   -438.88094    229018.04     -23444.9    1459.2685   -24904.168   -1240.8801    9518.9252    78.755841    16.050158    29.696131 
 5191200    225.28887   -312.71285    229018.04    -23376.78    1492.1693    -24868.95     -763.302    9515.8096    78.755954    16.050822    29.708508 
 5191400    225.92595   -250.08304    229018.04   -23341.553    1496.3889   -24837.942   -538.96212    9513.6419    78.755042    16.050956    29.705388 
 5191600    225.71282   -289.75175    229018.04   -23359.478    1494.9772   -24854.455    -667.7668    9515.7144    78.755305    16.051031    29.704131 
 5191800    234.78586   -364.88342    229018.04   -23321.702    1555.0713   -24876.773   -991.93678    9515.8477    78.755751    16.054622    29.704366 
 5192000    227.55432    -256.1503    229018.04   -23318.821    1507.1741   -24825.995   -547.43515    9513.8592    78.755112    16.055097    29.694378 
 5192200    225.31915   -339.93587    229018.04   -23361.723    1492.3698   -24854.093   -873.08459    9517.1011     78.75458     16.05379    29.707198 
 5192400    221.52582   -310.77812    229018.04     -23407.7    1467.2453   -24874.945   -744.60562    9515.8836    78.754806    16.054269    29.713955 
 5192600    228.18771   -309.08005    229018.04   -23396.718    1511.3693   -24908.087   -713.99662    9514.7624    78.755363    16.053828    29.702428 
 5192800    225.75859   -283.75759    229018.04   -23331.483    1495.2804   -24826.763    -637.9123     9515.823    78.754029    16.054593    29.696473 
 5193000    227.41601   -339.15922    229018.04   -23363.986    1506.2581   -24870.244   -852.44334    9516.2663     78.75392    16.053229    29.690307 
 5193200    225.71442   -361.64832    229018.04   -23362.459    1494.9879   -24857.447   -937.58192    9517.1589    78.756162    16.052241    29.697435 
 5193400    226.82489   -299.36541    229018.04    -23312.31    1502.3429   -24814.653   -671.18259    9517.1486    78.755326    16.051509    29.702005 
 5193600    225.76723   -267.12706    229018.04   -23372.725    1495.3376   -24868.063   -572.76797    9515.9674     78.75497    16.051119    29.717866 
 5193800    224.53919   -348.40884    229018.04   -23377.452    1487.2038   -24864.656    -896.5479    9517.5676    78.753487    16.049988    29.706491 
 5194000    228.53263   -286.34687    229018.04   -23380.575    1513.6539   -24894.229   -580.70432    9517.6319    78.753977    16.049971    29.712679 
 5194200    231.97765   -168.60913    229018.04   -23360.832    1536.4715   -24897.303   -200.98052    9516.1719    78.751919    16.048182    29.698848 
 5194400    222.99859   -465.62236    229018.04   -23353.644    1476.9999   -24830.644   -1357.5963    9519.4184    78.751312    16.046305    29.703747 
 5194600    221.78345   -379.65174    229018.04    -23390.41    1468.9516   -24859.362   -1028.9597    9517.4526    78.751267    16.047365     29.71099 
 5194800    224.17848    -162.5144    229018.04   -23413.742    1484.8147   -24898.557   -168.22168    9511.8282    78.750046    16.048305    29.711984 
 5195000    227.75274   -398.11014    229018.04   -23315.564    1508.4884   -24824.052   -1082.9193     9520.169      78.7493    16.048984    29.706099 
 5195200    224.74388   -242.81429    229018.04   -23385.389    1488.5596   -24873.949   -521.10533    9514.8428    78.750083    16.050232    29.705725 
 5195400    235.21317   -197.99726    229018.04   -23306.092    1557.9015   -24863.993   -306.99602    9514.4737     78.74992    16.051205    29.707632 
 5195600    231.04857   -499.45071    229018.04   -23350.313    1530.3178   -24880.631   -1517.8344      9522.19     78.74845    16.052336     29.70535 
 5195800    234.16892   -244.27166    229018.04   -23313.761     1550.985   -24864.746   -478.41528    9514.2885    78.748883     16.05588    29.705712 
 5196000    234.08627   -211.31733    229018.04   -23318.405    1550.4376   -24868.843   -355.36289    9515.2287    78.749071    16.057186    29.711091 
 5196200    231.73647   -456.45649    229018.04   -23277.096    1534.8741    -24811.97   -1313.9547    9520.0066    78.748363    16.057878    29.716834 
 5196400    228.79215   -118.20272    229018.04   -23331.699    1515.3728   -24847.071   -2.8516987    9513.2039    78.748113    16.057688    29.711812 
 5196600    216.00116   -302.34174    229018.04   -23437.879    1430.6534   -24868.533   -688.36627     9515.646    78.749576    16.058895    29.707967 
 5196800    230.09984   -373.66339    229018.04   -23338.286    1524.0341   -24862.321   -1007.2859    9517.5365    78.751473    16.056715    29.712412 
 5197000    226.76758   -283.83206    229018.04   -23380.439    1501.9633   -24882.402   -658.83159    9515.2883    78.750566    16.057498    29.718162 
 5197200    236.75337    -302.0523    229018.04   -23277.947    1568.1028   -24846.049   -701.88802    9516.2033    78.752726    16.056345    29.716459 
 5197400    222.08917   -415.38492    229018.04   -23370.806    1470.9765   -24841.782   -1109.7602    9519.7117    78.751627    16.053031     29.70471 
 5197600    221.98545   -229.24936    229018.04   -23358.208    1470.2896   -24828.498   -453.07525    9513.0553    78.752963     16.04858     29.70068 
 5197800    237.20165   -361.63115    229018.04   -23254.792    1571.0719   -24825.864   -933.50105    9518.4002    78.754473    16.049539    29.709583 
 5198000    234.16638   -346.88787    229018.04   -23264.873    1550.9682   -24815.841   -887.71698    9518.2098    78.753563    16.048643    29.710253 
 5198200    230.30174    -267.5561    229018.04   -23320.204    1525.3713   -24845.575   -578.10235    9514.5652    78.752696     16.04763    29.705933 
 5198400    231.08212   -379.58906    229018.04   -23341.292      1530.54   -24871.832   -1008.3774    9517.1254    78.752482    16.047861    29.709324 
 5198600    221.67606   -351.49854    229018.04   -23401.955    1468.2403   -24870.195   -910.72489    9518.5986     78.75319    16.047328    29.710641 
 5198800    224.18092   -192.58555    229018.04    -23396.42    1484.8309   -24881.251   -289.35106    9514.0935    78.752606    16.046659    29.701111 
 5199000    230.24784   -407.81014    229018.04   -23313.647    1525.0143   -24838.661   -1093.9121    9519.6929    78.754223    16.046591    29.706172 
 5199200    231.74686   -254.37458    229018.04   -23355.918    1534.9429   -24890.861   -513.67434    9514.9424    78.755702    16.045503     29.68493 
 5199400    224.35245   -334.94336    229018.04   -23368.872     1485.967   -24854.839   -862.62122    9517.1628    78.755481    16.046224    29.701011 
 5199600    227.38673   -405.75663    229018.04   -23327.075    1506.0641    -24833.14   -1093.1271    9519.6045    78.757148    16.044045    29.695982 
 5199800    227.33143   -295.44913    229018.04   -23381.699    1505.6979   -24887.397   -680.30672    9516.2869    78.758206    16.043614    29.701369 
 5200000    234.43383   -296.65337    229018.04   -23312.956    1552.7396   -24865.695   -697.95851    9517.7846    78.758964    16.046948    29.700869 
Loop time of 7786.83 on 64 procs for 5200000 steps with 8943 atoms

Performance: 576.974 ns/day, 0.042 hours/ns, 667.795 timesteps/s
100.0% CPU use with 64 MPI tasks x no OpenMP threads

MPI task timing breakdown:
Section |  min time  |  avg time  |  max time  |%varavg| %total
---------------------------------------------------------------
Pair    | 0.28416    | 1835.5     | 5901.6     |4635.3 | 23.57
Neigh   | 0.72921    | 243.3      | 882.77     |1937.6 |  3.12
Comm    | 19.117     | 2166.3     | 6271.7     |4057.8 | 27.82
Output  | 233.79     | 233.89     | 234.11     |   0.3 |  3.00
Modify  | 167.16     | 3237.9     | 7463.9     |5352.7 | 41.58
Other   |            | 69.92      |            |       |  0.90

Nlocal:    139.734 ave 439 max 0 min
Histogram: 24 11 13 0 0 0 0 0 0 16
Nghost:    819.625 ave 1293 max 0 min
Histogram: 8 0 4 0 0 4 24 0 12 12
Neighs:    0 ave 0 max 0 min
Histogram: 64 0 0 0 0 0 0 0 0 0
FullNghs:  14025.8 ave 53645 max 0 min
Histogram: 40 8 0 0 0 0 0 0 6 10

Total # of neighbors = 897650
Ave neighs/atom = 100.375
Neighbor list builds = 559622
Dangerous builds = 0
write_data 		${DIR}/data.${NAME}_run
write_data 		run_26/data.${NAME}_run
write_data 		run_26/data.ibeam_cooling_26_run
Total wall time: 2:10:02
