
# Set production fixes - Nose/Hoover
#
fix                 4 water temp/csvr ${START_TEMP} ${END_TEMP} 500.0 928347
fix                 4 water temp/csvr 240 ${END_TEMP} 500.0 928347
fix                 4 water temp/csvr 240 227 500.0 928347


## divide "droplet" into core and surface
#region		core_reg cylinder z 135 135 44.6 20 INF units box
#region		surface_reg cylinder z 135 135 44.6 20 INF units box side out
#group		core dynamic all region core_reg
#group		surface dynamic all region surface_reg

## compute pressure core
#compute        peratom_core core stress/atom NULL
#compute        p_core core reduce sum c_peratom_core[1] c_peratom_core[2] c_peratom_core[3]
#variable       press_core equal -(c_p_core[1]+c_p_core[2]+c_p_core[3])/(3*1249982.5)


## compute pressure surface
#compute        peratom_surf surface stress/atom NULL
#compute        p_surf surface reduce sum c_peratom_surf[1] c_peratom_surf[2] #c_peratom_surf[3]
#variable       press_surf equal -(c_p_surf[1]+c_p_surf[2]+c_p_surf[3])/(3*42395)

## compute total pressure of drop
compute        peratom water stress/atom NULL
compute        p water reduce sum c_peratom[1] c_peratom[2] c_peratom[3]
variable       press equal -(c_p[1]+c_p[2]+c_p[3])/(3*58301)


# compute order parameter
compute        3 all orientorder/atom nnn NULL cutoff 3.5

# compute center of mass of bridge
compute 	4 water com

# Run simulation
thermo_style        custom step c_2 press vol etotal ke pe v_press c_1[4] c_4[*]
thermo              200
dump		     1 water custom 400 ${DIR}/prod.${NAME}.dump id type x y z vx vy vz c_3[*] c_peratom[*]
dump		     1 water custom 400 run_16/prod.${NAME}.dump id type x y z vx vy vz c_3[*] c_peratom[*]
dump		     1 water custom 400 run_16/prod.ibeam_cooling_16.dump id type x y z vx vy vz c_3[*] c_peratom[*]
run                 ${STEPS}
run                 5200000
Neighbor list info ...
  update every 1 steps, delay 0 steps, check yes
  max neighbors/atom: 2000, page size: 100000
  master list distance cutoff = 6.67472
  ghost atom cutoff = 6.67472
  binsize = 3.33736, bins = 48 11 12
  2 neighbor lists, perpetual/occasional/extra = 1 1 0
  (1) pair sw, perpetual
      attributes: full, newton on
      pair build: full/bin/atomonly
      stencil: full/bin/3d
      bin: standard
  (2) compute orientorder/atom, occasional, copy from (1)
      attributes: full, newton on
      pair build: copy
      stencil: none
      bin: none
Per MPI rank memory allocation (min/avg/max) = 0.8535 | 5.998 | 7.264 Mbytes
Step c_2 Press Volume TotEng KinEng PotEng v_press c_1[4] c_4[1] c_4[2] c_4[3] 
       0    247.15025   -148.65128    229018.04   -21106.829    1636.9651   -22743.794   -81.914245    36.555577    78.593886    15.918002    29.778639 
     200    239.86935   -447.37405    229018.04   -21166.283     1588.741   -22755.024   -1269.6558    38.172435    78.593986    15.915678    29.812451 
     400    235.48534    -342.0386    229018.04   -21184.224    1559.7042   -22743.928   -874.71857      39.4785    78.594108    15.918371    29.800891 
     600    232.98753   -420.07772    229018.04   -21299.418    1543.1603   -22842.579   -1114.5307    40.531459    78.596023    15.921418    29.806744 
     800    232.73658     -229.753    229018.04   -21264.461    1541.4981   -22805.959   -426.56293    41.870334    78.597355    15.922906    29.786848 
    1000    238.92262   -259.33026    229018.04   -21109.094    1582.4705   -22691.564   -515.03699    43.001312    78.600402    15.923862    29.796769 
    1200    235.69685   -202.81862    229018.04    -21207.54    1561.1051   -22768.645   -300.99309    44.073958    78.599824    15.925332    29.788183 
    1400    247.91639   -382.82138    229018.04   -21053.541    1642.0395   -22695.581   -1011.9782    45.397387    78.599855    15.925938    29.776937 
    1600    241.66123   -275.79291    229018.04   -21039.461    1600.6093    -22640.07   -554.76007    46.074179    78.600662    15.925643     29.77559 
    1800    235.61434   -252.15676    229018.04   -21085.337    1560.5586   -22645.896   -527.35954    48.798389    78.601206    15.927627    29.776008 
    2000    248.98131   -116.32613    229018.04    -21003.55    1649.0928   -22652.643    48.670965    49.878384    78.601189    15.929778      29.7665 
    2200    245.13217   -408.13589    229018.04   -21027.164    1623.5986   -22650.763   -1084.4826    51.025019    78.600165    15.933428    29.740439 
    2400    241.06329   -269.75516    229018.04   -21073.016    1596.6489   -22669.665   -567.44525    52.834633    78.602119    15.934323    29.747669 
    2600    238.39744   -162.29247    229018.04   -21083.406     1578.992   -22662.398   -168.69703     54.72677    78.602267     15.93718    29.732273 
    2800    243.18405   -414.17506    229018.04   -21070.538    1610.6955   -22681.234   -1168.4324    55.421786    78.601192    15.937422    29.744103 
    3000    237.66576   -311.99745    229018.04   -21161.752    1574.1459   -22735.897   -707.17786    57.801906    78.602241    15.938552    29.750861 
    3200    234.39126   -222.79039    229018.04   -21135.015    1552.4577   -22687.472   -352.02178    59.752704    78.602579    15.937692    29.746143 
    3400    234.28465    -352.7147    229018.04   -21075.296    1551.7515   -22627.047   -861.03956    60.301042    78.603329    15.933671    29.735569 
    3600    236.01057    -242.1854    229018.04   -21096.893     1563.183   -22660.076   -426.28993     61.32269    78.602622    15.932038    29.759504 
    3800    239.24336   -283.00066    229018.04   -21105.239    1584.5949   -22689.834   -615.29504    62.821573    78.603328    15.928843    29.771423 
    4000     238.2957   -259.23278    229018.04    -21152.46    1578.3182   -22730.778   -532.75188    64.173228    78.605135    15.928232    29.739153 
    4200    243.36492   -370.56457    229018.04   -21051.431    1611.8935   -22663.324   -954.84143    65.403791    78.608592     15.92901    29.751301 
    4400    245.28951   -194.56906    229018.04   -21002.888    1624.6407   -22627.529   -275.63229    67.951772    78.609871    15.927574     29.75773 
    4600     242.6931   -175.14413    229018.04   -21087.868    1607.4438   -22695.312   -181.25222    70.944034    78.609777    15.929281    29.767007 
    4800     244.7119   -396.05888    229018.04   -21077.087     1620.815   -22697.902   -1040.9426    72.534599    78.609843    15.930866     29.76352 
    5000    238.85797   -318.80831    229018.04    -21151.77    1582.0423   -22733.812   -726.46368    72.864236    78.610821    15.932702     29.77936 
    5200    238.09071   -247.71438    229018.04   -21127.652    1576.9604   -22704.612   -516.11955    73.677408    78.609653    15.933683    29.774229 
    5400    239.63827   -301.40301    229018.04   -21158.249    1587.2105    -22745.46   -695.77602     74.95604    78.608359    15.932834    29.776568 
    5600    235.73956   -356.23481    229018.04   -21237.656     1561.388   -22799.044   -893.99511    75.771647    78.608359    15.932874    29.771376 
    5800    248.91716   -298.31272    229018.04   -21083.617    1648.6679   -22732.284   -641.21376     78.09627     78.60887    15.933835    29.773309 
    6000    231.92711   -297.94875    229018.04   -21273.179    1536.1367   -22809.316   -685.06834    79.492061    78.608139    15.935846    29.775677 
    6200    237.17237   -350.88048    229018.04   -21193.926    1570.8779   -22764.804   -868.36964    80.619108    78.607138    15.937408    29.804421 
    6400     235.7687   -277.33519    229018.04   -21129.187     1561.581   -22690.768   -607.87078    81.564916    78.606741    15.934738    29.818803 
    6600    232.62193   -230.91267    229018.04    -21214.64    1540.7387   -22755.379   -368.53132    82.228017    78.607211    15.933154    29.851751 
    6800    237.90818   -377.34976    229018.04   -21166.638    1575.7515   -22742.389   -965.42924    83.227617    78.607858     15.93426    29.845028 
    7000     229.5456     -372.546    229018.04   -21230.189    1520.3631   -22750.552   -972.94434    85.269331    78.607579    15.934031    29.860448 
    7200    242.73037   -265.76537    229018.04   -21103.815    1607.6906   -22711.506   -537.12634    86.392526    78.609544    15.933089     29.84603 
    7400    230.49782   -353.72877    229018.04   -21187.821      1526.67   -22714.491   -882.78975    87.307245    78.610402    15.932003    29.831469 
    7600    234.79259   -311.18426    229018.04   -21182.264    1555.1159   -22737.379   -710.48242    87.211324    78.609367    15.930587    29.822417 
    7800    242.78193   -152.42906    229018.04   -21069.812    1608.0321   -22677.844   -98.229566     89.12036    78.609545    15.931669    29.839574 
    8000    243.19014   -223.96414    229018.04   -21033.782    1610.7358   -22644.518   -419.68931    89.420966    78.609999    15.930279    29.822736 
    8200    236.79886    -344.8071    229018.04   -21134.499    1568.4041   -22702.903   -879.11131    91.263215    78.610577    15.930955    29.816826 
    8400     237.7959   -445.38039    229018.04   -21170.269    1575.0078   -22745.276   -1239.7025    92.461884    78.610182    15.932809    29.824651 
    8600     240.4521   -130.02375    229018.04   -21083.866    1592.6008   -22676.467   -58.310742    93.992649    78.608874    15.933718    29.819514 
    8800    236.83432   -345.82207    229018.04   -21057.383    1568.6389   -22626.022   -907.71819    95.255003    78.610162    15.933225    29.822545 
    9000    241.41759   -258.06188    229018.04   -21067.979    1598.9956   -22666.975   -499.06203    97.497585    78.611753    15.933185    29.830482 
    9200    238.90478   -357.77334    229018.04   -21106.243    1582.3523   -22688.595   -902.42258    98.895322    78.612277    15.932942    29.820295 
    9400    240.95045    -303.9861    229018.04   -21183.907    1595.9016   -22779.809   -693.47269    100.69238    78.612483    15.933563    29.821286 
    9600    231.37901   -425.54599    229018.04   -21154.602    1532.5064   -22687.109   -1168.5527    100.90812    78.612093    15.935445     29.82397 
    9800     232.1523   -249.88498    229018.04   -21092.674    1537.6282   -22630.302   -491.63408    102.41616    78.613273    15.933969    29.830887 
   10000    247.04859   -248.04373    229018.04   -20956.603    1636.2917   -22592.895   -471.54664    103.76396    78.612245    15.931162    29.841097 
   10200    240.95697   -287.21493    229018.04   -21018.324    1595.9447   -22614.269   -628.59387    105.76019    78.610972    15.930005    29.808041 
   10400     247.3032   -349.68382    229018.04   -21052.031    1637.9781   -22690.009   -853.37817    107.01822    78.610535    15.928626    29.818738 
   10600    245.08492   -296.94169    229018.04   -21029.466    1623.2857   -22652.751   -636.04728    109.24455    78.612097    15.931324    29.809681 
   10800    245.00232   -315.59729    229018.04   -21069.167    1622.7386   -22691.906   -768.86199    111.25453    78.611014    15.932827      29.8278 
   11000    236.16149   -251.09768    229018.04   -21114.861    1564.1826   -22679.044   -495.06354    111.90531    78.608994    15.934724    29.800706 
   11200    236.42183   -364.73639    229018.04   -21114.132    1565.9069   -22680.039   -935.05234    112.00446    78.607489    15.935772    29.794906 
   11400    238.43289   -345.21706    229018.04    -21109.31    1579.2269   -22688.537   -853.33547    114.62781    78.607559    15.936123    29.802149 
   11600    244.60507    -400.1019    229018.04   -21064.596    1620.1074   -22684.703   -1110.6925    115.65851    78.608441    15.939847    29.803211 
   11800    239.40735   -286.38475    229018.04   -21096.605    1585.6811   -22682.286   -630.55572    117.99106    78.609715    15.939377    29.801063 
   12000    244.91455   -236.85057    229018.04   -21032.451    1622.1572   -22654.609   -447.73763    119.08101    78.610139    15.939389    29.805239 
   12200    245.75297   -216.35169    229018.04   -21095.784    1627.7104   -22723.494   -381.78914    119.61694    78.610155     15.93851    29.819157 
   12400     244.6845   -270.89889    229018.04   -21024.722    1620.6335   -22645.355   -527.63859    121.21053    78.608657    15.940967    29.823748 
   12600    242.61898   -196.63244    229018.04   -20996.419    1606.9529   -22603.372   -299.16318    121.59653    78.607266    15.943734    29.828743 
   12800    238.53041   -389.11989    229018.04   -21105.339    1579.8727   -22685.212   -1017.3729    122.72219    78.606583    15.945681    29.794377 
   13000    244.28409    -249.0481    229018.04    -21130.58    1617.9815   -22748.562   -461.80857    123.80171    78.603158    15.946948    29.789471 
   13200    244.15217   -351.23521    229018.04   -21095.535    1617.1077   -22712.643   -869.85374    126.99131    78.602853    15.944998    29.769039 
   13400    244.41182   -281.37291    229018.04   -21082.166    1618.8274   -22700.993   -580.86267    128.19775    78.603171    15.943203    29.746412 
   13600    243.04605    -414.6616    229018.04   -21130.914    1609.7814   -22740.695   -1146.5078    129.57205    78.603351    15.941606    29.733857 
   13800    238.05517   -401.46529    229018.04   -21200.983    1576.7251   -22777.708   -1114.2838    130.34804    78.604817    15.938958    29.734499 
   14000    240.64969   -338.29124    229018.04   -21166.618    1593.9095   -22760.527   -818.16282    132.62714    78.607436    15.936971    29.719835 
   14200    236.73331   -362.35389    229018.04   -21218.375    1567.9699   -22786.345   -905.27142    132.87455    78.607261    15.937828    29.729374 
   14400    229.79615   -383.59543    229018.04   -21243.294    1522.0226   -22765.317   -1014.8697    134.17568    78.608038      15.9382    29.720498 
   14600    238.43525   -391.16774    229018.04   -21184.915    1579.2425   -22764.157   -1050.7457    135.86915    78.606971    15.937843    29.709829 
   14800    240.76442   -131.39894    229018.04   -21148.182    1594.6694   -22742.852    -5.971748    137.36923    78.605937    15.936877    29.713746 
   15000    238.46476   -419.39023    229018.04   -21139.606    1579.4379   -22719.044   -1173.1654    138.62934    78.605179    15.935491    29.722043 
   15200    234.96373   -123.69722    229018.04   -21214.998    1556.2493   -22771.248   -3.0625324    140.81089    78.603812    15.937004    29.740586 
   15400    234.64712   -443.69059    229018.04   -21153.023    1554.1523   -22707.175   -1260.2706     141.5779    78.604966    15.936708     29.74771 
   15600    235.88815   -480.95878    229018.04   -21225.774    1562.3721   -22788.146   -1353.7009    142.83281    78.605046    15.938214    29.752988 
   15800    240.03486   -311.91784    229018.04    -21066.18    1589.8373   -22656.018   -748.59038    144.09961    78.604089    15.940753    29.758295 
   16000    242.53382   -361.08857    229018.04   -21128.112    1606.3888     -22734.5   -909.41125    145.27897     78.60345    15.939935    29.741846 
   16200    245.62528   -299.41973    229018.04   -21072.153    1626.8646   -22699.017   -709.94454    146.94398    78.600938    15.940918    29.741799 
   16400     239.9151   -293.70361    229018.04    -21067.93    1589.0441   -22656.974   -651.14688    148.43106    78.599234    15.943185    29.726738 
   16600    235.88923   -329.04091    229018.04   -21091.227    1562.3793   -22653.606    -818.5829    149.81518    78.598449    15.944397    29.714652 
   16800     245.0469   -145.69342    229018.04   -21029.281    1623.0338   -22652.315   -94.547622    149.54814    78.598163    15.944127     29.70808 
   17000    248.95293   -446.66942    229018.04   -21043.459    1648.9048   -22692.364    -1246.692     151.1346    78.601289    15.943493    29.688945 
   17200    237.32742   -378.93515    229018.04   -21106.735    1571.9049    -22678.64   -1009.8642    152.06185    78.602681    15.942894    29.681782 
   17400    244.09005   -193.36223    229018.04   -21043.061    1616.6963   -22659.757   -279.33838    154.11182    78.601256    15.942282    29.682927 
   17600    240.56699   -257.15022    229018.04   -21032.205    1593.3617   -22625.567   -531.79149    155.64548    78.602825    15.945513    29.686007 
   17800    243.07438   -233.51211    229018.04   -21068.626    1609.9691   -22678.596   -448.23547    155.30474    78.602975    15.944702     29.68914 
   18000     245.5418    -242.6115    229018.04   -21094.067    1626.3117   -22720.378   -459.13078    157.55417    78.602019    15.945262    29.708718 
   18200    244.69322   -388.85183    229018.04   -21144.705    1620.6913   -22765.397   -1025.9277    157.93296    78.600581     15.94722    29.702913 
   18400    235.98088   -272.79822    229018.04   -21166.772    1562.9863   -22729.758   -545.82137    158.70429    78.601287    15.948061    29.702941 
   18600    242.97393   -185.58653    229018.04   -21114.175    1609.3038   -22723.479   -219.13149    159.68617    78.603229     15.94833     29.69593 
   18800    245.27089   -260.88697    229018.04   -21121.697    1624.5174   -22746.215   -507.55927    160.41964    78.604342    15.948064    29.686427 
   19000    238.24626   -278.47503    229018.04   -21132.055    1577.9907   -22710.046   -620.57212    162.02597    78.605255    15.949918    29.691234 
   19200    238.24599   -225.89165    229018.04    -21130.48     1577.989   -22708.469   -400.55039    163.74719    78.602797    15.952117     29.67092 
   19400    240.75236   -237.49249    229018.04   -21067.569    1594.5895   -22662.159   -472.66315    166.51548    78.601378    15.951204    29.670933 
   19600    240.40266   -323.85476    229018.04   -21114.465    1592.2734   -22706.738   -786.19791    167.32814    78.601971    15.950496    29.675139 
   19800    235.17126      -286.14    229018.04     -21107.5    1557.6239   -22665.124   -653.40883    169.80679    78.602653    15.949038    29.687091 
   20000    239.02324   -377.27081    229018.04    -21144.02    1583.1369   -22727.156   -995.67821    170.59305    78.602315    15.946932     29.68152 
   20200     236.9333   -428.31273    229018.04   -21144.007    1569.2945   -22713.302   -1187.3058    172.21637    78.600393    15.947206    29.662664 
   20400    242.08306   -375.13815    229018.04   -21250.246    1603.4033    -22853.65   -970.77907    172.52942    78.600796    15.948811    29.666678 
   20600    238.02672   -330.55508    229018.04   -21217.526    1576.5367   -22794.063   -774.49441    172.74718    78.598868    15.947971    29.660647 
   20800    241.90572   -277.98687    229018.04   -21200.989    1602.2286   -22803.218    -609.2088    174.70686    78.600315     15.94824    29.640673 
   21000    241.73427   -388.87897    229018.04   -21172.487    1601.0931    -22773.58   -1059.8051    175.23157    78.604235    15.948324    29.650651 
   21200    240.41594   -357.76401    229018.04   -21077.807    1592.3613   -22670.168   -914.72685    176.12445     78.60576    15.942641    29.644685 
   21400     229.6584   -265.33296    229018.04   -21167.251    1521.1103   -22688.361   -563.33369    176.18369    78.605345    15.941727    29.633271 
   21600    245.14114    -267.4738    229018.04   -21059.498     1623.658   -22683.156   -545.77542    176.34137    78.603757    15.941885    29.634316 
   21800    246.26892   -280.62168    229018.04   -21046.824    1631.1277   -22677.952   -607.96858    178.61706    78.601961    15.939836    29.663375 
   22000    242.41618   -258.73523    229018.04   -21069.622    1605.6096   -22675.231   -517.09482    181.66147    78.602408     15.94076    29.650937 
   22200    238.99598   -443.58467    229018.04   -21041.764    1582.9564    -22624.72   -1226.5018    182.85953    78.602449     15.93738    29.647274 
   22400    233.27632   -366.47101    229018.04   -21088.141     1545.073   -22633.214   -955.99353    184.09714    78.603057    15.935588    29.645505 
   22600    238.35115   -242.18976    229018.04    -21048.27    1578.6855   -22626.955   -441.48467    185.35164    78.603632    15.937451    29.632988 
   22800    245.41299   -452.67192    229018.04    -21027.57    1625.4586   -22653.029   -1296.8488    186.08145    78.604853    15.935709    29.641837 
   23000    235.49373   -309.68472    229018.04   -21090.099    1559.7597   -22649.859   -709.54174    187.45503    78.605608    15.932898    29.642459 
   23200    241.00952   -341.51448    229018.04   -21097.252    1596.2928   -22693.544   -832.61211    188.42621    78.603777    15.930937     29.64555 
   23400    247.56436   -150.26203    229018.04   -21004.791    1639.7079   -22644.499   -125.23045    189.44665    78.600427    15.930882    29.613923 
   23600    238.68163   -354.23639    229018.04   -21096.611    1580.8743   -22677.485   -884.36391    190.06518    78.599351    15.931794    29.603122 
   23800    238.30698   -312.99896    229018.04   -21151.327    1578.3929    -22729.72   -741.47353    191.93201    78.600378    15.930327    29.607921 
   24000    239.11038   -225.02122    229018.04   -21054.473    1583.7141   -22638.187   -380.03666    193.01821     78.60101     15.92953    29.637263 
   24200    244.85412   -164.75694    229018.04   -21093.668     1621.757   -22715.425   -169.76414    193.73672    78.600172    15.928234      29.6276 
   24400    232.95071   -342.82115    229018.04   -21042.339    1542.9164   -22585.256   -841.65221    196.60264    78.598842    15.929184    29.657038 
   24600    236.93754   -330.17445    229018.04   -21061.066    1569.3226   -22630.389   -783.40432    197.77997    78.597806    15.928739    29.674103 
   24800     239.7339   -220.58903    229018.04   -21026.537    1587.8439   -22614.381   -378.99369    199.25918    78.598863    15.927397    29.676604 
   25000    238.52598    -276.1697    229018.04   -21005.899    1579.8434   -22585.742   -572.20578    202.91871    78.600685    15.923742    29.699039 
   25200    246.98334   -272.00944    229018.04   -21029.256    1635.8596   -22665.116   -547.38882    204.74099     78.60043    15.921852    29.705004 
   25400    235.95316   -363.75067    229018.04   -21075.111    1562.8027   -22637.913   -924.93315    204.18061    78.598966    15.920725    29.717418 
   25600    245.63795   -271.32452    229018.04   -21065.135    1626.9485   -22692.084   -589.20337    207.75201    78.597178    15.919809    29.704771 
   25800    236.55792   -260.34041    229018.04   -21096.904    1566.8083   -22663.712   -494.55546    208.45213    78.599224     15.91949    29.706081 
   26000    235.19058   -391.80637    229018.04   -21156.194    1557.7519   -22713.945   -1044.7358    208.87795    78.598583    15.919607    29.709439 
   26200    241.35515   -188.57121    229018.04   -21092.332     1598.582   -22690.914   -248.27774    209.03375     78.60191    15.919167    29.691126 
   26400    236.54292   -258.11231    229018.04   -21169.711    1566.7089    -22736.42   -526.78119    209.99487     78.60256    15.921314    29.698664 
   26600    241.92152   -604.32642    229018.04   -21122.181    1602.3333   -22724.514   -1836.2112    212.35416     78.60014    15.919471    29.712422 
   26800    240.63373   -249.24885    229018.04   -21103.892    1593.8038   -22697.696   -470.30663    214.59172    78.599577    15.920793    29.715289 
   27000    243.45019   -304.40159    229018.04   -21108.702    1612.4583    -22721.16    -688.2984    215.53256    78.598275    15.919412    29.701072 
   27200    248.13777   -370.37673    229018.04   -21040.929    1643.5058   -22684.435   -948.78965    215.93103    78.599124    15.919428    29.699979 
   27400    241.37907   -253.06179    229018.04   -21127.907    1598.7405   -22726.648   -483.66412    217.64516    78.601802    15.919946    29.718747 
   27600    242.07214   -174.02206    229018.04   -21129.094    1603.3309   -22732.425   -205.59292     218.6543    78.601762    15.921455    29.735456 
   27800     234.9416   -374.49455    229018.04   -21204.906    1556.1028   -22761.009    -922.7357    220.05598    78.600947    15.918597      29.7208 
   28000    237.35003   -372.67632    229018.04   -21132.625    1572.0547   -22704.679   -942.30512    220.96085    78.601421    15.914969    29.703773 
   28200    242.08241   -313.95406    229018.04   -21044.457    1603.3989   -22647.856   -732.18001     221.7987     78.60051    15.913887    29.689629 
   28400    243.09358   -265.87956    229018.04   -21046.158    1610.0963   -22656.255   -532.89111    222.82782    78.601773    15.910666    29.681837 
   28600    241.74066   -281.90287    229018.04   -21098.223    1601.1354   -22699.358    -607.8446    224.09684    78.602866    15.908892    29.684109 
   28800    236.39014   -202.46695    229018.04   -21196.582     1565.697   -22762.279    -314.7111    224.45865    78.600901    15.908741    29.690087 
   29000    241.96762   -398.34812    229018.04   -21104.295    1602.6387   -22706.934   -1042.4958    225.54635    78.598395    15.909593    29.691806 
   29200    243.66626   -238.48902    229018.04   -21100.617    1613.8894   -22714.506   -440.90848    227.18203    78.598724    15.911585    29.700496 
   29400    245.09021   -287.67047    229018.04   -21077.398    1623.3207   -22700.719   -616.87482    230.36626    78.597713    15.912592    29.695947 
   29600    244.23463   -359.99794    229018.04   -21102.244    1617.6539   -22719.898   -905.05691    232.24448    78.597617    15.911772    29.675926 
   29800      240.122   -322.96699    229018.04   -21072.489    1590.4145   -22662.903   -779.59308    234.08681    78.599149    15.913249    29.678197 
   30000    235.77434   -367.45191    229018.04   -21066.781    1561.6183   -22628.399    -944.8307    235.61079    78.599403    15.910589    29.688724 
   30200    241.66627   -314.67026    229018.04   -21101.859    1600.6427   -22702.501   -710.06987    235.30162    78.599353    15.914767    29.697249 
   30400    234.87096   -283.37818    229018.04   -21139.394    1555.6349   -22695.029   -650.52978    235.98525    78.601294    15.916026    29.713568 
   30600    237.10069   -246.62156    229018.04   -21197.837    1570.4032    -22768.24   -457.48236    235.94482    78.601796    15.917476     29.67862 
   30800    237.68666   -266.17564    229018.04   -21116.127    1574.2843   -22690.411   -567.15065    236.55366    78.603843     15.91907    29.687332 
   31000    243.09991   -300.06756    229018.04   -21106.146    1610.1382   -22716.285   -688.79128      237.032    78.605615    15.918011    29.680059 
   31200    239.36327    -394.6556    229018.04   -21018.924    1585.3891   -22604.313   -1031.2094    238.00937    78.603328     15.91613    29.683021 
   31400    244.40874   -332.60793    229018.04   -21036.219    1618.8071   -22655.026   -846.88822    239.89396    78.601531    15.913807    29.669115 
   31600    249.65756    -220.5007    229018.04   -20985.228    1653.5719     -22638.8    -404.3175     241.8953    78.600761    15.914337     29.68473 
   31800    243.91013   -288.91675    229018.04   -21050.663    1615.5046   -22666.168   -628.69457    243.11687     78.60044    15.915342    29.678991 
   32000    239.69179   -85.868574    229018.04   -21096.033     1587.565   -22683.598    133.00262    243.94699    78.598591    15.912811    29.687809 
   32200    231.23329   -191.67966    229018.04   -21184.965    1531.5413   -22716.507   -275.41159    245.54334    78.600493    15.913498    29.688473 
   32400    234.39373   -283.53341    229018.04   -21143.472     1552.474   -22695.946   -608.62091    246.03518    78.602858    15.912355    29.714387 
   32600    241.48558   -434.07637    229018.04   -21131.903    1599.4459   -22731.349   -1174.1103    248.26806    78.601853    15.913194     29.72457 
   32800    237.98101   -344.83897    229018.04   -21121.042    1576.2339   -22697.276   -874.14318    249.27027    78.603291     15.91339    29.737108 
   33000    244.42417   -482.51646    229018.04   -21083.159    1618.9092   -22702.068   -1397.2959    251.94966    78.605102       15.912    29.741436 
   33200    238.53185   -422.03825    229018.04   -21091.251    1579.8823   -22671.133   -1138.3832      252.945    78.604123    15.910849    29.763889 
   33400    238.68858   -161.81299    229018.04   -21092.767    1580.9204   -22673.688   -144.25984    254.67257     78.60457      15.9108    29.749802 
   33600    234.00044   -282.82421    229018.04   -21159.581    1549.8692   -22709.451   -603.15446    254.96153    78.604893    15.910717    29.754328 
   33800    239.45754   -383.07189    229018.04   -21082.682    1586.0135   -22668.695   -998.86599     256.8066    78.603703    15.907972    29.765021 
   34000    236.36614   -297.81636    229018.04   -21126.972     1565.538    -22692.51   -669.09251     259.0665    78.602876    15.908624    29.783019 
   34200    238.25014   -333.28503    229018.04   -21119.891    1578.0164   -22697.907   -859.63312    260.51273    78.602687    15.908958     29.79278 
   34400     234.2625   -420.29522    229018.04   -21121.082    1551.6049   -22672.687   -1148.0652    262.65607    78.600799    15.911971    29.801976 
   34600    234.33297   -260.36599    229018.04   -21076.669    1552.0716    -22628.74    -514.1661    263.91521    78.598567    15.913567    29.787282 
   34800    242.49349   -172.78635    229018.04   -21054.373    1606.1217   -22660.495    -179.5319    264.72769    78.596597    15.913868    29.772126 
   35000    237.42897   -317.43469    229018.04   -21031.662    1572.5775   -22604.239   -737.38725    265.93841    78.596217    15.914212    29.792808 
   35200    238.63801   -277.54252    229018.04   -21017.568    1580.5854   -22598.153   -614.02603    266.75169    78.595765     15.91332    29.789693 
   35400    238.25597   -385.89032    229018.04   -20948.453     1578.055   -22526.508   -1067.3342    269.82883     78.59653    15.912379    29.808388 
   35600    232.69433   -368.43816    229018.04   -21079.119    1541.2183   -22620.337    -922.7804     269.9242    78.596118    15.909496    29.813969 
   35800    246.59604   -309.52793    229018.04   -21010.029    1633.2943   -22643.324   -712.86158    270.24241    78.592873    15.908329    29.803449 
   36000    234.37344   -152.86893    229018.04   -21132.615    1552.3397   -22684.955   -116.53032    271.76854    78.593179    15.906353    29.810493 
   36200    235.92132   -382.46025    229018.04     -21129.2    1562.5918   -22691.792   -982.16166    272.77234    78.595099    15.905178    29.814677 
   36400     240.1963   -357.89365    229018.04   -21083.138    1590.9065   -22674.045     -878.092    274.69201    78.597244    15.907143    29.825337 
   36600    242.70916   -281.74947    229018.04   -21125.192    1607.5501   -22732.742   -602.05289    275.84769    78.598118    15.907613    29.821856 
   36800    240.58055   -186.82466    229018.04   -21167.275    1593.4516   -22760.726   -293.70933      276.437    78.596537    15.907577    29.828415 
   37000     235.2894    -293.3317    229018.04   -21140.322    1558.4064   -22698.729   -612.25728    278.36309    78.597983    15.907864    29.814004 
   37200    238.87559    -196.3822    229018.04   -21229.297     1582.159   -22811.456   -269.86427    278.81938    78.599807    15.908205    29.821685 
   37400    243.35852   -520.18268    229018.04   -21174.153    1611.8511   -22786.004   -1533.4203    280.98574    78.601331    15.908953    29.800238 
   37600    241.56274   -36.980772    229018.04   -21107.549    1599.9569   -22707.506    301.68494    280.70465     78.60214    15.910377    29.800225 
   37800    237.38239   -528.15504    229018.04   -21130.963     1572.269   -22703.232   -1618.8356    282.85898    78.603997    15.910518    29.798327 
   38000    238.88161   -299.47919    229018.04   -21105.541    1582.1989    -22687.74   -719.63486     283.0345    78.604162    15.910077    29.796025 
   38200    240.04213   -251.47085    229018.04    -21074.15    1589.8854   -22664.036    -499.3363    285.06919     78.60321    15.911542    29.796631 
   38400    241.60622   -389.07415    229018.04   -21109.006    1600.2449   -22709.251   -1000.8444    287.25458    78.603646    15.910596    29.791745 
   38600    239.81549   -283.38656    229018.04   -21112.409    1588.3843   -22700.793   -617.92365    288.93759    78.604716    15.911068    29.792702 
   38800    237.25543   -372.13292    229018.04   -21119.451    1571.4281   -22690.879   -978.35881    289.94135    78.605097    15.913128    29.787312 
   39000      241.108   -276.59591    229018.04   -21082.376    1596.9451   -22679.321   -561.44297    291.54126    78.604112    15.914732     29.80336 
   39200    228.80925   -384.54325    229018.04   -21190.639     1515.486   -22706.125   -983.86069    293.01371    78.605214    15.915022    29.805159 
   39400    240.75796   -275.32122    229018.04   -21154.467    1594.6266   -22749.094   -579.69981    293.80295    78.604385    15.911822    29.817447 
   39600    238.63124   -340.95453    229018.04   -21176.177    1580.5406   -22756.718     -839.009    295.27439    78.602308    15.909889    29.816293 
   39800    243.81135   -335.07519    229018.04    -20999.52    1614.8503   -22614.371   -842.39647    297.40661     78.60084    15.910625    29.827467 
   40000    237.36148   -482.69601    229018.04   -21093.515    1572.1305   -22665.646   -1367.0519    298.09041    78.601808    15.911334    29.826471 
   40200    233.43723    -197.5394    229018.04   -21177.133    1546.1388   -22723.271   -313.13938    298.26992    78.601792    15.912379    29.816694 
   40400    242.72326    -141.2237    229018.04   -21048.034    1607.6435   -22655.678   -66.977441    299.19279    78.600493    15.912433     29.80698 
   40600    239.93344   -336.49824    229018.04   -21157.163    1589.1655   -22746.328   -841.83703    299.49748    78.601808    15.912722    29.797437 
   40800    234.64757    -409.9333    229018.04   -21094.614    1554.1553    -22648.77   -1140.7637    300.30074    78.603744    15.913597    29.786585 
   41000    246.88467   -272.28409    229018.04   -21029.354    1635.2061    -22664.56   -592.00993    302.85798    78.603837    15.915671    29.769765 
   41200    242.74905   -349.24492    229018.04   -21004.468    1607.8143   -22612.282   -859.01362    305.23712    78.601585    15.913979    29.758441 
   41400    239.99777   -353.25875    229018.04   -21053.867    1589.5916   -22643.458   -922.60667    307.02997    78.601338    15.913494    29.770568 
   41600    244.53232   -261.02913    229018.04   -20981.223    1619.6255   -22600.849    -543.1205    308.67618    78.602384    15.912815     29.78498 
   41800    241.31498   -368.20897    229018.04   -21091.992     1598.316   -22690.308   -950.01863    309.09713    78.604701    15.912774    29.789982 
   42000    243.94021   -131.74396    229018.04   -21144.309    1615.7038   -22760.013   -16.701412    310.82367    78.604348    15.916803    29.791695 
   42200    236.97041   -96.218033    229018.04   -21122.531    1569.5403   -22692.072    104.78949    311.57212    78.604192    15.913697    29.779596 
   42400    246.08537   -167.27993    229018.04   -21104.076     1629.912   -22733.988   -158.18429    314.03156    78.607293    15.911577    29.776449 
   42600    235.81062   -458.20566    229018.04    -21166.85    1561.8586   -22728.709   -1317.5176    316.95687    78.609737    15.910052    29.768827 
   42800     241.4113   -291.04744    229018.04   -21055.045    1598.9539   -22653.998   -671.82137     318.8128    78.612493    15.910477    29.767673 
   43000    249.46961   -259.60626    229018.04    -20984.97     1652.327   -22637.297   -522.28519    320.15957    78.614744    15.913268    29.763712 
   43200    241.52357   -305.09197    229018.04   -21031.717    1599.6976   -22631.415   -733.45418    321.69172    78.617396    15.912747    29.764102 
   43400    240.48871    -251.4601    229018.04   -21059.623    1592.8433   -22652.466    -471.2328    323.30724    78.618164    15.914112    29.742506 
   43600    236.73502   -287.54024    229018.04   -21084.889    1567.9812    -22652.87   -682.31818    324.95531    78.617112    15.912967    29.723748 
   43800    243.18945   -389.56697    229018.04   -21036.035    1610.7313   -22646.766   -1030.9038    324.97594    78.617222    15.912132    29.714401 
   44000    237.40956    -376.0669    229018.04   -21090.256     1572.449   -22662.705   -961.97435    326.60228    78.616793    15.911958    29.705712 
   44200    237.17891   -321.63285    229018.04   -21030.161    1570.9213   -22601.082    -765.6004    328.71827    78.615533     15.91087    29.686778 
   44400    243.61667   -342.40112    229018.04   -21029.073    1613.5609   -22642.634   -854.52533    330.38971    78.614216    15.909997    29.687871 
   44600    242.08478   -309.07667    229018.04   -21035.336    1603.4147   -22638.751   -735.29881    332.94093    78.614762    15.911747    29.696656 
   44800    238.63887   -353.29189    229018.04   -21080.687    1580.5911   -22661.278   -886.88501    333.73657    78.615323    15.914763    29.704357 
   45000    239.67902   -375.09557    229018.04   -21111.995    1587.4804   -22699.476   -989.11355    335.04982    78.615752    15.915135    29.700626 
   45200    247.60787    -271.4972    229018.04   -20982.773    1639.9961   -22622.769   -584.58628     333.6947    78.616139    15.914791    29.677311 
   45400    248.74923   -525.08423    229018.04   -20948.395    1647.5557    -22595.95   -1569.9439    337.07876     78.61591    15.917062    29.671232 
   45600     242.3733   -202.72725    229018.04   -20957.835    1605.3256    -22563.16   -322.67827    337.70645     78.61522    15.917134    29.664361 
   45800    236.40345   -292.40952    229018.04   -21058.565    1565.7852    -22624.35   -650.59298    338.04693    78.615333    15.919325    29.668392 
   46000    239.49047    -347.1863    229018.04   -21089.967    1586.2316   -22676.198   -865.72439    338.87492    78.614838    15.919393    29.673198 
   46200    239.92131   -294.56697    229018.04   -21062.885    1589.0852    -22651.97   -669.59373    340.97529    78.615053    15.919028    29.691439 
   46400     243.1918   -298.26703    229018.04   -21082.563    1610.7468    -22693.31    -666.7365    341.99728    78.613176    15.920587    29.704355 
   46600    236.60172    -353.6194    229018.04    -21117.06    1567.0984   -22684.159   -926.65971    343.80878    78.613934    15.920244    29.690985 
   46800    243.88743   -201.40959    229018.04    -21084.31    1615.3542   -22699.664    -304.5968     345.2063    78.615073    15.918655    29.701261 
   47000    251.70242   -378.84409    229018.04   -21048.998    1667.1157   -22716.114   -971.67134    347.80804    78.614252    15.917899    29.704735 
   47200    239.75234    -404.2734    229018.04   -21100.004     1587.966    -22687.97   -1101.4071    349.49872    78.613184    15.916612    29.699822 
   47400    240.54487   -279.35747    229018.04   -21145.094    1593.2153   -22738.309   -628.39637    350.75557    78.612259    15.917485    29.687421 
   47600     250.3623   -348.36622    229018.04   -21086.168    1658.2396   -22744.408   -879.14456    353.13771    78.611399     15.91559    29.690672 
   47800    243.02591   -177.29825    229018.04   -21093.534    1609.6481   -22703.182   -233.02983    352.33075    78.611082     15.91413    29.696742 
   48000    248.68056   -301.23643    229018.04   -21110.817    1647.1009   -22757.918   -707.43891    353.70575    78.611935    15.913491    29.702312 
   48200    244.65938    -317.6709    229018.04   -21120.656    1620.4671   -22741.123   -749.74613    354.24034    78.610607    15.912715    29.698749 
   48400     234.9616   -253.69068    229018.04   -21159.723    1556.2353   -22715.958   -500.69601     355.4249     78.60987     15.91372    29.695241 
   48600    238.73208   -360.12618    229018.04   -21111.804    1581.2085   -22693.012   -939.02816     355.7769    78.608799    15.912923     29.67863 
   48800    246.49957   -310.78385    229018.04   -21089.024    1632.6554    -22721.68   -722.20866    356.54249    78.609082     15.91004    29.685063 
   49000    245.80561   -61.281167    229018.04   -21132.715     1628.059   -22760.774    252.66639    358.78528     78.60922    15.908924    29.669123 
   49200    243.35641   -361.00319    229018.04   -21119.511    1611.8371   -22731.348   -947.59747    361.88262     78.60994    15.910134    29.663729 
   49400    242.54576   -367.42371    229018.04   -21097.709    1606.4679   -22704.177   -973.74119    363.45521    78.608612     15.91245    29.659972 
   49600    242.53419   -341.35949    229018.04   -21129.469    1606.3912    -22735.86   -876.13536    365.95027    78.606177    15.913851    29.672528 
   49800    241.69144   -135.99633    229018.04   -21195.285    1600.8094   -22796.095   -45.716164    367.46843    78.608461    15.913536    29.657874 
   50000    242.21333   -450.48142    229018.04    -21197.97    1604.2661   -22802.236   -1265.4663    371.42357    78.610482    15.912032    29.641009 
   50200      235.719   -289.42489    229018.04   -21152.339    1561.2518   -22713.591    -640.5589    371.90395    78.609182     15.91352    29.644302 
   50400    241.36392   -43.028917    229018.04   -21140.041    1598.6401   -22738.681    284.54173    371.19743    78.612135    15.912259    29.632174 
   50600    238.70592   -442.48717    229018.04    -21144.97    1581.0352   -22726.005   -1188.9593    375.38346    78.613662    15.911796    29.642962 
   50800    237.51997    -410.2974    229018.04   -21155.812    1573.1803   -22728.992   -1098.1464     376.2834    78.613983    15.908417    29.652388 
   51000    242.56564   -237.07441    229018.04   -21119.951    1606.5995   -22726.551    -462.5829    376.71493    78.614058    15.906847    29.655026 
   51200    243.12334    -312.4395    229018.04   -21079.375    1610.2934   -22689.669   -743.02148    379.47766    78.612937    15.903345    29.640824 
   51400    239.09442   -283.09417    229018.04   -21155.656    1583.6084   -22739.264   -639.49119    381.38806    78.612678    15.899862    29.623267 
   51600    236.87368   -256.28439    229018.04   -21143.389    1568.8997   -22712.289   -514.18453    383.42295    78.613949    15.898459     29.60323 
   51800    241.83743   -353.31071    229018.04   -21070.363    1601.7763   -22672.139   -915.90468    382.15073    78.613297    15.896999    29.588797 
   52000    247.27182   -208.78366    229018.04   -21052.841    1637.7702   -22690.611   -353.20577    381.62582    78.612385    15.896545    29.571711 
   52200    243.48493   -231.75224    229018.04   -21066.848    1612.6883   -22679.537     -426.852    381.00219    78.613223    15.898328    29.573481 
   52400    239.56604   -311.39325    229018.04   -21059.908    1586.7321    -22646.64   -756.88787    382.51698    78.612299    15.896352    29.558833 
   52600    240.93027   -498.23824    229018.04   -20987.203    1595.7679   -22582.971   -1430.4012    382.72903    78.614161    15.895329    29.528724 
   52800    237.36251   -209.74102    229018.04   -21127.858    1572.1373   -22699.995   -350.85298    383.93076    78.615045    15.897015    29.525753 
   53000    239.92822   -234.38856    229018.04    -21084.58    1589.1309   -22673.711   -420.28745    385.70734    78.616178    15.898147     29.50568 
   53200     237.5874   -237.80338    229018.04   -21105.109    1573.6268   -22678.736   -478.42121    385.91954    78.616759     15.89526    29.470978 
   53400    235.88297   -342.48182    229018.04    -21065.84    1562.3378   -22628.178   -834.24445    385.75072    78.617271    15.892312    29.479756 
   53600    235.68552   -369.25481    229018.04   -21081.198      1561.03   -22642.228   -937.31907    388.57214    78.617363    15.890884    29.459891 
   53800    237.31707   -305.67563    229018.04   -21093.143    1571.8364    -22664.98   -700.41757    389.41227    78.621186    15.889851    29.473756 
   54000    237.95948   -332.44123    229018.04   -20992.899    1576.0913    -22568.99   -816.59289    391.50863    78.620217    15.889995    29.477494 
   54200    231.98169   -248.96194    229018.04   -21068.197    1536.4982   -22604.695   -494.96969    393.41503    78.620101    15.889166    29.491951 
   54400    236.59291   -160.96231    229018.04   -21156.932      1567.04   -22723.972   -115.41357     395.5397    78.619668    15.886432    29.499388 
   54600    242.67886   -254.20028    229018.04   -21099.171    1607.3495    -22706.52   -555.65991    395.23605     78.61982    15.887295    29.525322 
   54800    245.24944   -256.19292    229018.04   -21085.857    1624.3753   -22710.233   -516.70702     396.4978    78.618356    15.884788    29.519992 
   55000    239.20588   -401.13026    229018.04   -21094.179    1584.3466   -22678.526   -1091.5337    398.61715     78.61866    15.886388     29.49559 
   55200    245.31494   -243.95604    229018.04   -21052.811    1624.8092    -22677.62   -447.17931    396.23159    78.619604    15.886503    29.475465 
   55400    239.70324   -186.56767    229018.04   -21064.859    1587.6408     -22652.5   -224.16443    400.18018    78.619362    15.887201    29.473983 
   55600    242.77412   -236.96539    229018.04    -21036.26    1607.9804    -22644.24   -439.03224    403.21544    78.619158    15.888612    29.438749 
   55800    247.75722   -415.80603    229018.04    -21142.18    1640.9852   -22783.166   -1137.1208    405.85913    78.619544    15.890787    29.433948 
   56000    240.73428   -177.88354    229018.04   -21132.011    1594.4698   -22726.481   -221.15149    406.49157     78.61947    15.890424     29.44188 
   56200    244.82196   -226.47317    229018.04   -21088.405     1621.544   -22709.949   -408.44696    407.13215    78.621009    15.888731    29.430439 
   56400    243.19305    -404.6327    229018.04   -21104.391    1610.7551   -22715.146   -1120.6701    409.89839    78.621039    15.889678    29.426719 
   56600    236.67448   -415.03311    229018.04   -21205.767    1567.5803   -22773.347   -1178.9457    409.85925     78.62258    15.892747    29.400363 
   56800    234.87585    -167.8827    229018.04   -21175.967    1555.6673   -22731.635   -207.31728    412.72838    78.622307    15.892819    29.412993 
   57000    231.65289   -234.67314    229018.04   -21195.157    1534.3205   -22729.477   -474.48048    411.54318    78.624319    15.893217    29.422707 
   57200    236.74823   -198.31644    229018.04   -21202.462    1568.0688   -22770.531   -297.42119    413.10134    78.623789    15.893469    29.415268 
   57400    232.42286   -308.41091    229018.04   -21243.489    1539.4202   -22782.909    -741.4789    413.55338    78.623472    15.890887    29.410415 
   57600    239.72236    -199.1508    229018.04     -21132.5    1587.7675   -22720.268   -307.07087    414.83004    78.624354    15.889621     29.40537 
   57800    240.13146   -332.36622    229018.04   -21131.017    1590.4771   -22721.494   -844.10307     418.0635    78.623346    15.887088    29.402216 
   58000    243.31671   -284.95374    229018.04    -21101.33    1611.5742   -22712.904   -629.74461    417.77804    78.624478    15.887024    29.417084 
   58200    241.45402   -160.70612    229018.04   -21086.067    1599.2369   -22685.304   -133.98748     418.5024    78.625041    15.885532    29.403562 
   58400    231.87795   -303.82511    229018.04   -21204.934    1535.8111   -22740.745   -712.68732    420.35038    78.623678    15.887218    29.386097 
   58600    241.53678   -221.46818    229018.04   -21121.497    1599.7851   -22721.282   -371.92374     418.3301    78.623718    15.889543    29.363377 
   58800    234.67882   -274.60183    229018.04   -21135.621    1554.3623   -22689.984   -588.12395     419.6108    78.623024    15.886657    29.349441 
   59000    235.38701   -218.56614    229018.04   -21139.712    1559.0529   -22698.765    -369.3228    420.91627    78.622561    15.884433    29.329654 
   59200    232.82479   -244.87448    229018.04   -21184.238    1542.0824    -22726.32   -487.34007    419.69307    78.621712     15.88461    29.319652 
   59400    241.03144   -294.34231    229018.04   -21126.972     1596.438    -22723.41   -667.45786    420.88737    78.624153    15.884044    29.322976 
   59600    242.16317   -239.74252    229018.04   -21046.866    1603.9338     -22650.8   -460.36225    420.01329    78.625402    15.882018    29.338563 
   59800    244.97231   -331.28663    229018.04   -21012.234    1622.5398   -22634.773   -795.09639    419.52259    78.624973    15.883416    29.359708 
   60000     238.2287   -401.24231    229018.04   -21115.459    1577.8745   -22693.333   -1103.6684    418.91245    78.624991    15.885816    29.357306 
   60200    248.26506   -438.48736    229018.04   -21034.933    1644.3489   -22679.282   -1199.0117     422.0803    78.625554    15.884993    29.352678 
   60400    241.11977   -413.83437    229018.04   -21113.343     1597.023   -22710.366   -1143.3078    422.18995    78.625819    15.886138    29.372722 
   60600    240.00088   -265.33045    229018.04   -21110.033    1589.6122   -22699.645   -550.22562    421.91186    78.626337    15.886948    29.363958 
   60800     235.4814   -280.98207    229018.04   -21155.905    1559.6781   -22715.583   -627.88611    423.91669    78.626367    15.887306     29.36475 
   61000    236.54889   -268.91514    229018.04   -21133.194    1566.7484   -22699.943   -589.08244    423.46843    78.626024    15.885588    29.383629 
   61200     230.7147   -286.61771    229018.04   -21210.314    1528.1065   -22738.421   -663.78609    424.74902     78.62375    15.884402    29.388763 
   61400    241.36464   -408.23283    229018.04   -21106.165    1598.6449   -22704.809   -1075.5359     424.5353    78.624774     15.88232    29.395525 
   61600    238.99021   -433.72299    229018.04   -21062.649    1582.9182   -22645.567   -1233.9009    424.98313    78.626303    15.880271    29.379356 
   61800    238.50918   -217.96454    229018.04   -21021.847    1579.7322   -22601.579   -381.02911    427.06019    78.624695    15.877901    29.391968 
   62000    234.72964   -219.94481    229018.04    -21134.22    1554.6989   -22688.919   -367.42553    430.25309    78.622914    15.875132    29.402464 
   62200    238.43764   -238.96599    229018.04   -21082.873    1579.2583   -22662.131   -436.80995     431.5845    78.622596    15.876165    29.398227 
   62400     245.3694   -265.64537    229018.04   -21058.869    1625.1698   -22684.039   -562.99842    431.76942     78.62089    15.876901     29.40004 
   62600    237.99347   -461.51934    229018.04   -21092.544    1576.3164    -22668.86   -1280.1539    435.02321    78.622662    15.876609    29.382985 
   62800      242.021   -321.68333    229018.04   -21105.825    1602.9922   -22708.817   -747.46942    436.45424    78.622293    15.877241    29.385911 
   63000    238.79668   -230.92234    229018.04   -21098.218    1581.6364   -22679.854   -424.00807    435.67359     78.62317    15.874433    29.386866 
   63200      230.667    -130.4373    229018.04   -21195.337    1527.7905   -22723.128   -33.909403    435.94797    78.622849    15.874204    29.380474 
   63400    244.72781   -208.62428    229018.04   -21056.728    1620.9204   -22677.648   -361.05708    436.51121     78.62188    15.872814    29.349921 
   63600    242.61539   -356.65143    229018.04   -21036.418    1606.9291   -22643.347   -915.97551    436.67294    78.620156    15.872114     29.33579 
   63800    242.86615   -166.75846    229018.04    -20998.81    1608.5899     -22607.4   -169.76423    437.51713    78.619546    15.870817    29.327833 
   64000    235.46072   -425.50461    229018.04   -21071.167    1559.5411   -22630.708   -1185.7236    438.82203    78.619598    15.869852    29.300198 
   64200    240.09166    -255.3197    229018.04   -21046.975    1590.2134   -22637.189   -432.74773    439.93342    78.617916    15.868828     29.30007 
   64400    243.44905   -414.10842    229018.04   -21009.922    1612.4507   -22622.372   -1104.7322    441.59395     78.61697        15.87    29.281659 
   64600    237.48724   -403.25946    229018.04   -21079.084    1572.9634   -22652.047   -1116.5157    444.91336    78.617925    15.871579    29.277441 
   64800    245.12336   -57.554117    229018.04   -21003.045    1623.5403   -22626.586     236.7677    445.67961    78.617863    15.868955       29.275 
   65000    243.83531   -278.96017    229018.04   -21086.302     1615.009   -22701.311   -638.49917     448.0398    78.616416    15.869391    29.279551 
   65200    241.16079   -532.85085    229018.04   -21115.274    1597.2947   -22712.569   -1583.6093    448.13517    78.616131    15.869322    29.299187 
   65400     246.9254   -255.15144    229018.04   -21029.052    1635.4758   -22664.528   -548.10133    450.08397    78.616511    15.867533    29.288375 
   65600    244.28983   -315.91619    229018.04   -21032.604    1618.0195   -22650.623   -734.32794    450.24077    78.617074    15.867444    29.303433 
   65800    233.60715   -239.35774    229018.04    -21095.52    1547.2642   -22642.784   -475.65971    451.27003    78.616344    15.865973      29.3089 
   66000    236.05747   -302.93247    229018.04   -21135.591    1563.4936   -22699.085   -675.37766    451.07972    78.616656    15.865852    29.318696 
   66200    240.13026   -239.81582    229018.04   -21048.214    1590.4692   -22638.683   -473.34562    452.20954    78.617502     15.86638    29.313211 
   66400    238.99229   -190.86422    229018.04   -21118.447     1582.932   -22701.379   -261.11102    452.73003     78.61844    15.866273    29.329656 
   66600    233.76131   -380.08328    229018.04   -21093.452    1548.2853   -22641.737   -1046.6205     456.2643    78.616888    15.867798     29.34544 
   66800    236.47317   -296.11489    229018.04   -21141.844    1566.2469   -22708.091   -671.60642    457.91198    78.614524    15.868571    29.342235 
   67000    236.32854   -312.30537    229018.04   -21128.563     1565.289   -22693.852   -711.19204    461.25825    78.614093    15.871001    29.330769 
   67200    235.91115   -326.44542    229018.04   -21173.257    1562.5245   -22735.782   -772.10684    461.27313    78.614335    15.873303    29.319379 
   67400    241.46292   -409.47864    229018.04   -21100.211    1599.2958   -22699.507   -1106.4189    464.82141    78.613056    15.873142    29.327657 
   67600    240.03896   -224.26446    229018.04   -21147.536    1589.8644     -22737.4   -427.15223    468.53076    78.611521    15.870889    29.344621 
   67800    240.63724   -325.29219    229018.04   -21139.639     1593.827   -22733.466   -772.12322    473.01352    78.612672     15.87147    29.327613 
   68000    238.64569   -203.32927    229018.04   -21173.284    1580.6363    -22753.92   -306.20937     474.7275    78.613363    15.874739    29.308815 
   68200    241.77914   -355.12624    229018.04    -21179.33    1601.3903    -22780.72   -900.07866     476.0676    78.613849    15.875185    29.304719 
   68400    248.38265   -204.21077    229018.04   -21031.821    1645.1277   -22676.948   -286.46771    479.24092    78.613837    15.874519    29.296101 
   68600    244.15695   -543.70335    229018.04   -21056.524    1617.1394   -22673.663   -1641.2793    481.49666    78.613827    15.874113    29.318196 
   68800    240.66155   -113.96083    229018.04   -21039.229     1593.988   -22633.217    1.7606219    479.01764    78.614151    15.874125    29.327978 
   69000    246.14932   -309.06579    229018.04   -21033.042    1630.3356   -22663.378    -694.8346    483.15662    78.612214    15.874746    29.331323 
   69200    237.71942   -204.00625    229018.04   -21094.353    1574.5013   -22668.854   -306.61611    482.49065    78.612388    15.876046     29.32183 
   69400    243.32079   -311.94477    229018.04   -21078.098    1611.6012   -22689.699   -730.20722    486.32842     78.61215    15.876282    29.343912 
   69600    242.93178   -544.87075    229018.04    -21073.95    1609.0246   -22682.974   -1633.2522     487.6091    78.611657    15.878411    29.357525 
   69800    241.43108   -165.55458    229018.04   -21073.225    1599.0849    -22672.31   -138.07034    487.59402    78.612032    15.878046    29.346822 
   70000    231.19808   -326.69735    229018.04   -21133.842    1531.3081    -22665.15   -752.35213    490.70509    78.611751    15.878434     29.34359 
   70200    242.05417   -138.05029    229018.04   -21134.371    1603.2119   -22737.582   -44.102199    491.27124    78.613745    15.879273     29.36806 
   70400    236.82058     -368.869    229018.04   -21104.361    1568.5479   -22672.909   -942.75677    489.85304    78.614259     15.87931    29.379542 
   70600     246.1403    -71.55216    229018.04   -21080.599    1630.2758   -22710.874    221.26873      489.234    78.615551    15.878491    29.410271 
   70800    232.74932   -326.15826    229018.04   -21131.911    1541.5825   -22673.493    -780.9633    490.81141    78.617323    15.877353     29.40901 
   71000    240.49112   -211.02298    229018.04   -21115.979    1592.8592   -22708.838   -331.50889    491.30882    78.617726    15.876212    29.405671 
   71200    248.66085   -328.78814    229018.04   -21021.018    1646.9703   -22667.988    -772.9277     492.8387      78.6195    15.876894    29.381591 
   71400    247.73526   -204.29602    229018.04   -21089.579    1640.8398   -22730.418   -333.23147    494.62165    78.619973    15.877869    29.391036 
   71600    239.44257   -116.43343    229018.04   -21119.529    1585.9143   -22705.443    37.182182     496.5554    78.619285    15.877028    29.416613 
   71800    242.03894   -419.26489    229018.04   -21123.558     1603.111   -22726.669   -1129.2619    500.34651    78.621248    15.876576    29.421707 
   72000    237.16309   -345.21427    229018.04   -21118.824    1570.8165    -22689.64   -851.37695    500.01414    78.621463    15.876051    29.424873 
   72200    244.43975   -290.93819    229018.04   -21135.455    1619.0124   -22754.467   -623.63024    499.58645    78.622757     15.87545    29.432851 
   72400    241.32306   -208.82004    229018.04   -21114.241    1598.3695    -22712.61   -314.99789    497.65686    78.622811    15.875751    29.463684 
   72600     243.9586   -370.89219    229018.04   -21127.407    1615.8256   -22743.232   -951.26914    497.09587    78.622751    15.874803    29.482562 
   72800    239.94093   -176.29127    229018.04   -21155.821    1589.2151   -22745.037   -190.56822    496.72705    78.621879    15.875992    29.463662 
   73000    236.60943   -291.69336    229018.04   -21211.031    1567.1494    -22778.18   -690.50786    497.15695     78.62339    15.875942    29.457845 
   73200    239.90521   -440.05796    229018.04   -21082.584    1588.9785   -22671.562   -1216.0913    497.78706    78.622981    15.875084    29.444903 
   73400    241.39053   -258.44866    229018.04   -21072.528    1598.8164   -22671.345   -538.10617    496.93147    78.623767    15.874852    29.459587 
   73600    243.29405   -366.42672    229018.04   -21121.761    1611.4241   -22733.185   -946.25544    498.67183    78.625611    15.873135    29.478296 
   73800    244.29175   -368.72824    229018.04   -21075.753    1618.0322   -22693.786    -991.7772    499.36599    78.625338    15.870667     29.46104 
   74000    244.37194   -255.98474    229018.04   -21006.248    1618.5633   -22624.811    -533.0111    502.34056    78.625607    15.868117    29.461169 
   74200    240.00113   -322.22978    229018.04   -21109.438    1589.6139   -22699.051   -766.77927    504.87992    78.625391    15.865532    29.437096 
   74400    237.96068   -357.46242    229018.04   -21149.839    1576.0992   -22725.938   -943.57888    505.49692    78.623563    15.862277    29.437133 
   74600    240.14855    -322.5301    229018.04    -21158.59    1590.5903   -22749.181   -748.06761     505.8536    78.622943    15.859661    29.431592 
   74800    243.11717   -186.86448    229018.04   -21077.634    1610.2525   -22687.887   -204.98486    507.07243    78.623819    15.857435    29.414528 
   75000    239.21739   -193.60173    229018.04   -21131.896    1584.4229   -22716.319   -276.94554    507.36233    78.622937    15.856594    29.412013 
   75200     240.4059   -424.46262    229018.04    -21092.54    1592.2948   -22684.835   -1126.1064    511.58928    78.620082    15.856327    29.410537 
   75400    249.30495   -343.23429    229018.04   -21086.031    1651.2364   -22737.267   -862.00803    514.56456    78.620928    15.859748    29.412199 
   75600    240.93969   -486.05704    229018.04   -21087.651    1595.8303   -22683.481   -1418.5037     514.3574    78.620045    15.864237    29.395931 
   75800    240.02083   -303.54724    229018.04   -21111.427    1589.7443   -22701.171   -678.73185    515.08339    78.619184    15.863652    29.435218 
   76000    243.25889   -119.45901    229018.04   -21122.572    1611.1912   -22733.763    6.5280215    516.28305    78.619529    15.861526    29.438095 
   76200    227.88931   -303.70054    229018.04   -21162.491    1509.3929   -22671.884   -682.37363    517.79818    78.619727    15.861924    29.464197 
   76400    232.08879   -335.75938    229018.04   -21182.497    1537.2076   -22719.705   -814.03959    520.36755    78.620283    15.862952    29.460286 
   76600    237.03435   -368.08709    229018.04   -21156.122    1569.9638   -22726.085   -942.34585    518.84035    78.621067    15.862809    29.461898 
   76800    240.07568   -207.10683    229018.04   -21050.425    1590.1077   -22640.533   -334.20049    517.78048    78.623265    15.859944    29.471665 
   77000    236.73726     -311.551    229018.04   -21175.412    1567.9961   -22743.408   -732.38417    520.62831    78.626114    15.860023    29.476983 
   77200    242.81695   -292.82409    229018.04   -21178.004     1608.264   -22786.268   -636.38438    522.38197    78.626767    15.861681    29.470501 
   77400    239.69399   -362.25432    229018.04   -21192.787    1587.5796   -22780.367   -923.15867    520.44549    78.628443    15.861479    29.470345 
   77600    239.16799    -159.9107    229018.04   -21172.236    1584.0957   -22756.332   -145.62198    520.33439    78.628825    15.861679     29.47064 
   77800    238.70284   -301.96287    229018.04   -21193.353    1581.0148   -22774.368   -696.89343    523.07052    78.627743    15.863203    29.486983 
   78000    234.73981   -221.66793    229018.04   -21234.756    1554.7663   -22789.522   -353.32335    525.75438    78.629533    15.865031    29.470494 
   78200    242.06586   -252.11012    229018.04   -21149.971    1603.2893    -22753.26   -476.71019    529.02981    78.628993    15.867042    29.458093 
   78400    242.25487   -328.61159    229018.04   -21171.814    1604.5412   -22776.355   -800.47448    529.08077     78.62874    15.869684    29.468633 
   78600    238.85072   -216.46435    229018.04   -21193.507    1581.9943   -22775.501   -361.94606    529.03916    78.629019    15.870848    29.449407 
   78800    242.80511   -167.59897    229018.04   -21202.019    1608.1856   -22810.205   -163.97195    531.35752    78.628756     15.86883    29.473099 
   79000    234.61088   -205.10296    229018.04   -21166.186    1553.9123   -22720.099   -321.87396    533.60097    78.628717    15.866482    29.451306 
   79200    239.29287   -222.48611    229018.04   -21155.491    1584.9228   -22740.413   -379.80622    532.87368    78.630057    15.865904    29.459846 
   79400    237.23235   -244.52865    229018.04   -21238.555    1571.2752    -22809.83   -443.19441    535.46442    78.630504    15.864722    29.456182 
   79600    241.95124   -279.74473    229018.04   -21238.928    1602.5301   -22841.459     -586.735    539.65248    78.632036    15.865015    29.450228 
   79800    243.18729   -353.14136    229018.04   -21220.457     1610.717   -22831.174    -865.9772    542.61884    78.631772    15.863743    29.452465 
   80000    238.38558   -40.391231    229018.04   -21265.233    1578.9135   -22844.146     339.3551    543.64402    78.631939    15.861793    29.470139 
   80200    240.94655   -218.26435    229018.04   -21252.186    1595.8757   -22848.062   -387.92973    542.73788    78.631834    15.856999    29.475958 
   80400    229.49259   -482.17873    229018.04   -21303.487     1520.012   -22823.499   -1398.9578    545.17364    78.629939    15.858732    29.474107 
   80600    241.47171   -388.33993    229018.04   -21138.876     1599.354    -22738.23   -1002.4369    541.92636    78.629692    15.861105    29.480391 
   80800    243.83227   -348.27453    229018.04   -21195.955    1614.9889   -22810.944   -882.14901    542.22415    78.630588     15.86004     29.46743 
   81000    243.15664   -338.89468    229018.04   -21112.296    1610.5139    -22722.81     -815.931    543.03414    78.633262     15.85796    29.468103 
   81200    239.90573   -199.79056    229018.04   -21097.347     1588.982   -22686.329   -319.47619    543.54836    78.636018    15.860049    29.450642 
   81400    236.73668   -199.24365    229018.04   -21145.333    1567.9923   -22713.325   -299.49141    544.62858    78.635982    15.861016    29.439681 
   81600    238.94962   -419.55349    229018.04   -21027.723    1582.6494   -22610.373   -1136.7301    544.75914    78.635822    15.861948    29.422465 
   81800    243.74064   -193.80251    229018.04   -21029.319     1614.382   -22643.701   -249.32342    545.58148    78.635361    15.861532     29.42827 
   82000    245.03163    -335.5494    229018.04   -20981.885    1622.9327   -22604.818   -828.16895    545.89862    78.634084    15.861772    29.412505 
   82200    235.84465   -341.55454    229018.04   -21081.751     1562.084   -22643.835   -850.20459    547.97543    78.636054     15.86199    29.404845 
   82400    239.75739   -290.29385    229018.04     -21081.1    1587.9995     -22669.1    -650.5367    550.57812    78.637141    15.860707    29.413601 
   82600    240.44771   -246.74005    229018.04     -21058.8    1592.5717   -22651.372   -478.77452    553.47393    78.638457    15.859101    29.411777 
   82800    244.92134   -224.38618    229018.04   -21081.598    1622.2022     -22703.8   -433.91141    555.94766    78.639763    15.858417    29.414293 
   83000     240.3955   -321.65676    229018.04   -21118.782    1592.2259   -22711.008   -731.17131    558.61676    78.642371     15.85796    29.414093 
   83200    238.29202   -161.61722    229018.04   -21150.655    1578.2938   -22728.948   -151.64909    561.42675    78.643015    15.859357    29.413812 
   83400    240.21958   -392.05931    229018.04   -21161.092    1591.0607   -22752.153   -1029.6272    563.24463    78.642719    15.858471    29.413449 
   83600    234.23351   -312.58134    229018.04   -21140.537    1551.4128    -22691.95   -732.79493    562.18985     78.64381    15.856865    29.429777 
   83800    230.74481   -46.109924    229018.04   -21155.271    1528.3059   -22683.577    276.34351    562.37219    78.642388     15.85652    29.439041 
   84000    236.73055    -267.0583    229018.04   -21156.118    1567.9517    -22724.07   -532.19579    564.86485    78.639791    15.855518    29.429412 
   84200    236.48475   -290.96847    229018.04   -21162.913    1566.3236   -22729.237   -596.61145    565.81361    78.641032    15.854614    29.432239 
   84400    240.29677   -229.46751    229018.04   -21096.229     1591.572   -22687.801   -409.37489    567.61431    78.642775    15.853089     29.41033 
   84600    238.82195   -435.38747    229018.04   -21128.826    1581.8037   -22710.629   -1199.1366     569.3149    78.644893    15.852949    29.397203 
   84800    235.10918   -285.86923    229018.04   -21159.867    1557.2127   -22717.079   -618.01999     567.7883    78.643866    15.853292    29.390683 
   85000    237.91214   -421.55642    229018.04   -21098.518    1575.7777   -22674.295   -1158.9706     565.8472    78.643845    15.852076    29.389246 
   85200     244.1386    -345.9141    229018.04   -21041.721    1617.0178   -22658.739   -826.08641    565.60246    78.643772    15.849977    29.403623 
   85400    240.72529    -222.3957    229018.04   -21123.589    1594.4102   -22717.999   -340.38084    565.29486    78.644633     15.84818    29.404348 
   85600    238.95406   -289.88862    229018.04   -21075.666    1582.6788   -22658.345   -654.47213    564.62972    78.644992    15.849121    29.386935 
   85800    244.39583   -243.33051    229018.04   -21052.484    1618.7215   -22671.205   -477.17185     566.6574    78.644554     15.84978    29.381792 
   86000    242.64762   -398.66268    229018.04   -21012.252    1607.1425   -22619.394   -1061.6076    567.69638    78.643411    15.847752    29.403396 
   86200    238.94055   -187.03781    229018.04   -21082.491    1582.5893    -22665.08   -273.39991    568.26086    78.643807    15.850772    29.414382 
   86400    236.50472   -359.70594    229018.04   -21084.766    1566.4559   -22651.222   -897.82633    569.12706    78.644341    15.851989    29.415461 
   86600    252.53897   -205.15621    229018.04   -21048.754    1672.6565    -22721.41    -314.1723    568.97415    78.645256    15.852534    29.388066 
   86800    237.75543    -294.6432    229018.04   -21112.825    1574.7398   -22687.565   -662.02447    572.01954     78.64669    15.851823    29.394977 
   87000    236.18908   -345.91073    229018.04   -21096.749    1564.3653   -22661.114   -879.81166    572.86153      78.6472    15.852805    29.411568 
   87200    237.48784   -275.62641    229018.04   -21069.146    1572.9675   -22642.113    -593.2694     573.8841    78.645715    15.855057    29.423903 
   87400    244.04276   -208.60084    229018.04   -21091.376     1616.383   -22707.759   -340.48679    571.90315    78.645652    15.855969    29.441809 
   87600    239.59881   -346.45389    229018.04   -21070.067    1586.9492   -22657.016   -874.62751    572.44637    78.644559    15.857537    29.436465 
   87800     238.4236   -304.65007    229018.04   -21217.399    1579.1653   -22796.565   -733.67027     572.8115    78.644123    15.857542    29.423766 
   88000    240.71048   -236.07883    229018.04   -21027.544    1594.3122   -22621.856   -447.23404    573.54902    78.642569     15.85586    29.432854 
   88200    241.73099   -235.14973    229018.04   -20989.946    1601.0713   -22591.017   -455.46703    577.49582    78.642383    15.856745    29.431763 
   88400      243.364   -404.95219    229018.04   -21048.167    1611.8874   -22660.054   -1114.5163    576.25104    78.642487     15.85571    29.410521 
   88600    240.73479   -112.93657    229018.04    -21171.98    1594.4732   -22766.453    72.571225    573.82621    78.643944    15.855104    29.408631 
   88800    237.28461   -271.78518    229018.04   -21168.878    1571.6214   -22740.499     -538.669    574.39515    78.644115    15.856057     29.42222 
   89000    234.33922   -280.46808    229018.04   -21218.427     1552.113    -22770.54   -609.40436    575.06246    78.644422    15.854741    29.427887 
   89200    238.81996   -335.99359    229018.04   -21155.385    1581.7905   -22737.175   -814.05578    577.39898    78.643679    15.854877    29.431788 
   89400    245.29044   -223.20762    229018.04   -21109.749    1624.6469   -22734.395   -441.18685    576.44008     78.64248    15.856192    29.408936 
   89600     235.3362   -317.49723    229018.04   -21216.076    1558.7163   -22774.793   -753.94341    579.77506    78.640501    15.856982    29.399372 
   89800    237.33979    28.998087    229018.04   -21167.904    1571.9868   -22739.891    640.03225    581.99591    78.639159    15.859648    29.415126 
   90000     240.8825   -104.94361    229018.04   -21098.523    1595.4515   -22693.975    104.60784    581.92054    78.638297    15.859384    29.428667 
   90200    235.92571   -393.96805    229018.04   -21129.899    1562.6209    -22692.52   -1036.1458    587.45253    78.641587    15.858536    29.440062 
   90400    241.06328   -366.58985    229018.04     -21162.7    1596.6488   -22759.348   -971.21637    585.10742    78.643253    15.856394    29.435376 
   90600    236.76626   -270.12518    229018.04   -21158.394    1568.1881   -22726.582   -560.68301    586.05251    78.643548    15.857026    29.454082 
   90800    247.60116   -505.81908    229018.04   -21032.475    1639.9516   -22672.426   -1485.3562    588.02895    78.643141    15.856221    29.449612 
   91000    234.64425   -333.14311    229018.04   -21124.848    1554.1333   -22678.981   -821.88473    587.79608    78.644014    15.856112    29.461669 
   91200    234.42466   -309.76163    229018.04    -21139.88    1552.6789   -22692.559   -720.73246     590.0845    78.645528    15.857095    29.466563 
   91400    241.92076   -324.75083    229018.04       -21117    1602.3283   -22719.328    -787.1737    591.67495    78.645376    15.856496     29.48903 
   91600    240.36878    -336.7962    229018.04   -21078.395     1592.049   -22670.444   -817.53503    593.46836    78.644524    15.855503     29.46495 
   91800     241.6557   -325.63166    229018.04   -21074.908    1600.5727    -22675.48    -794.2305    595.04613    78.644188    15.855063    29.458701 
   92000    240.12965   -346.42179    229018.04   -21126.612    1590.4651   -22717.077   -855.69266     595.3434    78.644467    15.856671    29.469028 
   92200    247.17353   -357.04969    229018.04   -21147.302    1637.1193   -22784.421   -885.22279    596.67611    78.644145     15.85256    29.477807 
   92400    244.63222   -282.28495    229018.04   -21108.865    1620.2872   -22729.152   -625.03314    598.14534    78.643486    15.850593    29.464265 
   92600    237.34757   -451.80894    229018.04   -21086.295    1572.0384   -22658.334   -1274.0595    601.08012    78.640224    15.850984    29.458446 
   92800    234.87607    -476.0091    229018.04   -21193.194    1555.6688   -22748.863   -1354.7988    601.82835    78.639896    15.850196    29.479247 
   93000     234.6835   -268.38488    229018.04   -21198.067    1554.3933    -22752.46   -527.13617    603.09981    78.639835    15.848772    29.474928 
   93200    240.64252   -225.69911    229018.04   -21115.424     1593.862   -22709.286   -381.11053    605.74674    78.638081    15.848052     29.49103 
   93400    229.30304   -292.58341    229018.04   -21177.022    1518.7566   -22695.778   -650.84931    605.15451    78.637374    15.848082    29.515577 
   93600    241.50713   -415.94471    229018.04   -21153.751    1599.5887    -22753.34   -1106.4587    605.41241    78.638276    15.848952    29.543043 
   93800    239.77119   -312.99994    229018.04     -21061.8    1588.0909   -22649.891   -755.57812    607.56648     78.63766     15.84793    29.520101 
   94000    247.50575   -318.88692    229018.04    -21118.86    1639.3197    -22758.18    -803.6591    609.58667    78.636211    15.848558    29.521325 
   94200    238.35979    -291.5492    229018.04   -21166.842    1578.7427   -22745.584   -653.30464    611.08715    78.635305    15.847146    29.508993 
   94400    241.71865   -149.70967    229018.04   -21074.716    1600.9896   -22675.706   -128.84713    613.52197    78.635693    15.847404    29.501442 
   94600    240.07598   -427.97448    229018.04   -21113.783    1590.1096   -22703.892   -1164.3474    613.93347    78.634543    15.845558     29.48659 
   94800    249.42849   -392.47174    229018.04   -21012.492    1652.0547   -22664.547   -1045.6593    615.36128    78.636899    15.846373    29.481584 
   95000    242.49561   -366.85655    229018.04   -21070.943    1606.1357   -22677.079   -928.34531    618.43312    78.639653    15.845629    29.485947 
   95200    237.04197   -281.83237    229018.04   -21148.116    1570.0143    -22718.13   -595.63155    620.36282    78.640419    15.846928    29.494922 
   95400     236.9933   -459.13682    229018.04   -21135.183    1569.6919   -22704.875   -1313.2236    620.18937    78.639999    15.848331    29.495312 
   95600    239.19378   -230.46511    229018.04   -21147.124    1584.2665   -22731.391   -381.22416    622.13571    78.640975    15.847821    29.505679 
   95800    234.77889   -311.96369    229018.04   -21076.269    1555.0251   -22631.294   -712.25989    623.95761    78.642136    15.846112    29.510752 
   96000    231.15565   -106.62399    229018.04   -21120.088     1531.027   -22651.115    69.427145    624.94038    78.642014     15.84635    29.519839 
   96200    237.28456   -175.44375    229018.04    -21191.95    1571.6211   -22763.571   -191.23825    626.79942    78.641054    15.846189    29.514041 
   96400     243.7437   -347.82325    229018.04   -21109.251    1614.4022   -22723.653   -827.42887    627.16869     78.64099    15.848805    29.505688 
   96600    235.36388   -360.10431    229018.04   -21165.859    1558.8997   -22724.758   -913.41567    626.14135    78.642436    15.849985    29.504829 
   96800    237.50764   -398.87077    229018.04   -21165.104    1573.0986   -22738.203   -1087.5338    626.12042    78.642762    15.852285    29.508092 
   97000    232.83326   -317.14737    229018.04   -21118.166    1542.1385   -22660.304   -772.77447    627.14097    78.644579    15.857457    29.515652 
   97200    241.08284   -266.00698    229018.04   -21086.441    1596.7784   -22683.219   -551.95825    628.56628    78.645266    15.859232    29.513656 
   97400    238.47498   -434.03814    229018.04   -21077.295    1579.5056   -22656.801   -1207.0537     630.1161     78.64502    15.862259    29.522068 
   97600    237.13603   -339.24953    229018.04   -21092.592    1570.6373   -22663.229    -838.8757    631.54172    78.642988    15.864151    29.523378 
   97800    231.42254   -314.90055    229018.04   -21177.972    1532.7948   -22710.767   -723.14754    633.73443    78.641902    15.865427    29.517173 
   98000    227.05699   -374.58817    229018.04   -21268.186    1503.8801   -22772.066   -948.97849    635.30458    78.640534    15.866216    29.489882 
   98200    230.05402   -498.70958    229018.04   -21239.829    1523.7306   -22763.559   -1461.4817    635.85478    78.639057    15.869032    29.486441 
   98400    241.64552   -300.87098    229018.04   -21191.584    1600.5053    -22792.09   -683.69607    638.71063    78.639099    15.872647    29.486191 
   98600    241.67111   -365.22661    229018.04   -21152.073    1600.6748   -22752.747   -945.84483    640.89817     78.63848    15.875767     29.48718 
   98800    244.85738   -286.46752    229018.04   -21046.984    1621.7786   -22668.762   -613.42515    641.62251    78.639123    15.874541    29.488143 
   99000    242.98019   -157.01235    229018.04   -21032.363    1609.3453   -22641.708   -146.89975    640.00115    78.640023    15.875586    29.488904 
   99200    241.30525   -341.39132    229018.04   -21102.465    1598.2515   -22700.717   -838.01426    641.64922    78.639895    15.876298    29.495032 
   99400    229.99586   -329.96751    229018.04   -21152.005    1523.3454   -22675.351   -809.36727    642.71796    78.641417    15.876663    29.479154 
   99600    239.80007   -291.91369    229018.04   -21103.594    1588.2822   -22691.876    -637.1349    643.90539    78.639827    15.876603    29.509818 
   99800    247.19397   -321.11403    229018.04   -21084.638    1637.2547   -22721.892   -751.94894    643.51624    78.639792    15.876095    29.507795 
  100000    243.31416   -318.81295    229018.04   -21137.363    1611.5573    -22748.92   -803.58474    645.05549    78.636885      15.8769    29.523905 
  100200    243.85886    -296.1744    229018.04   -21067.768     1615.165   -22682.933   -674.77328    647.76701    78.636538    15.875649    29.533365 
  100400    239.87045   -329.48547    229018.04   -21083.803    1588.7483   -22672.552   -823.85211    649.44838    78.634426    15.876595    29.534978 
  100600    236.80612   -342.23801    229018.04   -21158.433    1568.4522   -22726.885   -854.28057    650.13312    78.634336    15.874329    29.539528 
  100800     246.4482   -136.70436    229018.04   -21109.841    1632.3151   -22742.156   -15.845601    648.97858    78.634185    15.872546    29.545882 
[...]
 5175800     226.9046   -11.649331    229018.04   -23373.304    1502.8708   -24876.175     405.3394    10295.712    78.731772     16.49329    29.430746 
 5176000     218.0564    71.332188    229018.04   -23501.771     1444.266   -24946.037    779.42082    10292.784    78.731809    16.493891    29.424169 
 5176200    219.71333    15.241297    229018.04   -23494.377    1455.2405   -24949.617     509.8518    10295.018    78.730542    16.494411    29.427484 
 5176400     227.5497   -15.509659    229018.04   -23448.139    1507.1436   -24955.283    356.81528     10294.65    78.730214    16.494616     29.42899 
 5176600    224.66683    -19.34042    229018.04   -23404.536    1488.0493   -24892.585    395.80439    10293.434    78.728845    16.494704    29.426503 
 5176800     223.1076   -94.539573    229018.04   -23467.733    1477.7219   -24945.455     82.82731    10293.066    78.728965    16.494194    29.425699 
 5177000    234.10459    58.946509    229018.04   -23368.666    1550.5589   -24919.225    706.52815    10294.452    78.728335    16.495114    29.434802 
 5177200    233.05662    74.701594    229018.04   -23361.326    1543.6179   -24904.944    727.39583    10292.598     78.72821      16.4948    29.428867 
 5177400     222.7016   -54.335939    229018.04   -23399.718    1475.0328   -24874.751    214.41726    10296.628    78.727701    16.495048    29.428992 
 5177600    224.75085    116.24072    229018.04   -23397.285    1488.6058   -24885.891    905.97023    10291.337    78.728778    16.496164    29.434177 
 5177800    227.19859    102.72428    229018.04   -23364.556    1504.8181   -24869.375     877.1264    10291.626    78.728539    16.494936    29.432378 
 5178000    225.56061   -56.837193    229018.04   -23438.638    1493.9691   -24932.607    207.65758    10296.292    78.728804    16.492751    29.431788 
 5178200     223.0819    51.476764    229018.04   -23442.786    1477.5517   -24920.338    652.13424    10292.898    78.728032    16.491481    29.433391 
 5178400    229.63444    54.468665    229018.04   -23337.103    1520.9516   -24858.055    673.40008     10292.21    78.727397    16.491832    29.424431 
 5178600    222.52161   -56.809667    229018.04   -23393.897    1473.8407   -24867.738     229.7721    10296.158    78.727139    16.492258    29.429303 
 5178800    228.37658   -25.552334    229018.04    -23368.13    1512.6203    -24880.75    310.97351    10295.575    78.727154    16.492291    29.428913 
 5179000    235.91351    111.39491    229018.04   -23330.781    1562.5401   -24893.321    899.10934    10290.521     78.72731    16.492304    29.422465 
 5179200    230.45857    56.690728    229018.04   -23389.051    1526.4101   -24915.461     666.6053    10293.319    78.727054    16.491702    29.430556 
 5179400    221.77705   0.97993582    229018.04   -23409.121    1468.9092   -24878.031    456.56049    10291.817    78.726196    16.491269    29.431966 
 5179600    229.58749    99.746214    229018.04   -23381.885    1520.6406   -24902.526    806.43342    10292.497    78.725809    16.490377    29.426489 
 5179800     225.3155   -12.038881    229018.04   -23357.944    1492.3457    -24850.29    369.91359     10293.12    78.725974    16.490249     29.42354 
 5180000      228.206    40.699563    229018.04   -23405.967    1511.4905   -24917.457    640.06924    10293.663    78.725689     16.49073     29.43247 
 5180200    227.03103    63.461205    229018.04   -23421.654    1503.7082   -24925.362     708.9518    10293.546    78.725262    16.490215    29.424485 
 5180400    228.85017   -14.441609    229018.04   -23415.523     1515.757   -24931.281    374.64651    10293.131    78.724494    16.490083    29.426498 
 5180600    223.33808     95.46276    229018.04   -23427.775    1479.2485   -24907.023     819.1611    10294.029    78.724537    16.489744    29.425126 
 5180800    226.29878    67.363589    229018.04   -23442.355    1498.8582   -24941.213    688.02587    10292.345    78.724692    16.489938     29.42242 
 5181000    226.00516   0.86275795    229018.04   -23395.683    1496.9135   -24892.597    468.58916    10294.875    78.726074    16.489407    29.425711 
 5181200    227.66228    73.949057    229018.04   -23367.637    1507.8892   -24875.526     745.4235     10294.54     78.72568    16.490142    29.433175 
 5181400    231.72605    30.089734    229018.04   -23368.971     1534.805   -24903.776    579.64144    10294.077    78.725357    16.490198    29.431167 
 5181600    226.84315   -50.905013    229018.04   -23356.644    1502.4638   -24859.108    241.96607    10295.664    78.724549    16.489475     29.43715 
 5181800    220.83623    30.622231    229018.04   -23448.701    1462.6779   -24911.378    595.36411     10292.91    78.723457    16.489801    29.436108 
 5182000    225.06839   -22.370227    229018.04   -23447.664     1490.709   -24938.373    335.79193    10294.975    78.723779    16.489876     29.42896 
 5182200    224.95805   -13.376226    229018.04   -23378.391    1489.9782   -24868.369    435.52443    10292.969    78.723678    16.489685    29.436269 
 5182400    229.67501    7.0771019    229018.04   -23377.738    1521.2202   -24898.958    476.08891    10292.655    78.723012    16.490739    29.438313 
 5182600    224.69921   -66.947726    229018.04   -23351.142    1488.2638   -24839.405    215.31517    10294.116     78.72302     16.49245    29.440512 
 5182800    224.88167    19.442024    229018.04   -23364.811    1489.4723   -24854.283    534.42456    10292.076    78.724099    16.493737    29.442182 
 5183000    227.88267    119.57049    229018.04   -23368.814     1509.349   -24878.163    907.03129      10293.2     78.72383    16.494343    29.440181 
 5183200    229.14314   -12.308656    229018.04   -23375.556    1517.6975   -24893.253     415.8281    10295.523    78.723151    16.494328    29.438717 
 5183400    227.84725    -1.232122    229018.04   -23413.528    1509.1144   -24922.642    481.47998    10292.301     78.72373    16.495881     29.43977 
 5183600    225.24943    199.59885    229018.04   -23401.012    1491.9081    -24892.92    1254.2907    10289.459    78.723107    16.496804    29.441919 
 5183800    222.95425   -50.606587    229018.04   -23453.104    1476.7063    -24929.81    271.09554    10295.938    78.722436    16.497127    29.440317 
 5184000    225.06519   -18.157998    229018.04   -23413.804    1490.6878   -24904.492    371.65589    10293.813    78.721452    16.498278    29.431015 
 5184200    221.67989    209.70089    229018.04   -23429.951    1468.2657   -24898.217    1269.6907     10290.52    78.720712    16.498721    29.439282 
 5184400    227.85988   -18.208586    229018.04   -23399.207     1509.198   -24908.405     421.2676    10294.775    78.720552    16.499214    29.439287 
 5184600    222.76511   -64.731753    229018.04   -23400.442    1475.4535   -24875.895    177.16701    10293.862    78.720043    16.498609    29.441298 
 5184800    226.58631    154.52759    229018.04    -23390.96    1500.7627   -24891.722    1062.9729    10290.334    78.719624    16.498199     29.43463 
 5185000    231.39274    -22.51969    229018.04   -23384.272    1532.5974    -24916.87    362.00548    10292.675    78.720146    16.498315     29.44126 
 5185200    224.80603   -133.89978    229018.04   -23414.222    1488.9713   -24903.193   -34.235466      10294.7    78.719805    16.499224     29.44315 
 5185400    225.92724    89.966345    229018.04   -23449.312    1496.3974    -24945.71    791.43313    10291.158    78.719663    16.499503    29.446464 
 5185600    218.41614    21.394975    229018.04   -23403.784    1446.6487   -24850.433    564.95407    10291.941    78.719189    16.499994     29.43956 
 5185800    230.48313   -136.58869    229018.04    -23318.97    1526.5727   -24845.543   -106.77993     10294.32    78.718923    16.501985    29.443337 
 5186000    229.98255    119.48148    229018.04   -23365.257    1523.2572   -24888.514    953.68241    10290.476    78.718171    16.502968    29.435089 
 5186200    227.82864   -32.867641    229018.04   -23424.657    1508.9911   -24933.648    297.42581    10293.856    78.716788     16.50444    29.432268 
 5186400    215.76559   -106.33537    229018.04   -23444.712    1429.0932   -24873.805    25.830369    10294.691    78.716243    16.503831    29.435106 
 5186600    229.00732    89.774305    229018.04   -23377.264    1516.7979   -24894.062    759.42449    10291.618    78.715508    16.505082    29.433764 
 5186800    231.22899    71.449339    229018.04   -23390.245    1531.5128   -24921.757    738.06618    10292.655     78.71461    16.505406    29.438897 
 5187000    222.19065   -118.18701    229018.04   -23391.304    1471.6487   -24862.953    9.5003361    10295.042    78.713863    16.504969    29.432999 
 5187200    225.02279    25.083878    229018.04   -23411.836    1490.4069   -24902.243    554.66433    10291.916    78.712724    16.505578    29.434931 
 5187400    226.15307    102.33812    229018.04   -23380.359    1497.8932   -24878.252    869.86736    10291.091    78.712431    16.505621    29.437398 
 5187600    223.92132   -37.016205    229018.04   -23400.104    1483.1115   -24883.216    321.85082    10293.274     78.71161     16.50536    29.440552 
 5187800    229.75657    61.871023    229018.04   -23394.758    1521.7604   -24916.518    723.40952    10293.043    78.711767    16.505314    29.434096 
 5188000    230.19816     32.07129    229018.04   -23384.702    1524.6852   -24909.388    534.70445     10290.51    78.711332    16.505622    29.439546 
 5188200    226.28268   -49.312155    229018.04   -23363.407    1498.7517   -24862.159    311.13606    10294.385    78.711703    16.505978    29.439936 
 5188400    223.11632   -49.570849    229018.04   -23409.855    1477.7797   -24887.634    246.04849    10293.083    78.711954    16.506561     29.43903 
 5188600    229.28538    66.770768    229018.04   -23343.779    1518.6396   -24862.419     717.3733    10292.522    78.712004    16.506777    29.432359 
 5188800    228.94156    46.907769    229018.04   -23381.465    1516.3624   -24897.827    609.99135    10292.654    78.712667    16.506208    29.439408 
 5189000    223.80773   -75.004215    229018.04   -23379.021    1482.3592    -24861.38    125.98962    10295.366    78.711246    16.506713    29.429508 
 5189200    229.84004    14.449104    229018.04    -23396.51    1522.3133   -24918.823    477.31905    10294.794    78.711779    16.507182    29.430304 
 5189400    231.53701    104.77883    229018.04   -23381.647    1533.5529   -24915.199    871.70759    10291.223    78.711398    16.507798    29.433569 
 5189600    224.25426   -16.975494    229018.04   -23360.459    1485.3167   -24845.776    370.82487    10295.399      78.7109    16.507966    29.444224 
 5189800    225.40823    22.507394    229018.04    -23411.99    1492.9598    -24904.95    587.13853    10293.441    78.709797    16.509444    29.430244 
 5190000    224.93627     24.19355    229018.04   -23384.477    1489.8339   -24874.311    531.27166    10292.569     78.70978    16.509682    29.433445 
 5190200    228.68794    28.546275    229018.04    -23365.29    1514.6826   -24879.973    588.26209    10291.943    78.709445    16.508897    29.434855 
 5190400    229.28922   -19.910782    229018.04   -23392.302     1518.665   -24910.967    371.80322    10294.757    78.709243    16.508975    29.428141 
 5190600    234.35594   -9.2635149    229018.04   -23376.726    1552.2237    -24928.95    450.29987    10293.498    78.708996    16.509964    29.427469 
 5190800    229.45991    80.132834    229018.04   -23388.484    1519.7956    -24908.28    769.34833    10291.405    78.708012    16.509734    29.421434 
 5191000    220.30559    -3.147521    229018.04    -23486.16    1459.1632   -24945.324    438.53614    10290.304    78.707552    16.510397    29.428068 
 5191200    224.97953     4.760751    229018.04   -23415.258    1490.1204   -24905.378    492.28686    10292.555    78.706966     16.51099    29.439269 
 5191400     225.6137      144.514    229018.04   -23383.985    1494.3207   -24878.305    1034.1153    10293.712     78.70609    16.510914    29.435334 
 5191600    226.02525    53.897479    229018.04   -23399.975    1497.0466   -24897.022    680.41565    10291.934    78.706033    16.512162    29.430277 
 5191800    235.67412   -6.9137007    229018.04   -23358.916    1560.9545   -24919.871     398.1797    10293.647    78.705282    16.512716    29.435837 
 5192000    231.71608    24.390327    229018.04   -23369.922     1534.739   -24904.661    594.17371    10291.998    78.705138    16.513389    29.441004 
 5192200    230.08377    56.418497    229018.04   -23391.937    1523.9276   -24915.865    670.37378    10292.332    78.703871    16.514293    29.434866 
 5192400    225.08899   -43.490968    229018.04   -23441.844    1490.8454    -24932.69    270.26362    10294.199    78.704363    16.514139    29.433241 
 5192600     226.2328    18.249449    229018.04   -23442.944    1498.4212   -24941.365    557.73822    10294.445    78.704184    16.513972    29.435165 
 5192800    222.76428    80.094367    229018.04   -23368.335     1475.448   -24843.783    784.82183    10291.555    78.704069    16.515028    29.435377 
 5193000    225.20468    57.851079    229018.04   -23406.412    1491.6116   -24898.024    688.00677    10293.205    78.703833    16.515545    29.437518 
 5193200    226.64393    25.586596    229018.04   -23404.273    1501.1443   -24905.417    559.55786    10291.977    78.703992    16.515153     29.43579 
 5193400    225.08685   -36.657429    229018.04    -23357.88    1490.8312   -24848.711    323.51818    10291.971    78.703232    16.514287    29.430821 
 5193600    229.65225   -16.281631    229018.04   -23408.182    1521.0695   -24929.251    388.26372    10294.288    78.702237    16.514342    29.432616 
 5193800    226.87505   -12.826991    229018.04   -23423.258    1502.6751   -24925.933     425.0518    10292.409    78.701703    16.514822    29.434672 
 5194000    222.07119    19.238191    229018.04   -23416.927    1470.8574   -24887.785    499.52759     10292.87    78.701268      16.5143    29.436834 
 5194200    226.75867    24.937269    229018.04   -23389.693    1501.9043   -24891.597    550.87762    10291.797    78.701621    16.513762    29.441935 
 5194400    223.63944   -30.899266    229018.04   -23394.904    1481.2445   -24876.148    259.84906      10293.1    78.702067    16.513931    29.438282 
 5194600    223.50964    44.956461    229018.04   -23428.808    1480.3848   -24909.192    629.30375    10293.315    78.702888    16.513561    29.434756 
 5194800    224.38592   -26.200625    229018.04    -23454.76    1486.1887   -24940.948     367.7338    10291.357    78.702061    16.514791    29.440332 
 5195000    230.03085    52.312164    229018.04   -23363.133    1523.5771    -24886.71    629.18254    10293.785    78.701329    16.515413    29.439043 
 5195200    224.56977    61.271278    229018.04   -23425.717    1487.4064   -24913.123    697.44326    10291.011    78.700963    16.516166    29.440886 
 5195400    225.81152   -29.109791    229018.04   -23337.328     1495.631   -24832.959    355.19478    10295.937    78.700377    16.517153    29.435878 
 5195600    228.75745    56.929278    229018.04   -23385.672    1515.1429   -24900.815    686.77927    10292.627    78.700519     16.51663    29.450377 
 5195800    227.02817    52.262324    229018.04   -23336.416    1503.6893   -24840.105    652.09155    10292.625    78.700163    16.517742     29.43637 
 5196000     233.9601   -27.139428    229018.04   -23349.506     1549.602   -24899.108    356.89048     10293.65    78.699231    16.517946    29.433486 
 5196200    236.34411    21.410509    229018.04   -23307.753    1565.3921   -24873.145    510.97978    10293.892    78.697846    16.517964    29.436585 
 5196400    227.11382    44.531864    229018.04   -23366.287    1504.2566   -24870.544    616.85348    10290.976    78.697096    16.518423    29.433156 
 5196600    216.30044   -84.168588    229018.04    -23476.71    1432.6357   -24909.346    105.93782    10292.619    78.696168    16.518826    29.425335 
 5196800      224.518    58.862263    229018.04   -23372.112    1487.0635   -24859.176    692.92009    10292.822    78.696101    16.518647    29.424421 
 5197000    224.68272     51.14039    229018.04   -23419.337    1488.1545   -24907.491    626.69883    10291.208    78.695156    16.519517    29.426504 
 5197200    240.47055   -41.592722    229018.04   -23312.753     1592.723   -24905.476    310.97761    10294.631    78.693837    16.520076    29.430431 
 5197400    223.51712    25.947725    229018.04   -23402.884    1480.4343   -24883.318    574.22606    10293.848    78.693585    16.519252    29.430769 
 5197600    227.99185    72.055922    229018.04   -23384.386    1510.0721   -24894.458     757.8038    10293.141    78.692292    16.520258    29.440252 
 5197800    234.52516    41.158998    229018.04   -23277.624    1553.3445   -24830.969    602.43275    10293.884    78.691879    16.520437      29.4445 
 5198000    235.16963   -1.1679215    229018.04   -23292.483    1557.6131   -24850.096    457.76181    10294.077    78.691524    16.520589    29.432623 
 5198200    224.79078    2.1442344    229018.04   -23340.038    1488.8702   -24828.908     454.0807    10294.575    78.692132    16.521098    29.435705 
 5198400    232.01148    76.472114    229018.04   -23362.911    1536.6955   -24899.607    761.37828    10292.575    78.691658    16.522086    29.436505 
 5198600    224.74292    3.9722173    229018.04   -23424.649    1488.5532   -24913.202    468.88442    10294.389    78.690912    16.522828    29.437359 
 5198800    225.48976    35.565833    229018.04    -23426.22    1493.4998    -24919.72    611.71847    10293.302    78.690343    16.522656    29.436602 
 5199000    235.97582    25.995452    229018.04   -23335.007    1562.9528    -24897.96    571.92129    10294.324    78.689097    16.523653    29.439026 
 5199200    228.94859    61.561365    229018.04   -23370.769    1516.4089   -24887.178    704.34007    10294.559    78.688837       16.524    29.446488 
 5199400    225.61316   -27.515395    229018.04   -23402.476    1494.3172   -24896.793    325.89334    10293.223    78.688702    16.524903    29.443459 
 5199600    232.13366    38.465088    229018.04    -23365.85    1537.5048   -24903.355    612.85061    10295.436    78.688109    16.525095    29.438697 
 5199800    225.63209    59.989254    229018.04   -23418.551    1494.4425   -24912.994    656.98025    10293.906    78.688168    16.525187    29.443654 
 5200000    228.38572    65.673762    229018.04   -23352.534    1512.6808   -24865.215    700.07851    10293.821    78.687913       16.526    29.442875 
Loop time of 7435.99 on 160 procs for 5200000 steps with 8943 atoms

Performance: 604.197 ns/day, 0.040 hours/ns, 699.302 timesteps/s
97.8% CPU use with 160 MPI tasks x no OpenMP threads

MPI task timing breakdown:
Section |  min time  |  avg time  |  max time  |%varavg| %total
---------------------------------------------------------------
Pair    | 0.24658    | 1522.4     | 5910.6     |5268.7 | 20.47
Neigh   | 0.34717    | 98.54      | 388.54     |1233.9 |  1.33
Comm    | 11.566     | 2009.5     | 5948.3     |4723.0 | 27.02
Output  | 89.331     | 89.406     | 91.301     |   1.6 |  1.20
Modify  | 178.91     | 3613.4     | 7239.7     |4983.1 | 48.59
Other   |            | 102.8      |            |       |  1.38

Nlocal:    55.8937 ave 177 max 0 min
Histogram: 72 0 48 0 0 0 0 0 4 36
Nghost:    540.681 ave 940 max 0 min
Histogram: 18 6 0 8 8 41 27 16 19 17
Neighs:    0 ave 0 max 0 min
Histogram: 160 0 0 0 0 0 0 0 0 0
FullNghs:  5605.46 ave 22097 max 0 min
Histogram: 92 28 0 0 0 0 0 2 18 20

Total # of neighbors = 896874
Ave neighs/atom = 100.288
Neighbor list builds = 559323
Dangerous builds = 0
write_data 		${DIR}/data.${NAME}_run
write_data 		run_16/data.${NAME}_run
write_data 		run_16/data.ibeam_cooling_16_run
Total wall time: 2:04:11
