
### Dimensions ###


### IMPORT ATOMS ###
read_data ../Box_Setup/data.Ibeam_240K
  orthogonal box = (0 0 0) to (189.989 26.9999 39.8504)
  20 by 2 by 4 MPI processor grid
  reading atoms ...
  8482 atoms
  reading velocities ...
  8482 velocities
group water type 2
2436 atoms in group water
group graphite type 1
6046 atoms in group graphite


# Define potential
#
pair_style          sw
pair_coeff * * MLC_e.sw C mW

# Add velocity/set timestep
#

fix		1 graphite setforce 0.0 0.0 0.0
velocity 	graphite set 0.0 0.0 0.0
velocity            water create ${START_TEMP} ${SEED} rot yes dist gaussian
velocity            water create 240 ${SEED} rot yes dist gaussian
velocity            water create 240 30341 rot yes dist gaussian
timestep            5.0

# Define output
#
compute 1 water msd
compute 2 water temp


thermo	            100
thermo_style custom step c_2 press vol etotal ke pe c_1[4] density

# Neighbor lists
#
neigh_modify        delay 0 every 1 check yes


# Set fixes
#
fix                 2 water momentum 10 linear 1 1 1 rescale
fix                 3 all nve
fix                 4 water temp/csvr ${START_TEMP} ${START_TEMP} 500.0 928347
fix                 4 water temp/csvr 240 ${START_TEMP} 500.0 928347
fix                 4 water temp/csvr 240 240 500.0 928347

# Run 0.05 ns equilibration
#
dump                1 all custom 100 ${DIR}/eq.${NAME}.dump id type x y z vx vy vz
dump                1 all custom 100 run_20/eq.${NAME}.dump id type x y z vx vy vz
dump                1 all custom 100 run_20/eq.ibeam_cooling_20.dump id type x y z vx vy vz
run                 10000
Neighbor list info ...
  update every 1 steps, delay 0 steps, check yes
  max neighbors/atom: 2000, page size: 100000
  master list distance cutoff = 6.67472
  ghost atom cutoff = 6.67472
  binsize = 3.33736, bins = 57 9 12
  1 neighbor lists, perpetual/occasional/extra = 1 0 0
  (1) pair sw, perpetual
      attributes: full, newton on
      pair build: full/bin/atomonly
      stencil: full/bin/3d
      bin: standard
Per MPI rank memory allocation (min/avg/max) = 0.4608 | 3.725 | 4.735 Mbytes
Step c_2 Press Volume TotEng KinEng PotEng c_1[4] Density 
       0          240   -262.64038    204420.41   -23347.773    1741.9854   -25089.758            0   0.94632332 
     100    236.02353   -217.67378    204420.41   -23360.676    1713.1231     -25073.8   0.83799581   0.94632332 
     200    236.08664   -279.28721    204420.41    -23383.42    1713.5812   -25097.001    1.2288751   0.94632332 
     300    230.95562    -337.0848    204420.41   -23360.521    1676.3388    -25036.86    1.6840725   0.94632332 
     400    238.33532   -467.57208    204420.41   -23355.477    1729.9027    -25085.38    2.0851162   0.94632332 
     500    231.99843   -414.72027    204420.41   -23307.964    1683.9078   -24991.872    2.4882756   0.94632332 
     600     243.5812   -326.64374    204420.41    -23222.28    1767.9788   -24990.259    2.8999043   0.94632332 
     700    239.28508    -309.0423    204420.41   -23229.401    1736.7963   -24966.198    3.3766225   0.94632332 
     800    236.96816   -343.09604    204420.41   -23203.936    1719.9795   -24923.915    3.8314661   0.94632332 
     900    243.08735   -269.79934    204420.41   -23241.347    1764.3942   -25005.742    4.2010326   0.94632332 
    1000    241.63676   -282.24156    204420.41   -23267.772    1753.8654   -25021.638    4.5165933   0.94632332 
    1100    239.92413   -391.90788    204420.41   -23249.149    1741.4347   -24990.584    4.8761412   0.94632332 
    1200    239.57246   -419.25521    204420.41   -23248.801    1738.8822   -24987.683    5.3558385   0.94632332 
    1300    241.74234   -453.36746    204420.41     -23196.4    1754.6318   -24951.032    5.9795923   0.94632332 
    1400    241.36071   -411.99504    204420.41   -23237.397    1751.8618   -24989.259    6.3860847   0.94632332 
    1500    241.64601   -344.46404    204420.41   -23265.515    1753.9326   -25019.448    6.7314635   0.94632332 
    1600    239.15971   -191.85956    204420.41   -23247.219    1735.8863   -24983.105     7.114481   0.94632332 
    1700    240.10714   -199.67042    204420.41   -23270.174     1742.763   -25012.937    7.5489672   0.94632332 
    1800    246.77596    -217.5092    204420.41   -23250.623    1791.1672    -25041.79     7.996005   0.94632332 
    1900    244.46091   -298.45335    204420.41   -23227.422    1774.3639   -25001.786    8.5508918   0.94632332 
    2000    246.11006    -381.7861    204420.41   -23204.782    1786.3339   -24991.116    8.9314537   0.94632332 
    2100    240.48638   -287.22662    204420.41    -23298.95    1745.5157   -25044.466    9.1056459   0.94632332 
    2200    243.14607   -304.88567    204420.41   -23272.316    1764.8204   -25037.137     9.438939   0.94632332 
    2300    242.33694   -439.72564    204420.41   -23244.159    1758.9475   -25003.107    10.058587   0.94632332 
    2400    242.25846   -348.42035    204420.41   -23242.486    1758.3779   -25000.864    10.304474   0.94632332 
    2500    242.68859   -292.90257    204420.41   -23258.543    1761.4999   -25020.043    10.703103   0.94632332 
    2600    239.32108   -247.75939    204420.41   -23265.555    1737.0576   -25002.612    10.953751   0.94632332 
    2700    238.99702   -117.73991    204420.41   -23254.103    1734.7055   -24988.808    11.395542   0.94632332 
    2800    243.02636   -148.30163    204420.41   -23189.419    1763.9515   -24953.371    12.005399   0.94632332 
    2900      247.141   -346.63075    204420.41   -23205.761    1793.8167   -24999.577    12.433596   0.94632332 
    3000    245.32241   -357.41456    204420.41   -23210.025    1780.6169   -24990.641    12.676212   0.94632332 
    3100    246.43794   -454.19927    204420.41   -23218.771    1788.7137   -25007.485    12.975066   0.94632332 
    3200    243.33188    -382.3965    204420.41   -23279.623    1766.1691   -25045.792    13.289886   0.94632332 
    3300    236.50121    -405.7819    204420.41   -23368.174    1716.5902   -25084.765    13.617151   0.94632332 
    3400    233.74121   -317.28777    204420.41   -23329.422    1696.5574    -25025.98    13.833768   0.94632332 
    3500    239.45025   -139.79469    204420.41   -23320.666    1737.9952   -25058.661    13.986886   0.94632332 
    3600    239.93358   -217.95079    204420.41   -23310.644    1741.5033   -25052.147    14.248727   0.94632332 
    3700    241.95196   -480.25881    204420.41   -23264.449    1756.1532   -25020.603    14.571884   0.94632332 
    3800    242.91426   -378.70798    204420.41   -23244.788    1763.1379   -25007.926    14.913818   0.94632332 
    3900    237.57009   -183.11872    204420.41   -23258.252    1724.3484   -24982.601    15.172138   0.94632332 
    4000    236.19042   -287.54032    204420.41   -23291.731    1714.3344   -25006.065    15.381529   0.94632332 
    4100    240.21713   -253.91168    204420.41   -23279.085    1743.5614   -25022.646    15.382617   0.94632332 
    4200    240.47308   -292.54119    204420.41   -23248.327    1745.4191   -24993.746    15.703405   0.94632332 
    4300     231.8074   -340.86903    204420.41   -23309.151    1682.5213   -24991.673    16.075805   0.94632332 
    4400    241.90698   -293.07382    204420.41   -23263.715    1755.8268   -25019.542    16.447275   0.94632332 
    4500    239.15387   -374.56954    204420.41    -23289.02     1735.844   -25024.864    16.592083   0.94632332 
    4600    234.38033   -531.24957    204420.41   -23341.557    1701.1963   -25042.753    16.730702   0.94632332 
    4700    244.51835   -181.16939    204420.41   -23275.878    1774.7808   -25050.658    17.035638   0.94632332 
    4800    244.37259   -255.74789    204420.41   -23243.032    1773.7228   -25016.755    17.512491   0.94632332 
    4900    240.96546    -155.1036    204420.41   -23190.818     1748.993   -24939.811    17.734092   0.94632332 
    5000     236.5167    -282.3799    204420.41     -23248.8    1716.7027   -24965.503    18.034027   0.94632332 
    5100      248.017   -306.55992    204420.41   -23211.461     1800.175   -25011.636    18.315323   0.94632332 
    5200    237.70954   -213.10015    204420.41   -23259.394    1725.3606   -24984.754    18.869061   0.94632332 
    5300    238.02909   -73.850778    204420.41   -23332.814      1727.68   -25060.494    19.233378   0.94632332 
    5400    237.18613   -256.12698    204420.41   -23315.762    1721.5616   -25037.324    19.664633   0.94632332 
    5500    240.33789   -423.39794    204420.41    -23308.91    1744.4379   -25053.348    20.137728   0.94632332 
    5600    239.03411   -295.04169    204420.41   -23323.365    1734.9747    -25058.34    20.627075   0.94632332 
    5700    242.52036   -211.43175    204420.41   -23306.845    1760.2788   -25067.124    21.004515   0.94632332 
    5800    241.62446   -339.00123    204420.41   -23288.965    1753.7761   -25042.741       21.253   0.94632332 
    5900    232.06905   -145.13533    204420.41   -23312.174    1684.4204   -24996.595    21.658718   0.94632332 
    6000    237.29661    -31.12716    204420.41   -23321.536    1722.3635   -25043.899    22.114185   0.94632332 
    6100    234.50017   -373.45086    204420.41   -23331.178    1702.0661   -25033.245    22.304554   0.94632332 
    6200    237.08969   -298.88419    204420.41   -23342.537    1720.8616   -25063.399    22.727775   0.94632332 
    6300    243.81675   -166.71078    204420.41    -23272.26    1769.6884   -25041.948    23.468154   0.94632332 
    6400    241.17652   -328.55508    204420.41   -23311.093    1750.5249   -25061.618     24.04372   0.94632332 
    6500    242.91191   -358.18752    204420.41   -23321.761    1763.1208   -25084.882     24.62599   0.94632332 
    6600     239.7304      -503.17    204420.41   -23323.072    1740.0285   -25063.101    24.847254   0.94632332 
    6700    238.01757   -342.07039    204420.41   -23342.013    1727.5964    -25069.61    25.244578   0.94632332 
    6800     235.2378    -198.9036    204420.41   -23328.931    1707.4201   -25036.351    25.750498   0.94632332 
    6900    243.65135   -336.51995    204420.41   -23271.641    1768.4879   -25040.129    26.193685   0.94632332 
    7000    232.66068   -461.78939    204420.41   -23277.592    1688.7146   -24966.307    26.674586   0.94632332 
    7100    241.10143   -314.93194    204420.41   -23281.181    1749.9799   -25031.161    27.063249   0.94632332 
    7200    235.30209    -460.0617    204420.41   -23349.579    1707.8867   -25057.466    27.658037   0.94632332 
    7300    238.20348   -366.60236    204420.41   -23368.827    1728.9458   -25097.773    27.840134   0.94632332 
    7400     233.5139   -531.37243    204420.41   -23339.102    1694.9075   -25034.009    28.403988   0.94632332 
    7500    240.65406   -471.61368    204420.41   -23314.053    1746.7328   -25060.785    28.997135   0.94632332 
    7600    243.22704   -601.58172    204420.41   -23267.893    1765.4081   -25033.301    29.669044   0.94632332 
    7700     242.9647   -611.39053    204420.41   -23277.199     1763.504   -25040.703    29.967183   0.94632332 
    7800    237.02037   -405.64262    204420.41   -23336.156    1720.3585   -25056.515    30.367149   0.94632332 
    7900    242.78744   -422.60992    204420.41   -23303.882    1762.2174   -25066.099    30.543742   0.94632332 
    8000    250.31105   -201.87407    204420.41   -23254.705    1816.8258   -25071.531    30.924795   0.94632332 
    8100     240.0254   -367.04801    204420.41   -23234.388    1742.1697   -24976.557    31.470214   0.94632332 
    8200    243.67431   -251.68534    204420.41   -23264.374    1768.6546   -25033.029    32.034218   0.94632332 
    8300    243.25577   -233.48997    204420.41   -23214.756    1765.6167   -24980.373    32.424733   0.94632332 
    8400    242.32545   -88.362634    204420.41   -23206.392    1758.8642   -24965.256    32.939837   0.94632332 
    8500    242.66959   -243.54371    204420.41   -23254.947     1761.362   -25016.309    33.332209   0.94632332 
    8600    242.67228   -225.01659    204420.41   -23254.673    1761.3816   -25016.054    33.884366   0.94632332 
    8700    237.39663   -397.03903    204420.41   -23281.697    1723.0894   -25004.786     34.77323   0.94632332 
    8800    243.20216   -456.31509    204420.41   -23277.756    1765.2276   -25042.984    35.493546   0.94632332 
    8900    235.36794   -441.84178    204420.41   -23298.511    1708.3646   -25006.876    36.252786   0.94632332 
    9000    243.84647   -401.77981    204420.41   -23270.808    1769.9041   -25040.712    37.049615   0.94632332 
    9100    236.75792   -343.39769    204420.41    -23284.62    1718.4535   -25003.074    37.476973   0.94632332 
    9200    241.94881   -231.89282    204420.41   -23236.839    1756.1304    -24992.97    37.918812   0.94632332 
    9300    237.81264   -303.60233    204420.41   -23319.545    1726.1089   -25045.654    38.044434   0.94632332 
    9400    235.47615   -194.98551    204420.41   -23294.285    1709.1501   -25003.435    38.549946   0.94632332 
    9500    238.29757   -170.83953    204420.41   -23330.469    1729.6287   -25060.098    38.725563   0.94632332 
    9600    235.67257    -136.5613    204420.41   -23353.249    1710.5758   -25063.825    39.319827   0.94632332 
    9700    237.82419    -307.4597    204420.41   -23319.419    1726.1928   -25045.612    39.518675   0.94632332 
    9800    246.73884   -57.763485    204420.41   -23272.198    1790.8977   -25063.096    40.256315   0.94632332 
    9900    246.20754   -568.73728    204420.41   -23313.726    1787.0414   -25100.767    40.348757   0.94632332 
   10000     235.0042   -454.18324    204420.41   -23315.741    1705.7245   -25021.466    40.504903   0.94632332 
Loop time of 13.5462 on 160 procs for 10000 steps with 8482 atoms

Performance: 318.908 ns/day, 0.075 hours/ns, 738.214 timesteps/s
97.8% CPU use with 160 MPI tasks x no OpenMP threads

MPI task timing breakdown:
Section |  min time  |  avg time  |  max time  |%varavg| %total
---------------------------------------------------------------
Pair    | 0.00044775 | 3.2918     | 10.914     | 217.8 | 24.30
Neigh   | 0.00032973 | 0.093681   | 0.33745    |  35.4 |  0.69
Comm    | 0.011882   | 3.2313     | 11.229     | 207.8 | 23.85
Output  | 0.17226    | 0.17243    | 0.17917    |   0.1 |  1.27
Modify  | 0.627      | 6.5907     | 13.211     | 219.2 | 48.65
Other   |            | 0.1664     |            |       |  1.23

Nlocal:    53.0125 ave 164 max 0 min
Histogram: 61 8 49 2 0 0 0 5 5 30
Nghost:    544.069 ave 911 max 0 min
Histogram: 20 0 4 0 15 43 19 7 37 15
Neighs:    0 ave 0 max 0 min
Histogram: 160 0 0 0 0 0 0 0 0 0
FullNghs:  5310.93 ave 20635 max 0 min
Histogram: 87 33 0 0 0 0 0 6 13 21

Total # of neighbors = 849748
Ave neighs/atom = 100.183
Neighbor list builds = 580
Dangerous builds = 0
write_data 	    ${DIR}/data.${NAME}_eq
write_data 	    run_20/data.${NAME}_eq
write_data 	    run_20/data.ibeam_cooling_20_eq

undump              1
unfix               4



################################################
#######         Run Simulation         #########
################################################

reset_timestep      0
timestep	    10.0
log                 ${DIR}/log.run_${NAME}
log                 run_20/log.run_${NAME}
log                 run_20/log.run_ibeam_cooling_20
