
# Set production fixes - Nose/Hoover
#
fix                 4 water temp/csvr ${START_TEMP} ${END_TEMP} 500.0 928347
fix                 4 water temp/csvr 240 ${END_TEMP} 500.0 928347
fix                 4 water temp/csvr 240 227 500.0 928347


## divide "droplet" into core and surface
#region		core_reg cylinder z 135 135 44.6 20 INF units box
#region		surface_reg cylinder z 135 135 44.6 20 INF units box side out
#group		core dynamic all region core_reg
#group		surface dynamic all region surface_reg

## compute pressure core
#compute        peratom_core core stress/atom NULL
#compute        p_core core reduce sum c_peratom_core[1] c_peratom_core[2] c_peratom_core[3]
#variable       press_core equal -(c_p_core[1]+c_p_core[2]+c_p_core[3])/(3*1249982.5)


## compute pressure surface
#compute        peratom_surf surface stress/atom NULL
#compute        p_surf surface reduce sum c_peratom_surf[1] c_peratom_surf[2] #c_peratom_surf[3]
#variable       press_surf equal -(c_p_surf[1]+c_p_surf[2]+c_p_surf[3])/(3*42395)

## compute total pressure of drop
compute        peratom water stress/atom NULL
compute        p water reduce sum c_peratom[1] c_peratom[2] c_peratom[3]
variable       press equal -(c_p[1]+c_p[2]+c_p[3])/(3*58301)


# compute order parameter
compute        3 all orientorder/atom nnn NULL cutoff 3.5

# compute center of mass of bridge
compute 	4 water com

# Run simulation
thermo_style        custom step c_2 press vol etotal ke pe v_press c_1[4] c_4[*]
thermo              200
dump		     1 water custom 400 ${DIR}/prod.${NAME}.dump id type x y z vx vy vz c_3[*] c_peratom[*]
dump		     1 water custom 400 run_20/prod.${NAME}.dump id type x y z vx vy vz c_3[*] c_peratom[*]
dump		     1 water custom 400 run_20/prod.ibeam_cooling_20.dump id type x y z vx vy vz c_3[*] c_peratom[*]
run                 ${STEPS}
run                 5200000
Neighbor list info ...
  update every 1 steps, delay 0 steps, check yes
  max neighbors/atom: 2000, page size: 100000
  master list distance cutoff = 6.67472
  ghost atom cutoff = 6.67472
  binsize = 3.33736, bins = 57 9 12
  2 neighbor lists, perpetual/occasional/extra = 1 1 0
  (1) pair sw, perpetual
      attributes: full, newton on
      pair build: full/bin/atomonly
      stencil: full/bin/3d
      bin: standard
  (2) compute orientorder/atom, occasional, copy from (1)
      attributes: full, newton on
      pair build: copy
      stencil: none
      bin: none
Per MPI rank memory allocation (min/avg/max) = 0.851 | 6.029 | 7.259 Mbytes
Step c_2 Press Volume TotEng KinEng PotEng v_press c_1[4] c_4[1] c_4[2] c_4[3] 
       0     235.0042   -454.18324    204420.41   -23315.741    1705.7245   -25021.466   -1064.0229    40.504903    95.097964    14.536566    27.846655 
     200    233.90572   -473.02604    204420.41   -23317.231    1697.7514   -25014.983   -1131.3515    41.732237    95.099131    14.535741    27.842938 
     400    239.33931   -189.84993    204420.41   -23303.314      1737.19   -25040.503   -144.31372    43.718633    95.100102    14.533833    27.835197 
     600    244.60866   -218.06916    204420.41   -23192.466    1775.4363   -24967.902   -261.01061    45.068418    95.098482    14.533707    27.817769 
     800     237.5758    -305.7712    204420.41   -23170.295    1724.3899   -24894.685   -558.44695    46.313398    95.098541    14.533035    27.817771 
    1000    234.58855   -568.61759    204420.41   -23229.654    1702.7076   -24932.362    -1454.443    47.743831    95.097343    14.530658    27.814481 
    1200    236.77305   -573.09584    204420.41   -23194.271    1718.5633   -24912.835   -1455.9422    48.400993    95.097671    14.529618    27.822982 
    1400    239.56463    -292.9622    204420.41   -23222.479    1738.8253   -24961.304   -494.64524    50.160397    95.098089    14.528411    27.827693 
    1600    244.15424   -330.24458    204420.41   -23195.942     1772.138    -24968.08   -626.17688    52.237678     95.09764     14.52747    27.818104 
    1800    240.65241   -348.52998    204420.41   -23165.822    1746.7207   -24912.543    -700.3723    55.721518    95.097279    14.527083    27.793793 
    2000    245.73033   -369.22155    204420.41   -23084.502    1783.5777   -24868.079   -792.64293    58.365636    95.098809    14.526993     27.79702 
    2200    241.93039   -451.86218    204420.41   -23221.071    1755.9967   -24977.068   -1066.3438    60.851656       95.099    14.525356    27.808701 
    2400    237.70607   -366.65583    204420.41   -23213.401    1725.3354   -24938.737    -796.7722    63.549861    95.099686    14.526681    27.806162 
    2600    238.96736   -374.85192    204420.41   -23277.505    1734.4902   -25011.995   -794.62595    66.245704    95.100996    14.528287    27.813141 
    2800    244.78653   -184.08336    204420.41   -23150.873    1776.7274   -24927.601   -62.520084    67.759181    95.099104    14.532263    27.803415 
    3000     246.8608   -456.41384    204420.41   -23191.862     1791.783   -24983.645   -1082.2411     69.60267    95.098207     14.53484    27.797566 
    3200    236.82097   -102.62264    204420.41   -23282.225    1718.9111   -25001.136    152.08205    70.918984    95.099122    14.535269    27.786966 
    3400     240.8147   -268.97708    204420.41   -23282.965    1747.8987   -25030.864    -438.3528    71.257881    95.098911    14.532113     27.79768 
    3600    246.04169   -205.29708    204420.41   -23264.326    1785.8377   -25050.164   -201.33567    72.664928    95.099573    14.533772    27.785053 
    3800    239.19907   -181.09123    204420.41   -23205.351    1736.1721   -24941.523    -105.5325    75.647902    95.100669    14.532281    27.765831 
    4000    243.78641   -226.59588    204420.41   -23250.008    1769.4682   -25019.476   -276.30869    78.147819    95.099622    14.529937    27.748458 
    4200    239.92199   -108.11356    204420.41   -23222.155    1741.4191   -24963.574    139.84977    80.383504    95.100856    14.532611    27.753731 
    4400    241.60125    -167.7266    204420.41   -23284.696    1753.6077   -25038.304   -60.754181    81.904218    95.100638    14.531633     27.75996 
    4600    234.32215   -498.80977    204420.41   -23364.335     1700.774   -25065.109   -1225.5214     81.94335    95.099151    14.532533    27.760279 
    4800    240.85258   -489.70096    204420.41   -23204.315    1748.1736   -24952.488    -1204.302    82.221174     95.09915    14.534404    27.752592 
    5000    232.45187   -406.55552    204420.41   -23259.752     1687.199   -24946.951   -875.02521    83.025579    95.097778    14.534317    27.733233 
    5200    238.05592   -388.03579    204420.41   -23259.416    1727.8747   -24987.291   -798.85846    85.583079    95.096156     14.53477    27.699924 
    5400    238.16345   -395.45306    204420.41   -23289.182    1728.6552   -25017.837   -893.04198    87.360858    95.094192    14.536331    27.694664 
    5600    239.96747   -137.01943    204420.41   -23320.643    1741.7493   -25062.392    24.120537    89.130398    95.091264    14.540252    27.699493 
    5800     239.3353   -323.57103    204420.41   -23262.378    1737.1608   -24999.539   -612.64159     90.16837    95.090556      14.5425    27.708221 
    6000    237.34148   -375.64303    204420.41   -23300.873    1722.6892   -25023.562   -782.40063    91.203135    95.090761    14.541635    27.686709 
    6200    235.22055   -251.63911    204420.41   -23312.979    1707.2948   -25020.273   -361.15745    90.947268    95.091176    14.540919     27.67802 
    6400    238.59692   -452.15546    204420.41   -23305.773    1731.8015   -25037.574   -1072.9307    90.993027    95.090111    14.544813    27.679524 
    6600    238.75808   -328.05769    204420.41   -23271.864    1732.9712   -25004.835   -578.97068    91.665945    95.089821    14.544705     27.69561 
    6800    238.91689   -423.37273    204420.41   -23259.319    1734.1239   -24993.443   -987.57828    91.783241    95.090094    14.548756    27.711363 
    7000    240.01461   -368.32482    204420.41   -23211.837    1742.0915   -24953.928    -720.0723    93.794706    95.089385    14.551266    27.701506 
    7200    232.91848   -260.22477    204420.41   -23335.802    1690.5858   -25026.388   -357.00653    97.137269    95.086424      14.5526    27.694408 
    7400    239.89236   -346.12515    204420.41    -23302.05    1741.2041   -25043.254   -687.04483    100.22905    95.086046    14.549973    27.680065 
    7600    241.01252   -481.30889    204420.41    -23211.43    1749.3346   -24960.765   -1171.3684    102.48715    95.084687     14.54792    27.671791 
    7800    237.46655   -432.94171    204420.41   -23330.505    1723.5969   -25054.102   -954.78091    102.62905     95.08509    14.545456     27.66499 
    8000    245.01403   -207.13607    204420.41   -23199.598    1778.3786   -24977.976   -216.63501    102.77302    95.084364     14.54111    27.686377 
    8200    240.66999   -374.32614    204420.41   -23200.066    1746.8483   -24946.914   -777.93294    103.66201    95.083608    14.539952    27.669197 
    8400    245.28463   -403.03309    204420.41   -23148.396    1780.3427   -24928.739   -885.29265    105.88301    95.085377    14.536361    27.653936 
    8600    239.49771   -292.05334    204420.41   -23233.326    1738.3396   -24971.666   -464.41371    107.19111    95.086681    14.536934    27.661506 
    8800    238.17731   -369.11175    204420.41   -23246.346    1728.7558   -24975.102   -734.96602    109.08673    95.085345    14.536783    27.655519 
    9000    240.80765   -418.50809    204420.41   -23218.735    1747.8476   -24966.582   -910.45447    108.59333    95.084919    14.536829     27.64515 
    9200    244.92617   -359.97885    204420.41   -23180.628    1777.7409   -24958.369   -727.16074    108.69126    95.086746    14.538675    27.645132 
    9400    235.60293   -536.43644    204420.41   -23212.173    1710.0702   -24922.243   -1314.7645    110.61568    95.088349    14.543354    27.650552 
    9600    242.37931   -154.93573    204420.41   -23247.832    1759.2551   -25007.087   -57.987228    111.05036    95.087915    14.544941    27.647645 
    9800    244.24992   -196.49724    204420.41    -23134.02    1772.8325   -24906.853   -157.74424    112.40012    95.088214    14.548837    27.645069 
   10000    239.59233   -119.03447    204420.41   -23192.443    1739.0264    -24931.47    76.442031    114.16031    95.088024    14.551539    27.634937 
   10200    238.80595   -470.59398    204420.41    -23087.33    1733.3187   -24820.649   -1082.3263    114.65783    95.087244    14.546514     27.65007 
   10400     244.6764   -306.65179    204420.41   -23083.912     1775.928    -24859.84   -539.33934    115.98718    95.085923    14.544422    27.653732 
   10600    246.61509   -347.80058    204420.41    -23133.32    1789.9995    -24923.32   -682.34912    118.05808    95.086362    14.544451    27.663771 
   10800    237.30251   -339.34529    204420.41   -23210.978    1722.4063   -24933.384   -672.69668    120.38649    95.086233    14.545208    27.654841 
   11000    238.32756   -107.23802    204420.41   -23233.042    1729.8464   -24962.888    126.84949    122.66263    95.083899    14.546019     27.65621 
   11200    235.22241    -403.6457    204420.41   -23235.333    1707.3083   -24942.641   -913.60956    122.24552    95.083788    14.546776    27.632577 
   11400    240.95638   -290.87274    204420.41    -23191.87     1748.927   -24940.797   -498.60285    124.82639    95.083786    14.544781    27.620682 
   11600    242.46086   -438.26041    204420.41   -23121.524     1759.847   -24881.371   -996.36388    125.84208    95.084547    14.544734    27.610264 
   11800    244.64398   -397.14927    204420.41   -23148.465    1775.6927   -24924.157   -855.91626    125.88095    95.082323    14.545159    27.627636 
   12000    242.34783   -384.84035    204420.41   -23144.531    1759.0266   -24903.558   -812.37299    127.11027    95.080955    14.543964    27.603115 
   12200    241.40012   -436.71756    204420.41   -23161.462    1752.1479    -24913.61   -986.57238    129.24693      95.0826    14.543171    27.599612 
   12400     244.2513   -420.12111    204420.41   -23213.166    1772.8425   -24986.009   -967.71142    131.61401    95.081943    14.545789    27.597799 
   12600    243.43285    -465.8455    204420.41   -23157.834    1766.9019   -24924.736   -1150.3031      133.172    95.082233    14.542578    27.626221 
   12800    242.40508   -404.20095    204420.41   -23191.069    1759.4421   -24950.511   -889.60883    135.78374    95.083555    14.540357    27.622409 
   13000    234.18277   -298.29398    204420.41   -23219.787    1699.7624   -24919.549   -494.68405    137.34028    95.083093    14.538361    27.617095 
   13200    233.19755   -487.95681    204420.41   -23268.523    1692.6114   -24961.134   -1209.4947    138.06017    95.085023    14.537012    27.627707 
   13400    235.72008   -386.19655    204420.41    -23361.84    1710.9206   -25072.761   -836.06706    141.20094    95.085539    14.533419    27.621892 
   13600    237.90219   -440.73932    204420.41   -23273.347    1726.7589   -25000.106   -1015.1057    144.85473    95.084543    14.531492      27.6356 
   13800    243.20853   -298.84203    204420.41       -23246    1765.2738   -25011.274   -524.95157    145.95926    95.084971    14.531061    27.625298 
   14000    250.59972   -364.51631    204420.41   -23200.936     1818.921   -25019.857   -738.17153    146.54739    95.082785    14.529574     27.63797 
   14200    238.23044   -378.45893    204420.41   -23252.997    1729.1414   -24982.139   -815.90782    146.88593    95.082473    14.528723    27.624094 
   14400    234.43035   -381.69223    204420.41   -23279.578    1701.5594   -24981.138   -782.51701     147.6749    95.081245    14.530622     27.62514 
   14600    242.58207   -442.33834    204420.41   -23258.719    1760.7267   -25019.446   -1067.2902    149.62135    95.080169     14.53178    27.618453 
   14800    236.25984   -256.84579    204420.41   -23244.882    1714.8383    -24959.72   -379.85389    149.65354    95.077693     14.53243    27.615744 
   15000    240.76375   -320.90747    204420.41   -23298.316    1747.5289   -25045.845   -604.19922    150.37363    95.076904    14.532919    27.616276 
   15200    241.01983   -226.63729    204420.41   -23268.693    1749.3876    -25018.08   -243.66586    151.49681    95.076356    14.533488    27.635864 
   15400     239.3849   -337.52684    204420.41   -23339.818    1737.5208   -25077.339   -656.15169    155.11115    95.074942    14.534239    27.628899 
   15600     245.6891   -525.37134    204420.41   -23189.366    1783.2785   -24972.644   -1294.0662    157.40091    95.073889    14.535056    27.608668 
   15800    244.21129    -206.6839    204420.41   -23203.193    1772.5521   -24975.746   -216.30242    159.05775     95.07252    14.535322    27.605863 
   16000    241.73238   -549.97518    204420.41   -23266.775    1754.5595   -25021.335   -1402.8129    163.08588    95.071809    14.536413    27.602094 
   16200    244.43154   -394.30676    204420.41   -23219.207    1774.1507   -24993.358   -877.48487    165.64359    95.072513    14.536591    27.582268 
   16400    233.66362   -396.56909    204420.41   -23275.097    1695.9942   -24971.091   -869.42972    165.80363    95.073591    14.538085    27.571188 
   16600    245.39478   -314.24485    204420.41   -23175.074    1781.1422   -24956.216   -609.81874    167.63481    95.074093    14.536654    27.556431 
   16800    241.96192   -259.70859    204420.41   -23215.868    1756.2255   -24972.093   -358.84433    170.28111    95.073651    14.534838     27.56702 
   17000    242.22175   -441.10683    204420.41   -23263.131    1758.1115   -25021.242   -998.29977    172.70607    95.072457    14.534556    27.563305 
   17200    237.59702   -305.23091    204420.41   -23252.581    1724.5439   -24977.125   -525.07062    174.77251    95.072868    14.534591    27.553131 
   17400     238.2286   -403.53681    204420.41   -23336.002    1729.1281    -25065.13   -868.35483    176.43669    95.072639    14.533879    27.553686 
   17600     239.7331   -422.34541    204420.41   -23240.941    1740.0481    -24980.99   -929.37685     177.0662    95.072416    14.533094    27.560358 
   17800    238.69266   -426.75002    204420.41   -23253.742    1732.4964   -24986.238   -994.93455    177.72629    95.073578    14.532149    27.570617 
   18000     239.4147   -476.79612    204420.41   -23222.425    1737.7371   -24960.162   -1136.1697    179.49728    95.073576    14.531428    27.560182 
   18200    237.83859   -233.37345    204420.41   -23274.583    1726.2973   -25000.881   -279.19562    180.07542    95.073858    14.531106    27.557357 
   18400    239.19796   -351.26182    204420.41   -23245.632     1736.164   -24981.796   -700.64721    179.04827    95.074917    14.533661    27.583715 
   18600    238.65585   -356.40834    204420.41   -23228.541    1732.2292    -24960.77   -761.56448    179.03388    95.074729    14.531886    27.569495 
   18800    236.55559   -519.05951    204420.41   -23294.793    1716.9849   -25011.778   -1264.9771    179.16901    95.074375    14.529824    27.576219 
   19000     235.3648    -349.6133    204420.41     -23241.7    1708.3419   -24950.042   -697.55985    178.89201    95.073418    14.529832    27.564961 
   19200    238.82741   -474.54389    204420.41   -23249.947    1733.4744   -24983.421   -1169.6951    179.13076    95.072682    14.526868    27.567354 
   19400    243.18004   -238.04584    204420.41   -23181.107     1765.067   -24946.174   -308.15227    178.94067    95.072913    14.526431    27.568645 
   19600    243.70347   -251.81346    204420.41   -23165.944    1768.8662    -24934.81   -360.06554     179.7937    95.073405    14.525626    27.581099 
   19800    243.90937    -328.4437    204420.41   -23156.276    1770.3606   -24926.637   -648.78206    181.05952    95.073035     14.52584    27.596309 
   20000    238.78964   -530.08902    204420.41    -23159.07    1733.2003    -24892.27   -1293.4514    182.50433    95.072962    14.527632    27.593722 
   20200    233.46551   -359.05326    204420.41   -23253.439    1694.5563   -24947.995   -692.65082    184.90173    95.072772    14.529338    27.597394 
   20400    247.11266   -431.11696    204420.41   -23184.936     1793.611   -24978.547   -973.86132    186.30789    95.073321    14.531964    27.609072 
   20600    232.78888   -316.41819    204420.41   -23269.383    1689.6451   -24959.029   -570.08878    187.62475    95.073348    14.535692    27.610968 
   20800    241.41936   -359.28284    204420.41   -23183.848    1752.2875   -24936.136   -752.35901    188.70701    95.071981    14.534476    27.630348 
   21000    246.78965   -189.49532    204420.41   -23191.468    1791.2665   -24982.734   -118.36617    189.06034    95.072198     14.53352    27.640598 
   21200    244.64289   -417.53354    204420.41   -23181.258    1775.6848   -24956.942   -912.55614    191.39153    95.071049    14.534108    27.629722 
   21400    237.63868   -320.58244    204420.41   -23220.356    1724.8463   -24945.203   -567.43942    193.57776    95.073312    14.530767    27.620556 
   21600    247.51847   -260.10424    204420.41   -23114.717    1796.5565   -24911.273   -355.29078    193.50503    95.073613    14.532076    27.606706 
   21800    241.88472   -348.01383    204420.41   -23212.706    1755.6652   -24968.371    -675.0571    194.81231    95.074814    14.534385    27.624125 
   22000    235.62015   -366.64336    204420.41   -23228.997    1710.1953   -24939.192   -767.70727    195.58672    95.076017    14.534664    27.629967 
   22200    232.92206   -456.49561    204420.41   -23282.955    1690.6117   -24973.567   -1081.3375    196.68158    95.075411    14.535956    27.644785 
   22400    243.42385   -457.73767    204420.41   -23130.677    1766.8366   -24897.513    -1078.698    197.00096    95.076183    14.532716    27.641535 
   22600    238.75992   -282.25536    204420.41   -23161.577    1732.9846   -24894.562   -462.14046    198.23483    95.076889    14.532343    27.653903 
   22800    241.03643   -334.91972    204420.41   -23141.382    1749.5081    -24890.89    -642.4433    198.97481    95.078174    14.531378    27.651539 
   23000     240.7166   -452.57694    204420.41   -23218.017    1747.1866   -24965.204   -1087.8458    203.15146    95.079462    14.530816    27.627407 
   23200    245.10594   -144.70334    204420.41   -23152.873    1779.0457   -24931.919    41.968577    205.04455     95.08097    14.530389     27.61838 
   23400    241.03015   -367.94864    204420.41   -23162.736    1749.4625   -24912.199   -773.59841     206.5102    95.081548     14.53341     27.61563 
   23600    245.05201   -478.63588    204420.41   -23095.906    1778.6543    -24874.56   -1171.5933    210.71848    95.082231     14.53611    27.593553 
   23800    240.42585   -281.74655    204420.41   -23115.907    1745.0764   -24860.984   -469.46336    211.73389     95.08126    14.537225    27.615771 
   24000    240.60675   -222.51572    204420.41   -23195.465    1746.3894   -24941.855   -251.47607    212.19035    95.081517    14.539565    27.617325 
   24200    235.95604    -465.8301    204420.41   -23211.628    1712.6332   -24924.262   -1081.7531    213.48434    95.082552    14.540237    27.607235 
   24400    242.84017   -197.33921    204420.41   -23268.211    1762.6001   -25030.811   -157.61117    214.29831    95.082724    14.538589    27.620019 
   24600    235.09852   -373.00766    204420.41   -23288.756    1706.4091   -24995.165   -775.08465    217.29923    95.083013    14.535887     27.60389 
   24800    236.77635   -322.90777    204420.41   -23252.161    1718.5872   -24970.748   -603.47514    218.46554    95.084113    14.533712    27.593938 
   25000    241.04376   -177.25647    204420.41   -23259.104    1749.5613   -25008.665   -122.92814    219.89649    95.083996    14.533572    27.594395 
   25200    227.68407   -406.43402    204420.41   -23371.333     1652.593   -25023.926   -927.87058    224.14824    95.085743     14.53493    27.603545 
   25400    237.51881   -460.65204    204420.41   -23261.644    1723.9762    -24985.62   -1081.6882    224.98075    95.087007    14.535441    27.611127 
   25600    249.77236   -283.11635    204420.41   -23118.491    1812.9158   -24931.407   -553.80391    226.96317    95.085859    14.535499    27.615073 
   25800    241.96681   -260.68463    204420.41   -23158.646     1756.261   -24914.907   -388.23788    228.41112    95.085741    14.533884    27.619975 
   26000    239.01087   -230.52667    204420.41    -23149.26     1734.806   -24884.066   -287.93961    230.16112    95.085317    14.536129    27.629919 
   26200    243.69325   -260.48615    204420.41    -23132.19     1768.792   -24900.982   -376.16437    232.19141    95.086773    14.539352    27.659204 
   26400    242.17728   -490.44452    204420.41   -23181.951    1757.7887   -24939.739   -1171.2047    235.59684    95.086592    14.542774    27.670414 
   26600     249.3053   -212.89535    204420.41   -23131.284    1809.5258    -24940.81   -224.97179    236.40411    95.085663    14.543009     27.67706 
   26800    241.27328   -340.96119    204420.41   -23207.676    1751.2272   -24958.903   -647.94518    237.60671    95.085751    14.545696     27.68669 
   27000    243.77443   -252.35697    204420.41    -23155.42    1769.3813   -24924.801   -373.60481    238.87533    95.085514     14.54586    27.678136 
   27200    239.33393   -624.69452    204420.41   -23203.789    1737.1509    -24940.94   -1675.5645    242.33547    95.085309    14.548267    27.675808 
   27400    244.56658   -220.87857    204420.41   -23143.516    1775.1309   -24918.646   -251.53421    241.29569    95.083824    14.546546    27.667263 
   27600    235.34227   -338.47343    204420.41   -23266.401    1708.1783   -24974.579   -631.10527    241.64713    95.083222    14.545962    27.679322 
   27800    244.50588   -227.53433    204420.41   -23126.007    1774.6903   -24900.697   -295.02491    244.15443     95.08349    14.543266    27.678309 
   28000     236.2518   -284.47495    204420.41   -23267.835      1714.78   -24982.615   -454.80725    244.33072    95.082868    14.540168    27.684615 
   28200    233.63238   -462.73456    204420.41   -23250.667    1695.7675   -24946.435   -1088.1387    245.94951    95.083608    14.541561    27.711817 
   28400    240.84779   -527.40015    204420.41   -23254.962    1748.1389   -25003.101   -1317.2678    249.69762    95.083352    14.545341    27.687107 
   28600    241.58746   -291.24607    204420.41   -23243.802    1753.5076    -24997.31   -489.57969    252.19803    95.083059    14.550714    27.688484 
   28800    235.93071   -233.35293    204420.41   -23278.226    1712.4493   -24990.675   -285.98864    255.10437    95.083246    14.555637    27.676359 
   29000    240.46889   -235.76994    204420.41   -23213.695    1745.3887   -24959.084    -297.7119    254.54431    95.082681    14.559341    27.677034 
   29200    247.44231   -317.60081    204420.41   -23166.959    1796.0037   -24962.963   -601.36602    254.12411    95.083158    14.560138    27.647639 
   29400    242.79555   -418.48367    204420.41   -23190.273    1762.2763   -24952.549   -933.69657    253.69381    95.082527    14.559225    27.652535 
   29600    239.24792   -397.26339    204420.41   -23214.916    1736.5266   -24951.442   -912.23941    253.88387    95.083137     14.56087    27.652424 
   29800    234.51975   -421.79745    204420.41    -23319.29    1702.2083   -25021.498   -955.32844    254.91236    95.083223    14.559925    27.658803 
   30000    231.87562   -19.774169    204420.41   -23346.603    1683.0164   -25029.619    433.05015    256.15794    95.084246    14.557347    27.658261 
   30200    241.31979   -405.37269    204420.41   -23266.106    1751.5648    -25017.67   -942.36172    257.30819    95.087121    14.560165     27.65611 
   30400    244.43554   -320.80312    204420.41   -23286.867    1774.1797   -25061.047   -599.47358    257.53084    95.086156    14.557996    27.679872 
   30600    236.06461    -372.1742    204420.41   -23337.315    1713.4213   -25050.737   -788.27782    257.19802    95.087604    14.553312    27.677169 
   30800    236.20482   -296.35865    204420.41   -23305.305     1714.439   -25019.744   -491.83745    257.82889    95.086454    14.554901    27.678078 
   31000     240.6193   -491.53256    204420.41   -23280.184    1746.4804   -25026.664   -1179.7261    257.50067    95.086387    14.557467    27.699353 
   31200    241.77228    -481.5555    204420.41    -23236.25    1754.8491     -24991.1   -1145.1217    256.40544    95.087005    14.557996    27.695596 
   31400    238.88026   -96.135386    204420.41   -23238.655     1733.858   -24972.513     184.5243    257.30523    95.086949    14.555692    27.696496 
   31600      237.562   -406.54665    204420.41   -23253.529    1724.2897   -24977.819   -843.00512     258.3025    95.087872    14.557068    27.706657 
   31800    244.70377   -309.00435    204420.41   -23213.431    1776.1266   -24989.557   -565.52419    260.26858    95.086519    14.555695    27.723019 
   32000    236.18532   -198.21941    204420.41    -23267.15    1714.2974   -24981.448   -159.78165    261.20072    95.086583    14.553984    27.745569 
   32200    239.71805   -485.48452    204420.41   -23289.726     1739.939   -25029.665   -1104.9397    263.30391    95.086671    14.554439    27.748859 
   32400    238.72776   -306.42912    204420.41   -23297.206    1732.7511   -25029.957   -557.66282    263.25995    95.085956    14.554383    27.750378 
   32600    247.39968   -560.94754    204420.41   -23207.638    1795.6943   -25003.332    -1413.374    266.79879    95.086794    14.551264     27.75333 
   32800    243.29338   -394.65714    204420.41   -23177.646    1765.8896   -24943.536   -847.90245    269.11205    95.087657    14.549541     27.73015 
   33000    240.42538   -184.68722    204420.41   -23155.888    1745.0729   -24900.961   -160.81279    270.60273    95.086189    14.550138    27.741694 
   33200    239.99313   -387.11585    204420.41   -23218.188    1741.9356   -24960.123   -787.24119    274.38934    95.086222    14.550803    27.735661 
   33400    232.94793   -385.87514    204420.41   -23239.872    1690.7996   -24930.671   -799.24504    274.93122    95.084452    14.548993    27.720248 
   33600    235.31669   -291.11839    204420.41   -23240.269    1707.9927   -24948.262   -519.53214    276.16893    95.084381    14.551639    27.703094 
   33800    243.25379   -344.96393    204420.41   -23094.026    1765.6023   -24859.628   -699.78627    276.94122    95.084317    14.553951    27.709086 
   34000    239.87653   -375.95067    204420.41   -23215.599    1741.0892   -24956.688   -785.58298    280.48539    95.082508    14.553695    27.722351 
   34200    243.02929   -282.59175    204420.41   -23209.242    1763.9728   -24973.215   -437.40147    283.92471    95.082373     14.55283     27.72942 
   34400     238.5721   -494.54542    204420.41   -23285.179    1731.6213   -25016.801   -1215.8945    285.21231    95.081225    14.551046    27.720112 
   34600    247.67042   -544.21063    204420.41   -23117.607    1797.6594   -24915.266   -1371.6859    285.22242    95.080652     14.55103    27.713429 
   34800    235.73059   -289.07864    204420.41   -23228.892    1710.9969   -24939.889    -545.1216    286.59215    95.080378    14.551269     27.71485 
   35000    241.25904   -369.22938    204420.41   -23222.201    1751.1238   -24973.325   -752.11752    287.76998    95.081063    14.552853    27.713726 
   35200    241.17363   -424.53977    204420.41   -23152.189    1750.5039   -24902.693    -933.5667    290.09529    95.082346    14.556905    27.720905 
   35400    237.87421   -212.64904    204420.41   -23154.556    1726.5558   -24881.112   -193.59556    291.72397    95.082699    14.557992    27.727119 
   35600    241.77704   -444.98082    204420.41   -23162.677    1754.8836   -24917.561   -1033.0807    294.15176    95.083244    14.556073    27.728055 
   35800    245.64145   -319.74993    204420.41   -23077.567    1782.9326     -24860.5   -588.09143    296.12821    95.083604     14.55694    27.747493 
   36000     237.6171   -320.68145    204420.41   -23202.635    1724.6897   -24927.325   -574.63818    297.88802    95.083996    14.555347    27.753068 
   36200    247.70533   -208.45923    204420.41   -23218.255    1797.9128   -25016.168   -184.36211    301.52425    95.083615    14.554794     27.75217 
   36400    240.83788   -440.64293    204420.41   -23178.582     1748.067   -24926.649   -994.64831    303.72165    95.084152    14.553861    27.769599 
   36600    244.34162    -174.2572    204420.41   -23154.875     1773.498   -24928.373   -103.47988    307.01198    95.083895    14.556643    27.758382 
   36800    234.29465   -371.83899    204420.41    -23210.82    1700.5744   -24911.395   -759.94119    307.88329     95.08293    14.556996    27.770656 
   37000    237.48287   -454.50138    204420.41    -23198.76    1723.7154   -24922.475     -1084.27    307.65046    95.082331    14.554677    27.755351 
   37200    244.98663   -293.08879    204420.41   -23232.369    1778.1797   -25010.549   -522.62745    307.89764    95.083648    14.553339    27.759074 
   37400    241.58347   -312.37267    204420.41   -23237.789    1753.4787   -24991.268   -590.86615    309.05354    95.083184    14.553664    27.723713 
   37600    236.46913   -279.21694    204420.41   -23290.615    1716.3574   -25006.972   -415.55945    309.02558    95.085381    14.554291    27.758973 
   37800    238.55713   -279.57719    204420.41   -23349.797    1731.5127   -25081.309   -464.51781    310.54461    95.085224    14.554219    27.766775 
   38000    237.08465   -432.60242    204420.41   -23249.722     1720.825   -24970.547    -1015.223    311.20739    95.082287    14.555883    27.780398 
   38200    232.22822   -546.56324    204420.41   -23262.929    1685.5757   -24948.505   -1402.4825    312.37726    95.079347    14.554286    27.805182 
   38400       242.63   -417.01907    204420.41   -23193.657    1761.0746   -24954.732   -909.23932     312.7414     95.07886    14.551845    27.803362 
   38600    242.82684   -391.95468    204420.41   -23257.435    1762.5034   -25019.939   -845.03199    311.88089    95.079997    14.551565    27.828406 
   38800    237.52914   -349.23709    204420.41   -23239.089    1724.0512    -24963.14   -688.00575    313.51089    95.079227    14.554173    27.829562 
   39000    246.90992    -295.7236    204420.41    -23212.45    1792.1395    -25004.59    -513.4283    313.28416    95.078539    14.556243    27.824921 
   39200    236.85304   -360.53524    204420.41   -23298.644    1719.1439   -25017.788   -763.65574    314.68925    95.077883    14.558787    27.820336 
   39400    238.76788   -349.39322    204420.41   -23263.477    1733.0423   -24996.519    -662.9358     317.1334    95.078867    14.559829    27.830102 
   39600    242.19492   -362.74496    204420.41   -23204.409    1757.9168   -24962.326   -713.26802    317.50349    95.078581    14.558891    27.808352 
   39800     237.9709   -374.28398    204420.41   -23236.052    1727.2576    -24963.31   -786.40609    318.26482    95.077889    14.558386     27.82008 
   40000    244.03641   -160.05021    204420.41   -23221.476    1771.2828   -24992.759   -50.627861    319.12007    95.076663    14.557545    27.842912 
   40200    245.10852   -334.27321    204420.41   -23224.463    1779.0644   -25003.527   -648.47868    321.34532    95.077265     14.55613    27.843488 
   40400    237.77905   -300.49143    204420.41   -23277.167    1725.8651   -25003.033   -535.94961    322.69021    95.079273    14.555129    27.846582 
   40600    238.81256   -379.86381    204420.41   -23137.808    1733.3667   -24871.175   -788.15015    323.20965    95.078608    14.558396     27.84313 
   40800    237.87543   -377.98789    204420.41   -23252.837    1726.5647   -24979.402   -825.29262    327.39669    95.078823    14.561632    27.853733 
   41000    235.69433   -267.48866    204420.41   -23225.648    1710.7337   -24936.382   -403.91126     329.6256    95.079726    14.562635    27.865392 
   41200    243.40063   -396.13135    204420.41   -23155.534    1766.6681   -24922.203   -865.29202    333.41502    95.081073    14.563332    27.866449 
   41400    235.65485   -220.36861    204420.41   -23225.169    1710.4471   -24935.616   -309.20445    333.99782    95.080603    14.564142    27.867013 
   41600    244.10586   -307.88173    204420.41   -23221.035    1771.7869   -24992.822   -563.69922    335.70678    95.079482    14.565169    27.878714 
   41800    243.85876   -444.28566    204420.41   -23224.004    1769.9933   -24993.998   -1021.9029    337.25944    95.078873    14.566458    27.883845 
   42000    233.07178   -321.00367    204420.41   -23301.687    1691.6985   -24993.386   -615.42694    337.86431    95.078949    14.570296    27.893721 
   42200     238.4614   -232.92451    204420.41   -23373.599    1730.8178   -25104.416   -296.10178     339.3172    95.078796    14.570892    27.881134 
   42400    237.48603   -429.52157    204420.41   -23289.886    1723.7383   -25013.624   -963.43175    340.39004     95.07873    14.567593     27.86532 
   42600    237.57132   -461.37116    204420.41   -23275.795    1724.3574   -25000.153   -1064.1997    342.78661    95.079306     14.56311    27.864573 
   42800    244.16647   -282.02339    204420.41   -23244.765    1772.2268   -25016.992   -491.01662    345.09604    95.077181    14.559358    27.864991 
   43000     235.9646   -432.52352    204420.41   -23235.992    1712.6954   -24948.687   -995.45577     346.6647    95.075023    14.559628    27.857957 
   43200    239.82797   -265.19702    204420.41   -23241.056    1740.7368   -24981.793   -431.09804    350.19706    95.078461    14.558855    27.857241 
   43400    238.27536   -487.49309    204420.41   -23245.801    1729.4675   -24975.268   -1185.6411    350.55673    95.079737    14.555795    27.849173 
   43600    242.64744    -437.0797    204420.41   -23255.974    1761.2012   -25017.175     -1017.62     353.1827    95.078448    14.552218    27.838999 
   43800    234.42911   -441.64964    204420.41   -23276.743    1701.5503   -24978.294   -1022.4365    355.17237    95.077323    14.552381    27.838663 
   44000    238.51749   -344.95901    204420.41   -23310.019    1731.2249   -25041.244   -710.11655     355.6957    95.077033    14.553798    27.847457 
   44200    240.72354   -367.05926    204420.41   -23282.066    1747.2371   -25029.304   -757.58576    357.88538    95.075703    14.554776    27.879876 
   44400    238.74135   -168.18208    204420.41   -23289.027    1732.8498   -25021.877   -94.348334    359.16105    95.077096     14.55427    27.897026 
   44600    232.72281   -252.51074    204420.41   -23335.232    1689.1655   -25024.397   -361.36883    360.50975    95.077222    14.555966    27.897145 
   44800    237.97669   -713.95935    204420.41   -23324.118    1727.2997   -25051.418   -1979.7734    362.11219    95.076883    14.556783    27.894159 
   45000    241.91851   -397.47304    204420.41   -23252.439    1755.9105    -25008.35   -821.92027    360.36573    95.077755    14.558234    27.905166 
   45200    240.99236   -146.89479    204420.41   -23201.835    1749.1882   -24951.024    3.7829991     361.2371    95.076433     14.55929    27.906418 
   45400    234.79408   -344.25703    204420.41   -23283.778    1704.1994   -24987.977   -681.27102    362.42138    95.075967    14.556617    27.928522 
   45600     241.8984   -300.94559    204420.41   -23189.382    1755.7645   -24945.147   -525.92708    360.70635    95.077255    14.554926    27.927404 
   45800    238.01582    -401.0615    204420.41   -23204.551    1727.5836   -24932.134   -901.04413    363.59431     95.07661    14.554572    27.915937 
   46000    245.97572   -448.18095    204420.41   -23151.041    1785.3588   -24936.399    -1043.476     364.2755    95.075387    14.552736    27.940864 
   46200    241.75382   -272.26019    204420.41    -23175.77    1754.7151   -24930.485   -408.86545    364.64198    95.074213      14.5515    27.954532 
   46400    235.16031   -244.72532    204420.41   -23247.961    1706.8576   -24954.818   -340.68243    365.50759    95.074825    14.550564     27.95085 
   46600    238.31596   -312.20322    204420.41   -23254.808    1729.7622    -24984.57   -546.16559    366.40799    95.075023    14.549114    27.948603 
   46800    240.63562   -444.54415    204420.41   -23199.506    1746.5989   -24946.105   -1030.5235    369.05094    95.075807    14.549473    27.936978 
   47000    238.37951   -538.57788    204420.41   -23192.885    1730.2235   -24923.108    -1363.017     370.2386    95.075453    14.547441    27.942554 
   47200    239.72885   -180.79246    204420.41   -23303.483    1740.0173   -25043.501   -95.762413    370.92136    95.076528    14.547322    27.932499 
   47400    244.88263   -430.25509    204420.41   -23240.667    1777.4248   -25018.092   -973.54284    373.34613    95.077235    14.547123    27.937348 
   47600    236.11991   -388.21346    204420.41   -23229.319    1713.8227   -24943.142   -806.44021    377.31141    95.077726    14.546911    27.920097 
   47800    237.17817   -516.38675    204420.41   -23259.833    1721.5038   -24981.336   -1288.5152    378.47904     95.07891    14.545273    27.934235 
   48000    244.07408    -169.4068    204420.41   -23233.272    1771.5562   -25004.828   -90.072137    382.11231    95.079291    14.543493    27.914208 
   48200    236.55586   -478.30648    204420.41   -23214.297    1716.9869   -24931.283   -1138.9537    385.18132    95.078935    14.544507    27.893611 
   48400    238.28087   -193.77852    204420.41   -23237.547    1729.5075   -24967.054   -143.19023    387.50985    95.077398    14.547625    27.903558 
   48600    232.71493   -578.88157    204420.41   -23281.583    1689.1083   -24970.691    -1496.524     390.4896    95.078143    14.548194    27.913282 
   48800    242.00808   -269.34523    204420.41   -23264.163    1756.5606   -25020.723   -427.44665    391.71895    95.078992    14.548553    27.913706 
   49000    237.93079   -320.47405    204420.41   -23263.686    1726.9665   -24990.653   -588.07022    391.09548    95.079541    14.549871    27.892199 
   49200    234.73076   -524.16136    204420.41   -23184.137    1703.7398   -24887.877   -1283.1192    390.98182    95.079397    14.548554    27.879476 
   49400    233.64908   -137.23323    204420.41   -23247.714    1695.8887   -24943.602    62.878787    390.10339     95.07749    14.549492    27.884686 
   49600     237.3601    -506.0453    204420.41   -23237.938    1722.8243   -24960.763   -1257.7311    393.07083    95.075728    14.550648    27.921985 
   49800     234.7864   -361.52132    204420.41   -23224.424    1704.1437   -24928.567    -716.3688    393.78882    95.075171    14.552319    27.923693 
   50000    237.95305   -265.74982    204420.41    -23251.91     1727.128   -24979.038   -416.51394    394.33865    95.076186    14.549995     27.91298 
   50200    246.43248   -497.83109    204420.41   -23191.961    1788.6741   -24980.635   -1221.8252    395.08497    95.075975    14.546824    27.897282 
   50400    237.66175   -586.17899    204420.41   -23245.286    1725.0138     -24970.3   -1522.8391    397.15506    95.076651    14.542711    27.890071 
   50600    244.01518   -283.74538    204420.41   -23141.097    1771.1287   -24912.226   -465.09883    398.34739    95.077002     14.54193    27.892545 
   50800    234.38275   -285.51615    204420.41    -23330.73    1701.2139   -25031.944    -465.5291    399.14503    95.076989    14.538468    27.912385 
   51000    236.46286   -292.31561    204420.41   -23263.383    1716.3119   -24979.694   -482.45474    399.81096    95.077154    14.536013    27.930882 
   51200    245.15698   -248.19055    204420.41   -23261.493    1779.4161    -25040.91   -340.41373    399.63732    95.077829    14.536759    27.935057 
   51400    240.25766   -354.17286    204420.41   -23225.745    1743.8556   -24969.601   -715.16168    398.59095    95.078416    14.538821     27.96209 
   51600    237.75504   -226.42021    204420.41   -23273.168    1725.6908   -24998.859   -276.12321    399.99173    95.077486    14.539669    27.983811 
   51800    233.56183    -209.0965    204420.41   -23247.304    1695.2554    -24942.56   -218.01778    401.64999    95.078899    14.539477    27.978866 
   52000     229.7391   -404.08115    204420.41   -23279.286     1667.509   -24946.795   -877.25155    400.95238    95.078732    14.541053     27.97418 
   52200    235.04509   -346.19309    204420.41   -23256.868    1706.0213   -24962.889   -702.46809    401.49473     95.07871    14.540394    27.976687 
   52400    230.13622    -312.5743    204420.41   -23320.389    1670.3914    -24990.78   -555.60868    401.18347    95.078665    14.537821     27.95881 
   52600    239.51029   -387.48444    204420.41    -23177.23    1738.4309   -24915.661   -810.94102    402.71952    95.079635    14.537123    27.960448 
   52800    242.93315   -278.48535    204420.41   -23097.718     1763.275   -24860.993   -450.86569    403.33259    95.081243    14.536855    27.955537 
   53000    239.57535   -274.74941    204420.41   -23103.151    1738.9032   -24842.054   -439.20099     404.5479    95.080458    14.539887    27.954527 
   53200    235.89001   -259.10808    204420.41    -23202.71    1712.1539   -24914.864   -388.47992    406.13814     95.08043    14.540285    27.968839 
   53400    245.67509   -442.48589    204420.41   -23171.456    1783.1767   -24954.633   -1045.8786      409.773     95.07956    14.541037    27.982118 
   53600    235.48365   -250.18363    204420.41   -23301.341    1709.2045   -25010.545   -319.97335    410.90651    95.079032     14.54252    27.981886 
   53800     238.6404   -314.58889    204420.41    -23242.09     1732.117   -24974.207   -585.28812    409.90707    95.078558    14.541775    27.975236 
   54000    239.41463   -390.67319    204420.41   -23164.999    1737.7366   -24902.735   -812.72898    411.89114    95.079183    14.543482    27.980294 
   54200    249.21844   -216.64851    204420.41   -23195.323    1808.8953   -25004.218    -223.4974    414.48662    95.079431    14.545114    27.986407 
   54400     247.7863    -309.2299    204420.41   -23155.062    1798.5004   -24953.562   -552.91549    415.22696    95.079489    14.547643    27.991592 
   54600    243.62843   -326.18317    204420.41   -23212.626    1768.3215   -24980.947   -626.75226    418.00476    95.076614    14.548681    27.992644 
   54800    238.44497   -276.17034    204420.41   -23200.473    1730.6986   -24931.172   -443.36695    421.87365    95.076709    14.548548    27.986612 
   55000     243.5078   -436.84334    204420.41   -23181.569     1767.446   -24949.015   -1006.5484    421.94919      95.0764    14.551627    27.985526 
   55200    239.68165   -222.69828    204420.41    -23309.26    1739.6747   -25048.935   -235.10856    423.70846    95.077444    14.551605    27.986411 
   55400    235.88138    -337.9957    204420.41   -23265.897    1712.0913   -24977.988   -654.20722    423.13808    95.077725    14.554215    28.007431 
   55600    243.67846   -261.74495    204420.41   -23207.274    1768.6847   -24975.959   -345.36426    421.16944    95.077898    14.552127    27.998581 
   55800    252.54217   -431.16769    204420.41     -23111.2    1833.0199    -24944.22   -960.86482    421.68788    95.077896    14.554373     27.98605 
   56000    245.81864   -492.40538    204420.41   -23155.839    1784.2187   -24940.058   -1155.7509    423.36333    95.079157    14.551449    27.985438 
   56200    241.67385   -232.49302    204420.41    -23155.17    1754.1347   -24909.305   -313.11647     423.7461    95.076627    14.549635    27.971095 
   56400    239.40456   -416.12643    204420.41   -23247.026    1737.6635   -24984.689   -966.48487    425.10237    95.074671    14.549757    27.971688 
   56600    231.70556    -125.4986    204420.41   -23334.758    1681.7821   -25016.541    122.79504    427.79004    95.075631    14.547363    27.957456 
   56800    241.95074   -499.86998    204420.41   -23203.371    1756.1444   -24959.515   -1219.7643    430.74347    95.075996    14.547746    27.957474 
   57000    237.82142   -424.91572    204420.41     -23285.1    1726.1727   -25011.273   -928.95271    432.31836    95.076908    14.548868    27.940107 
   57200    238.02304   -440.28676    204420.41   -23178.765    1727.6361   -24906.401    -1044.511    433.22263    95.079862    14.546808    27.963729 
   57400    237.19207   -241.80277    204420.41   -23219.876    1721.6047   -24941.481   -307.34898    433.88457    95.079973    14.547225    27.954922 
   57600    233.95906   -244.31156    204420.41   -23264.277    1698.1386   -24962.415    -311.2636    433.75079    95.080566    14.544031    27.944894 
   57800    237.16615   -241.66361    204420.41   -23178.416    1721.4165   -24899.832   -302.30334    435.27652    95.081568    14.541196    27.929514 
   58000    237.40218   -348.99262    204420.41   -23186.729    1723.1297   -24909.858   -656.84139    437.74226    95.080845    14.540829    27.909425 
   58200    241.42228   -172.96327    204420.41   -23146.987    1752.3087   -24899.296   -59.320279    438.82554    95.078862    14.539272    27.910902 
   58400    244.42679   -314.04027    204420.41   -23206.961    1774.1162   -24981.077   -602.06245    439.98871     95.07992     14.53918    27.899646 
   58600    232.26293   -421.37209    204420.41   -23200.803    1685.8276   -24886.631   -955.88308    442.61787    95.079801     14.53801    27.904972 
   58800    240.69556   -345.17697    204420.41   -23203.282    1747.0339   -24950.316   -681.64547    445.21953     95.08088    14.540803    27.916083 
   59000    246.47058   -190.55162    204420.41   -23164.394    1788.9506   -24953.345   -174.16419    444.54494    95.081464    14.543512    27.905668 
   59200    238.58922   -213.52231    204420.41   -23231.563    1731.7456   -24963.309   -215.11595    445.95034     95.08035    14.543502    27.908185 
   59400    238.92141   -173.38453    204420.41   -23232.723    1734.1567    -24966.88   -54.696033    448.18722    95.079557    14.544081    27.893136 
   59600    233.17919   -269.30085    204420.41    -23276.94    1692.4781   -24969.418   -384.44703    448.32237    95.079196    14.544142    27.888554 
   59800    234.67304    -381.7388    204420.41   -23241.203    1703.3209   -24944.523   -795.74545     448.3612    95.077382    14.543647    27.898183 
   60000    237.82504   -293.13092    204420.41   -23233.403     1726.199   -24959.602   -494.64674    449.36895      95.0785    14.543049    27.893744 
   60200    235.56722   -305.51106    204420.41   -23241.557    1709.8111   -24951.368   -574.29021    451.31926    95.079593     14.54078    27.903083 
   60400    242.72684   -412.77823    204420.41   -23177.204    1761.7775   -24938.982   -898.03443    451.35894    95.079286    14.539021    27.888555 
   60600    238.29074    -317.8695    204420.41   -23229.055    1729.5791   -24958.635   -580.53634    454.51413     95.07863    14.539765    27.892466 
   60800    242.41262   -464.23413    204420.41   -23144.482    1759.4968   -24903.979   -1087.5223    456.48411    95.078691     14.53916    27.887448 
   61000    242.23467   -368.04517    204420.41   -23203.008    1758.2052   -24961.213   -781.93147    457.62831    95.079532    14.538677    27.873074 
   61200    239.48944   -469.37015    204420.41    -23197.83    1738.2796    -24936.11   -1111.3304    458.39285    95.080683    14.540446    27.895232 
   61400    243.22065   -289.08937    204420.41   -23223.795    1765.3617   -24989.157   -464.74782    458.93388    95.079702    14.541181    27.898832 
   61600    239.19958   -175.76404    204420.41   -23252.334    1736.1757    -24988.51    -63.11492     458.2605    95.078616    14.538516     27.90112 
   61800    232.64006   -354.46569    204420.41   -23293.104    1688.5649   -24981.669   -726.17278    460.01453    95.077943    14.538831    27.905311 
   62000    239.39501    -404.5372    204420.41   -23196.598    1737.5942   -24934.192   -933.88122    463.17994    95.077171    14.536111    27.919622 
   62200    237.32005   -247.82797    204420.41   -23221.769    1722.5336   -24944.302   -320.15637    462.77496    95.076416    14.536345    27.945926 
   62400     245.1775   -401.93489    204420.41   -23207.483    1779.5651   -24987.048   -884.17661    466.59853    95.076504    14.536399    27.945785 
   62600    240.12775   -420.85876    204420.41   -23263.287    1742.9127     -25006.2   -938.99699    467.24924    95.077105    14.537369     27.94805 
   62800    232.00992   -175.92891    204420.41   -23312.479    1683.9912    -24996.47     -70.1573     465.8627    95.076845    14.535981    27.945907 
   63000    231.33246   -241.93037    204420.41   -23196.551     1679.074   -24875.625   -331.14389    467.60779     95.07537    14.534619    27.982868 
   63200    239.78643   -413.80557    204420.41   -23239.264    1740.4352     -24979.7    -914.2776    466.91909    95.073557    14.531442    27.977379 
   63400    238.84295   -171.90779    204420.41   -23302.192    1733.5872   -25035.779   -68.964517    469.08558    95.072063    14.530438    27.984596 
   63600    233.27809   -270.32952    204420.41   -23325.052    1693.1959   -25018.248   -443.73431    470.92213    95.071118    14.529627     27.97652 
   63800    236.84823   -593.40537    204420.41   -23293.416     1719.109   -25012.525   -1506.5081    473.78668    95.072872    14.525166    27.979497 
   64000    241.48411   -190.68973    204420.41   -23190.355    1752.7574   -24943.112   -144.33142    474.12071    95.074975    14.522639    27.985621 
   64200    238.36118   -422.28298    204420.41   -23191.613    1730.0904   -24921.703   -945.58737     475.5693    95.073828    14.518484    27.962033 
   64400    237.39777    -227.2137    204420.41   -23230.543    1723.0977    -24953.64   -234.63087     476.7046    95.073507    14.518376    27.963904 
   64600    237.64503   -503.91226    204420.41   -23248.871    1724.8924   -24973.763   -1245.2376    478.43249     95.07189    14.516685    27.988706 
   64800    237.42076   -239.23528    204420.41   -23259.303    1723.2645   -24982.567   -329.27585    479.28682    95.073201     14.51451     27.98448 
   65000    242.98001   -411.29265    204420.41   -23148.429    1763.6151   -24912.044   -903.36434    483.03039    95.073138    14.515535    28.017313 
   65200    237.64843   -229.35235    204420.41   -23192.728     1724.917   -24917.645   -257.68715    485.49214    95.074036    14.514179    28.003436 
   65400    239.19719    -240.1972    204420.41   -23254.165    1736.1584   -24990.323   -287.28418    487.05301     95.07291    14.514214    27.999984 
   65600    245.55203   -265.80768    204420.41   -23184.198    1782.2835   -24966.481   -446.17679    487.62536    95.072885    14.515522    28.002448 
   65800    237.06221   -414.77978    204420.41   -23211.701    1720.6621   -24932.363   -910.54587    489.35339    95.072444    14.516494    28.019583 
   66000     243.7122   -450.76189    204420.41   -23190.547    1768.9296   -24959.477   -1026.7891    490.11093    95.073289     14.51754    28.017498 
   66200    235.07591   -600.37456    204420.41   -23246.825     1706.245    -24953.07   -1550.6402    491.68516    95.074647    14.516355    28.013366 
   66400    239.80894   -247.57016    204420.41   -23230.293    1740.5987   -24970.891   -346.73943    492.24778    95.073495    14.516126    28.014624 
   66600    232.08985   -298.37574    204420.41   -23294.916    1684.5713   -24979.487    -521.5954    494.47972    95.072927    14.515376    27.993933 
   66800    235.33788   -396.13915    204420.41   -23286.979    1708.1465   -24995.126   -873.34749    494.38721    95.073851    14.512654    27.976221 
   67000    236.00119   -228.22117    204420.41   -23385.192     1712.961   -25098.153   -265.99128    495.61117    95.073865     14.51259    27.953695 
   67200    236.88062     -397.161    204420.41   -23303.309     1719.344   -25022.653    -838.9892    496.26689    95.074861    14.512336    27.961498 
   67400     236.3534   -285.11222    204420.41   -23262.802    1715.5174   -24978.319   -460.13931    494.88404    95.076342    14.511576    27.973387 
   67600    246.91531   -307.72808    204420.41   -23235.389    1792.1786   -25027.567   -530.44983    497.52665     95.07687    14.512568    28.001733 
   67800    240.16543   -331.05045    204420.41    -23254.43    1743.1861   -24997.616   -650.01495    498.26911    95.077576    14.514111    27.999622 
   68000    240.22367   -213.84699    204420.41   -23377.483    1743.6088   -25121.092   -222.13809    499.22805     95.07719    14.515451    28.016298 
   68200    242.46424   -256.21393    204420.41   -23319.055    1759.8715   -25078.927   -375.50193    498.94048     95.07795    14.517714    28.006632 
   68400    234.54197   -407.91041    204420.41   -23266.795    1702.3695   -24969.164   -879.68122    498.96972    95.077823    14.517225    27.990685 
   68600    235.21126   -406.08562    204420.41   -23267.674    1707.2274   -24974.901   -868.26989    499.73818    95.077499     14.51655    27.989626 
   68800    241.55605   -385.47739    204420.41   -23183.418    1753.2796   -24936.697   -815.59432    501.28526     95.07823    14.517411    27.982584 
   69000    245.17426   -322.07078    204420.41   -23165.386    1779.5416   -24944.928    -586.4202     503.3683    95.077888    14.515658    27.972269 
   69200     240.6595   -339.71151    204420.41     -23253.4    1746.7722   -25000.172    -626.5202    505.06059    95.076116    14.517434    27.976325 
   69400    235.42115   -331.58459    204420.41   -23309.275    1708.7509   -25018.026   -615.71833    507.44797    95.077129    14.515209    27.977619 
   69600    250.07656   -335.90135    204420.41   -23200.257    1815.1238   -25015.381   -621.82339    508.52146    95.077045    14.517174    27.978502 
   69800    243.67348   -286.28287    204420.41   -23258.034    1768.6485   -25026.682   -474.39618    507.64577    95.075625    14.517766    28.001073 
   70000    233.29727   -499.34401    204420.41   -23284.159    1693.3352   -24977.495   -1233.1052    509.81496    95.075553    14.514662    28.013535 
   70200    246.32333   -411.44052    204420.41   -23178.329    1787.8818    -24966.21   -911.44443    511.16313    95.077007    14.512017    28.007901 
   70400    244.22364   -286.71961    204420.41   -23212.744    1772.6417   -24985.386   -488.10262    512.29513     95.07587    14.511626    27.985838 
   70600     235.8666   -167.16314    204420.41   -23255.845    1711.9841   -24967.829   -47.396948    512.72752    95.076234    14.511668     27.97977 
   70800    236.74045    -337.8722    204420.41   -23261.462    1718.3267   -24979.788   -608.23703    512.63235    95.077125    14.510514    27.992964 
   71000    236.10043   -451.18616    204420.41   -23294.504    1713.6812   -25008.185   -1055.0454    511.35583    95.078176    14.509981    28.006456 
   71200    238.61873   -302.44533    204420.41    -23305.53    1731.9598    -25037.49   -531.10133    510.92821    95.078306    14.512575    27.995234 
   71400    240.67246   -308.64104    204420.41   -23323.468    1746.8663   -25070.334   -538.41822    510.47706     95.07947    14.513872    27.973024 
   71600    245.76379   -264.03768    204420.41   -23241.852    1783.8205   -25025.673   -386.07353    511.71513    95.076515    14.516687    27.971825 
   71800    236.86747   -512.10182    204420.41   -23309.096    1719.2487   -25028.345   -1227.6499    513.13524    95.076041    14.515612    27.961435 
   72000    238.46183   -254.76636    204420.41   -23292.984    1730.8209   -25023.805   -350.57847    514.54173    95.076082    14.514653    27.951718 
   72200    243.22758   -499.71668    204420.41    -23146.65     1765.412   -24912.062    -1174.747    516.41648    95.076198    14.516381    27.938529 
   72400    241.54229   -493.44961    204420.41    -23225.48    1753.1798    -24978.66   -1147.9413    517.54675    95.078544    14.515863    27.932514 
   72600    243.77823    -269.8155    204420.41   -23251.174    1769.4088   -25020.583   -428.24641    517.72861    95.078217    14.517543    27.939527 
   72800    237.11193    -402.9222    204420.41   -23260.337     1721.023    -24981.36   -875.59766    519.49775    95.079674    14.515815    27.928964 
   73000    230.19913   -563.80622    204420.41   -23270.315     1670.848   -24941.163    -1469.967    523.41158    95.081868    14.518056    27.942062 
   73200    237.96649   -393.87079    204420.41   -23199.736    1727.2256   -24926.961   -856.35396    523.76847    95.082787    14.515205    27.926208 
   73400    243.85039   -265.24531    204420.41   -23174.198    1769.9326    -24944.13   -394.90101    526.18779    95.083304    14.513475    27.935075 
   73600    238.42823   -353.20084    204420.41     -23231.2    1730.5771   -24961.777   -733.34634    529.82839    95.082581    14.511714    27.915168 
   73800    235.05381    -483.1623    204420.41   -23328.068    1706.0846   -25034.152   -1183.4798    530.62468    95.083625    14.512336    27.929744 
   74000     235.6558   -426.92055    204420.41   -23313.151     1710.454   -25023.605   -912.28915    530.25505    95.083059     14.50988    27.924555 
   74200    238.02515   -377.56782    204420.41   -23217.856    1727.6514   -24945.507   -753.67199    531.67606    95.084418    14.510227     27.91098 
   74400    241.56884   -372.74431    204420.41   -23224.159    1753.3725   -24977.531   -794.93216    532.47512    95.085049    14.511968    27.899449 
   74600    242.09923   -457.08141    204420.41   -23191.836    1757.2222   -24949.058   -1056.5615    532.94856    95.085707    14.513252    27.883307 
   74800    239.50099   -197.33699    204420.41   -23230.523    1738.3634   -24968.886   -185.16748    532.73293    95.087001    14.510549    27.881918 
   75000    239.62927   -358.88107    204420.41   -23241.455    1739.2945   -24980.749   -694.40961    534.16575    95.088607    14.510644    27.879376 
   75200    241.08298   -219.43997    204420.41   -23169.532    1749.8459   -24919.378   -261.92374     535.4604    95.089975     14.51091    27.869705 
   75400    235.93899   -352.98602    204420.41   -23246.929    1712.5095   -24959.439   -714.47196    536.62633    95.089357    14.509433    27.879696 
   75600    245.85837   -377.73679    204420.41   -23228.807     1784.507   -25013.314    -781.7975    537.02386    95.088261    14.510303    27.877336 
   75800    246.40435   -304.10774    204420.41   -23144.174    1788.4699   -24932.643    -506.8151    536.87197    95.087589    14.510254    27.886215 
   76000    241.01236    -318.9745    204420.41   -23138.948    1749.3334   -24888.282   -608.68257    536.14042    95.086209     14.50992    27.900906 
   76200      237.025   -323.63706    204420.41   -23285.904     1720.392   -25006.296   -586.91926    538.52032     95.08569    14.504824     27.87936 
   76400    238.34257   -439.18487    204420.41   -23241.912    1729.9553   -24971.868   -989.94459     540.5846    95.085671    14.504876    27.857664 
   76600    239.33718   -325.33084    204420.41   -23223.308    1737.1745   -24960.482   -592.39677    540.81766     95.08435    14.504618    27.851244 
   76800    236.09307   -405.59799    204420.41   -23220.123    1713.6278   -24933.751   -849.90636    541.66503    95.082412    14.507184    27.855523 
   77000    240.33173   -320.74468    204420.41   -23227.986    1744.3932    -24972.38   -595.52979    544.61355    95.082457    14.508195    27.875112 
   77200     237.8548   -343.70623    204420.41   -23186.583     1726.415   -24912.998   -634.52594    546.99689    95.082232    14.506988    27.874136 
   77400     238.6482   -358.02185    204420.41   -23223.582    1732.1736   -24955.756   -673.05172    548.22902    95.082666    14.508428    27.877855 
   77600    236.61089    -251.1379    204420.41   -23281.164    1717.3863    -24998.55   -321.12509    548.93596    95.082527    14.506955    27.867956 
   77800    243.90497   -427.19009    204420.41   -23297.991    1770.3287    -25068.32   -946.44174    552.39178    95.082455    14.505535    27.863003 
   78000    239.81785   -245.99815    204420.41    -23298.87    1740.6633   -25039.533   -345.06433    552.51495    95.081957    14.509392    27.851296 
   78200    239.40708   -261.43253    204420.41   -23291.882    1737.6818   -25029.564   -367.34703    554.64882    95.082675    14.507897    27.851581 
   78400    244.23377   -359.95519    204420.41    -23237.03    1772.7153   -25009.745   -744.28817    553.99673    95.082417    14.508657    27.820597 
   78600    236.97542   -331.47344    204420.41   -23263.429    1720.0322   -24983.461   -606.52358    554.36066    95.083821    14.511848    27.808953 
   78800    241.31956   -371.38592    204420.41   -23206.069    1751.5632   -24957.633   -726.30936    555.52203    95.083459    14.512036    27.801421 
   79000    239.92261   -419.88705    204420.41   -23235.848    1741.4237   -24977.272   -932.85156    556.15167    95.082501     14.51217    27.787061 
   79200    239.62456   -200.45398    204420.41   -23177.178    1739.2604   -24916.438   -220.28304    554.52516    95.082673     14.50923     27.78785 
   79400    245.56537    -302.9022    204420.41   -23154.419    1782.3803     -24936.8   -577.09937    556.48492    95.084207    14.510076     27.80553 
   79600     239.2672   -459.97317    204420.41   -23245.893    1736.6665    -24982.56   -1075.6923    559.48853    95.085076    14.511391    27.828161 
   79800     239.8527    -460.4972    204420.41   -23261.284    1740.9162   -25002.201   -1053.0727    559.70723    95.086308     14.50803    27.827629 
   80000    232.20987   -350.78383    204420.41   -23282.146    1685.4425   -24967.589   -706.51221    559.85692    95.085309    14.506633    27.828583 
   80200    240.41127   -409.32759    204420.41   -23284.984    1744.9705   -25029.954   -903.35496    559.92049    95.085606    14.506331     27.81665 
   80400    237.43646   -535.45075    204420.41   -23270.266    1723.3785   -24993.644   -1348.4232    560.90058    95.086852    14.504845    27.844704 
   80600    244.35802   -252.84764    204420.41   -23288.409    1773.6171   -25062.026   -365.83351     563.9534    95.087639    14.506028    27.842575 
   80800    241.37117   -236.12775    204420.41   -23270.073    1751.9377    -25022.01   -314.16142    569.57479    95.089261    14.503226    27.837946 
   81000    239.90179   -220.60482    204420.41   -23293.038    1741.2726   -25034.311   -226.07129    572.33081    95.088955    14.504109    27.826007 
   81200    239.53421   -217.26952    204420.41   -23246.768    1738.6045   -24985.373   -245.93178    574.66729    95.088538    14.502189    27.811444 
   81400    241.68504   -454.68129    204420.41   -23196.476    1754.2159   -24950.691   -1065.8491    575.74979    95.089362    14.501356     27.80223 
   81600    232.80895   -287.47438    204420.41   -23266.895    1689.7908   -24956.685   -429.03857    575.37896    95.090016    14.499225    27.795845 
   81800    241.34345   -304.49906    204420.41   -23347.545    1751.7365   -25099.281   -523.51509    577.39462    95.089217    14.500042    27.798571 
   82000    239.02351    -403.5602    204420.41   -23284.944    1734.8978   -25019.842   -843.52364    580.19355     95.09189    14.500916    27.785214 
   82200    243.10034   -352.95308    204420.41   -23211.685    1764.4885   -24976.174   -730.20786    580.87461    95.092844    14.501151    27.785633 
   82400     242.4059   -319.71023    204420.41   -23228.703    1759.4481   -24988.151   -596.82157    583.50739    95.095024    14.497618    27.798608 
   82600    241.52792    -259.9809    204420.41   -23168.532    1753.0754   -24921.607   -372.05041    586.16667    95.095503    14.497117    27.801612 
   82800    236.41654   -170.14998    204420.41   -23276.236    1715.9756   -24992.212   -99.955439    585.39151    95.095065    14.496508    27.793409 
   83000    246.66422   -442.25366    204420.41   -23166.715    1790.3562   -24957.071   -994.81212    585.43871    95.093898    14.495811    27.786983 
   83200    244.63305   -391.44019    204420.41   -23204.404    1775.6133   -24980.018   -818.59432    585.74358    95.093099    14.493764    27.802095 
   83400    241.31608   -635.67826    204420.41   -23190.329    1751.5378   -24941.867   -1691.3042    588.04178    95.093589    14.493391    27.813281 
   83600    228.35587    -304.4579    204420.41   -23259.357    1657.4691   -24916.826   -527.64109    589.43061    95.092911    14.491642    27.808613 
   83800    239.83826   -478.25386    204420.41    -23205.86    1740.8114   -24946.672   -1094.8868    592.93762    95.091351    14.489829    27.819199 
   84000     242.9666   -177.56195    204420.41   -23196.499    1763.5178   -24960.017   -62.229314    595.76685     95.08991    14.487758    27.832451 
   84200    241.80244   -418.42711    204420.41    -23154.21     1755.068   -24909.278   -961.03114    597.04773    95.090675    14.487955    27.838594 
   84400    233.77974   -384.60421    204420.41   -23215.466    1696.8371   -24912.303   -809.90294    598.32435    95.090663    14.486648    27.809069 
   84600    241.94902   -329.35906    204420.41   -23176.203    1756.1319   -24932.335   -597.42007    597.97251    95.090051    14.485553    27.807855 
   84800    238.35273   -202.92155    204420.41   -23223.416     1730.029   -24953.445   -184.31017    597.81464    95.088802    14.486386    27.800851 
   85000    242.36559   -271.40601    204420.41    -23202.24    1759.1555   -24961.395   -395.26065    597.03438    95.089529    14.482344    27.809576 
   85200    247.06568   -542.35328    204420.41    -23175.79      1793.27    -24969.06   -1331.3594    599.61888    95.090612    14.480157    27.807901 
   85400    233.74918   -424.34129    204420.41   -23300.401    1696.6152   -24997.016   -964.04551    603.29572    95.092173    14.481034    27.803242 
   85600    241.93084   -373.58221    204420.41    -23241.19    1755.9999    -24997.19   -729.94144    603.71763    95.091992    14.483583    27.777547 
   85800    234.80103   -273.58219    204420.41   -23277.652    1704.2498   -24981.902   -412.16428      604.595    95.090437    14.486014    27.780059 
   86000    237.55344   -345.44712    204420.41   -23201.439    1724.2276   -24925.667   -682.28016     603.1489    95.090909     14.48566    27.799481 
   86200    240.06125   -366.67069    204420.41   -23193.468      1742.43   -24935.898   -771.78141    604.09655    95.090138    14.482982    27.807437 
   86400    234.78359   -420.09984    204420.41   -23300.917    1704.1233    -25005.04     -1001.86    604.36865    95.089107    14.482667    27.800427 
   86600    239.09546   -484.05933    204420.41   -23233.983      1735.42   -24969.403   -1170.1714    604.12412    95.088491     14.48281    27.817454 
   86800    235.79852   -423.46002    204420.41   -23291.942    1711.4899   -25003.432   -935.96878    605.90255    95.087146    14.482881     27.80735 
   87000     236.5571   -420.08377    204420.41   -23229.871    1716.9959   -24946.867   -942.08544    609.95393    95.087945     14.48297    27.789782 
   87200    245.06425   -275.46423    204420.41   -23185.223    1778.7431   -24963.966   -412.70896    612.50676     95.08793    14.482182    27.778385 
   87400    238.53959   -428.88835    204420.41    -23260.39    1731.3854   -24991.775   -961.79648    615.40857    95.088003    14.481676    27.784568 
   87600    239.63342   -280.04457    204420.41   -23141.347    1739.3247   -24880.671   -451.90511    616.51295    95.090242    14.479481    27.793969 
   87800    240.57201   -276.24443    204420.41   -23177.427    1746.1372   -24923.564   -412.01308    616.96051    95.088544    14.478099    27.794146 
   88000    242.80341   -414.82761    204420.41    -23240.75    1762.3333   -25003.083   -917.30727    617.59323    95.085412    14.475655     27.79007 
   88200    238.09582   -289.66069    204420.41   -23270.242    1728.1643   -24998.407   -498.14334    619.10999    95.085645    14.476625    27.791029 
   88400    246.57771    -299.6646    204420.41   -23224.101    1789.7282   -25013.829   -517.87563    618.71852    95.084343    14.478271    27.799155 
   88600    237.31309    -282.0376    204420.41   -23294.767     1722.483    -25017.25   -453.90121    619.03925    95.083252    14.480261    27.776331 
   88800    236.91395   -292.79488    204420.41   -23312.092     1719.586   -25031.678   -505.81818    617.60094    95.083137    14.479704    27.761536 
   89000     238.0914   -346.26384    204420.41   -23272.417    1728.1323   -25000.549   -692.97988    615.95043    95.083587    14.476796    27.755656 
   89200    238.63804   -364.45083    204420.41   -23255.289    1732.0999   -24987.388   -793.49033    617.22034    95.083181    14.474484    27.756544 
   89400    240.94834   -361.22676    204420.41   -23186.327    1748.8687   -24935.196   -762.06789     617.4929    95.083779    14.476338     27.76974 
   89600    236.04054   -363.01102    204420.41   -23311.486    1713.2466   -25024.732   -773.68166    618.48681    95.082266    14.474428    27.770876 
   89800    240.44723   -526.58609    204420.41   -23195.184    1745.2315   -24940.416    -1352.819    618.31799    95.079298    14.472899    27.784956 
   90000    240.61145   -467.12779    204420.41   -23193.044    1746.4235   -24939.467   -1112.0479    616.83662    95.078082    14.472121    27.799322 
   90200    241.54654   -280.67472    204420.41   -23253.031    1753.2106   -25006.242   -449.04122    619.39641    95.076897    14.474895    27.792517 
   90400    242.24276   -275.67963    204420.41   -23215.697     1758.264   -24973.961   -445.21187    618.55039    95.076091    14.475892    27.776149 
   90600    235.80867   -303.87878    204420.41   -23223.632    1711.5636   -24935.196   -576.57437    617.70199     95.07532    14.475507    27.777291 
   90800     241.5487   -437.17458    204420.41   -23209.636    1753.2263   -24962.862   -1002.0934     619.4869    95.074819    14.475395    27.761242 
   91000    235.49852     -438.478    204420.41    -23275.25    1709.3124   -24984.562   -983.32294    620.99516    95.076053    14.479003    27.780493 
   91200    233.23963   -341.02345    204420.41   -23316.965    1692.9168   -25009.882   -682.45904    620.15982    95.076241    14.480822     27.77728 
   91400    243.54701   -253.23041    204420.41    -23258.81    1767.7305    -25026.54   -390.27305    621.58623    95.075424    14.487306    27.783283 
   91600    240.45131   -371.77669    204420.41   -23128.027    1745.2611   -24873.288   -779.97267      623.676    95.074916    14.489377    27.795176 
   91800    241.66611   -262.46407    204420.41   -23168.712    1754.0785   -24922.791   -398.58951    625.63471     95.07512    14.492984    27.776328 
   92000      243.891   -352.72173    204420.41   -23145.113    1770.2273    -24915.34   -708.70981    627.13026    95.075313    14.497748    27.771706 
   92200    235.96241   -216.87993    204420.41   -23160.608    1712.6795   -24873.287   -232.29891    625.82491    95.073824    14.496073     27.75311 
   92400    242.08624   -298.32324    204420.41    -23160.69    1757.1279   -24917.818   -538.86319    626.46622    95.073777     14.49575    27.747536 
   92600    246.53988   -376.79575    204420.41   -23118.894    1789.4536   -24908.347   -813.93074    628.35585    95.074095    14.497836    27.747852 
   92800    233.46244   -455.35156    204420.41   -23210.717     1694.534   -24905.251   -1114.3916    629.36727    95.073918    14.498236    27.744465 
   93000    237.25543   -260.95417    204420.41   -23225.956    1722.0646   -24948.021   -416.08132    630.51901    95.073556    14.499449    27.747704 
   93200    239.32403   -328.83122    204420.41   -23221.645     1737.079   -24958.724   -628.46075    632.56641    95.073111    14.501004    27.762313 
   93400    236.03952   -355.14105    204420.41   -23297.271    1713.2392   -25010.511   -743.97405    634.65344    95.072302    14.500945     27.75615 
   93600    236.14832   -48.014506    204420.41   -23237.168    1714.0288   -24951.197    377.05928    635.88521    95.072373    14.502239    27.750774 
   93800    234.93012   -446.45626    204420.41   -23251.705    1705.1868   -24956.892   -1031.0318    638.22636    95.072983    14.504727    27.763774 
   94000    236.59138   -292.93874    204420.41   -23262.263    1717.2447   -24979.508   -511.14434    643.69995    95.073251    14.505077    27.757767 
   94200     242.6168   -373.54684    204420.41   -23119.558    1760.9788   -24880.537    -762.4707    646.86497    95.074474     14.50684     27.76472 
   94400    241.21583   -82.165814    204420.41   -23153.308    1750.8102   -24904.118    227.75015    650.78607     95.07451    14.505484     27.76763 
   94600    230.52376   -77.935723    204420.41   -23186.714    1673.2042   -24859.918    246.83232    655.07569    95.074297    14.501436    27.787892 
   94800    245.54478   -288.96962    204420.41   -23218.342    1782.2309   -25000.573   -510.70195    658.16116    95.074141    14.503428    27.816195 
   95000    243.52169   -347.75443    204420.41   -23274.166    1767.5468   -25041.712   -682.85094    662.05113    95.075447     14.50412    27.820118 
   95200    236.94038   -174.43736    204420.41   -23282.722    1719.7779     -25002.5   -95.466271    661.34465    95.076775    14.506702    27.800848 
   95400    243.16292   -206.59819    204420.41   -23238.126    1764.9428   -25003.068   -206.74788    665.38309    95.075817    14.506092    27.804382 
   95600     242.5255   -257.92277    204420.41   -23240.095    1760.3162   -25000.411   -370.05817     667.7394    95.076557    14.507434    27.805431 
   95800    238.41955   -325.93787    204420.41   -23248.399     1730.514   -24978.913    -615.2849    665.67538    95.075099     14.50676    27.800567 
   96000    244.08526   -394.72378    204420.41   -23265.742    1771.6373    -25037.38   -847.30342    669.23207    95.072321     14.50585    27.806487 
   96200    243.63445   -425.32268    204420.41   -23194.264    1768.3653   -24962.629   -976.24495    668.67597    95.072998    14.504521    27.809329 
   96400    240.64765   -383.35265    204420.41   -23287.526    1746.6862   -25034.212   -813.61482     671.2326    95.072387    14.503228    27.823252 
   96600    235.55789   -148.04744    204420.41   -23303.338    1709.7433   -25013.081   -28.176627    672.09728    95.073117    14.502506    27.810279 
   96800     239.1092   -419.19038    204420.41   -23253.904    1735.5197   -24989.423   -946.35444    676.67481    95.073791    14.500905    27.792296 
   97000    238.46275   -407.71189    204420.41   -23278.029    1730.8276   -25008.857   -868.24257    677.24674    95.073513    14.503262    27.785321 
   97200    235.18378    -169.6053    204420.41   -23279.459     1707.028   -24986.487    -82.09611    677.68839    95.072371    14.501574    27.810493 
   97400    236.05809    -392.0007    204420.41   -23263.819    1713.3739   -24977.193   -847.74013    681.26467    95.070942    14.502223    27.805136 
   97600    241.00642   -301.97357    204420.41    -23251.87    1749.2902    -25001.16    -551.8859    683.72891    95.071644    14.501454       27.792 
   97800     238.0073   -426.14262    204420.41   -23298.871    1727.5218   -25026.393   -967.47931    690.12227    95.072439    14.499496    27.797168 
   98000    238.26954   -362.04604    204420.41     -23329.9    1729.4252   -25059.325    -739.9026    692.01766    95.074222    14.499923    27.809372 
   98200    241.78733   -254.62748    204420.41   -23357.017    1754.9583   -25111.975   -391.89938    695.57808    95.073796     14.49762    27.817696 
   98400    244.84481   -432.77187    204420.41   -23265.387    1777.1503   -25042.537   -1023.8016    700.33739    95.073449    14.496091    27.817827 
   98600    235.95806   -293.57565    204420.41   -23270.344    1712.6479   -24982.992   -496.17034    708.71815    95.072144    14.496805    27.818759 
   98800    239.67247   -451.18737    204420.41    -23213.56    1739.6081   -24953.168    -1049.193    709.51897    95.072751    14.496724    27.810728 
   99000    236.79393    -274.0654    204420.41   -23282.798    1718.7149   -25001.513   -443.86528    711.09331    95.073607    14.496317    27.800054 
   99200    240.52145   -283.52179    204420.41   -23229.625    1745.7702   -24975.395   -523.94347    711.88967    95.074289    14.497514    27.810048 
   99400    244.43976   -340.75685    204420.41   -23217.985    1774.2104   -24992.195   -656.16454    711.55971    95.074106    14.498982    27.804401 
   99600    245.30322   -420.53765    204420.41   -23202.461    1780.4776   -24982.939   -930.23096    713.55476     95.07174    14.498744    27.826896 
   99800    241.31808   -403.43926    204420.41   -23171.481    1751.5524   -24923.034   -893.27319    716.63221     95.07093    14.494427    27.838732 
  100000    241.36595   -341.53061    204420.41   -23203.722    1751.8998   -24955.622   -668.44852    719.04893    95.072636    14.493445    27.837348 
  100200    238.66246   -495.49246    204420.41   -23291.804    1732.2772   -25024.081   -1165.4269    719.50717     95.07196    14.490568    27.822731 
  100400    243.48198    -108.8009    204420.41   -23211.176    1767.2586   -24978.434    143.91268    720.76972    95.072472    14.493193    27.800859 
  100600    238.26224   -342.57078    204420.41   -23179.158    1729.3723    -24908.53   -679.81202    722.92741    95.074551    14.493408    27.775289 
  100800    238.79763   -458.35366    204420.41   -23233.636    1733.2583   -24966.895   -1088.1995     726.6912    95.073511    14.495375    27.790022 
[...]
 5175800    229.37156   -473.87868    204420.41   -25497.877    1664.8413   -27162.718   -1033.3285    8234.1009    96.311702    14.924755     26.59951 
 5176000    224.25794   -418.15228    204420.41   -25508.761    1627.7253   -27136.486   -826.37019    8233.9117    96.311983    14.924575    26.602487 
 5176200    222.95097   -387.43815    204420.41   -25531.404    1618.2389   -27149.643   -733.31893     8232.075    96.310551    14.924854    26.604621 
 5176400    222.11389   -539.31801    204420.41   -25460.637    1612.1631     -27072.8   -1267.6532    8242.2985    96.310634    14.925251    26.589951 
 5176600    234.25196   -368.35087    204420.41   -25400.613    1700.2645   -27100.878   -676.17273     8232.815    96.310327    14.925965    26.598963 
 5176800    224.63227   -391.09287    204420.41   -25453.547    1630.4422   -27083.989   -734.38432    8239.4254    96.310584    14.926567    26.597176 
 5177000      228.032   -441.02487    204420.41   -25433.932    1655.1184    -27089.05   -901.37235    8237.9711    96.310068    14.927407    26.601323 
 5177200    230.29704   -437.64822    204420.41   -25410.447    1671.5587   -27082.005   -909.19832    8236.4883    96.309192    14.927824    26.597643 
 5177400    233.13792     -335.476    204420.41   -25365.252    1692.1786   -27057.431   -579.94835    8226.6915    96.309381    14.929276    26.603974 
 5177600    224.77162   -539.26945    204420.41   -25462.835    1631.4536   -27094.288   -1249.1752    8228.8542    96.309818    14.929269    26.601942 
 5177800    226.20281   -347.48287    204420.41   -25491.416    1641.8416   -27133.257   -590.47321    8223.2369     96.30999    14.929219    26.600272 
 5178000    227.42431   -422.53625    204420.41   -25485.968    1650.7076   -27136.675   -811.97569    8230.2426    96.309617    14.930269     26.60964 
 5178200    221.54914    -379.3189    204420.41   -25481.222     1608.064   -27089.286   -687.38832     8233.833      96.3098    14.930787    26.608003 
 5178400    223.65873   -538.34625    204420.41   -25489.538     1623.376   -27112.914   -1251.8159    8248.9238    96.310149    14.931535      26.6044 
 5178600    227.32543   -307.70086    204420.41   -25455.163    1649.9899   -27105.153   -442.50939    8234.5835    96.310015    14.932111    26.615187 
 5178800    227.25936   -472.41678    204420.41   -25464.451    1649.5104   -27113.962   -1018.1822    8230.3786    96.309641    14.932582    26.613725 
 5179000    226.12605   -431.72428    204420.41   -25484.633    1641.2844   -27125.918   -862.91435    8233.4763    96.308941    14.933147    26.611624 
 5179200    228.84188   -512.44006    204420.41    -25485.66    1660.9967   -27146.657   -1153.0883      8231.33    96.308637    14.933891    26.613283 
 5179400    228.36166   -273.26451    204420.41   -25426.785    1657.5111   -27084.296   -329.10798    8225.0944    96.309053    14.934906    26.622495 
 5179600    226.57725   -522.31681    204420.41   -25484.226    1644.5594   -27128.785   -1174.7062     8233.853    96.310131    14.934978    26.624365 
 5179800    230.40378   -292.62239    204420.41   -25471.962    1672.3334   -27144.295   -410.62169    8233.3245    96.309284    14.935475    26.610694 
 5180000    221.35722   -458.37391    204420.41   -25569.721     1606.671   -27176.392   -966.11366    8242.3629    96.309028    14.936053    26.602683 
 5180200    220.43696   -294.96153    204420.41    -25545.34    1599.9915   -27145.331    -422.2483    8238.8609    96.309202     14.93532    26.600894 
 5180400    228.84304   -508.39476    204420.41   -25462.885    1661.0051    -27123.89   -1140.1781    8244.8933    96.308431    14.935923    26.597184 
 5180600    227.64158    -431.1438    204420.41   -25455.102    1652.2846   -27107.387   -873.32619     8241.126    96.308473    14.937261     26.59573 
 5180800    227.42717   -483.28985    204420.41   -25479.391    1650.7284   -27130.119    -1038.777    8245.8373     96.30832    14.937929    26.596475 
 5181000    226.30714   -326.02241    204420.41   -25520.419    1642.5989   -27163.018   -511.13385    8245.0556     96.30828    14.938534     26.59565 
 5181200    226.53363   -539.97458    204420.41   -25508.472    1644.2428   -27152.715   -1261.8199    8242.5729    96.307849    14.939927     26.61057 
 5181400    232.90169   -362.49968    204420.41   -25423.962    1690.4639   -27114.426   -633.42005     8235.963     96.30792    14.940257    26.607492 
 5181600    224.07569   -405.70875    204420.41   -25544.277    1626.4024    -27170.68   -756.07508    8233.7452    96.306755    14.939439    26.611374 
 5181800    231.89607   -317.13194    204420.41   -25433.697    1683.1649   -27116.862   -500.49048    8231.3493     96.30698    14.939812    26.603154 
 5182000     225.1928   -438.84722    204420.41   -25450.692    1634.5107   -27085.202   -915.40999    8229.0192    96.306195    14.941183    26.608885 
 5182200    225.32777   -395.25093    204420.41   -25429.729    1635.4903   -27065.219   -738.91152    8230.5187    96.307065    14.940676    26.605111 
 5182400    224.21094   -397.06397    204420.41   -25501.565    1627.3841   -27128.949   -793.66283    8234.7363    96.307281    14.941205    26.614222 
 5182600    228.54726   -370.13802    204420.41     -25460.4    1658.8583   -27119.258   -688.15121     8230.695    96.308129    14.942335    26.603369 
 5182800    228.07768   -537.96982    204420.41   -25428.362      1655.45   -27083.812    -1255.642     8239.629    96.308288    14.942053    26.614514 
 5183000    231.44264   -414.26809    204420.41   -25408.847    1679.8738   -27088.721   -792.25576    8234.2943    96.308987    14.943265    26.615226 
 5183200    232.28163   -479.58166    204420.41   -25428.091    1685.9634   -27114.054   -1050.3177    8227.2465    96.309637    14.943971    26.609552 
 5183400    222.17743   -510.13801    204420.41   -25549.881    1612.6243   -27162.505   -1159.5453    8234.4941    96.309491    14.944301    26.619367 
 5183600    221.05276    -418.8048    204420.41   -25526.522    1604.4612   -27130.983   -830.19336    8229.8134    96.309682    14.945043    26.620925 
 5183800    224.50776    -440.0474    204420.41   -25497.893    1629.5385   -27127.432   -862.06826    8226.2336    96.310206    14.946132     26.61808 
 5184000    227.99524   -471.93966    204420.41   -25425.048    1654.8515   -27079.899   -1014.5753    8232.8092     96.31129    14.946686    26.619555 
 5184200    228.78167   -347.83332    204420.41   -25448.526    1660.5597   -27109.085   -562.95152    8228.6876    96.310984    14.947467    26.616968 
 5184400    230.06517    -420.5205    204420.41    -25421.97    1669.8757   -27091.846   -850.40115    8227.8608    96.311588     14.94757    26.618068 
 5184600    227.15419   -415.73467    204420.41    -25473.73     1648.747   -27122.477   -833.93323    8232.0988    96.311483    14.946818    26.607496 
 5184800    225.16305   -504.50593    204420.41   -25448.849    1634.2948   -27083.144   -1129.8443    8237.0595    96.312297    14.947406    26.609425 
 5185000    224.42036   -361.75286    204420.41    -25458.03    1628.9041   -27086.935   -638.54527    8237.1547    96.311289     14.94825    26.608615 
 5185200    221.39078   -426.68852    204420.41   -25519.505    1606.9146   -27126.419   -905.20529    8234.6197    96.311365    14.948866    26.601849 
 5185400    229.19254   -423.54739    204420.41   -25472.013    1663.5419   -27135.555   -838.42204    8232.3812    96.311086    14.949994    26.601139 
 5185600    228.80454   -470.75586    204420.41   -25460.966    1660.7257   -27121.692   -1023.6874    8237.5844    96.311745    14.950669    26.594292 
 5185800    227.56007   -424.84488    204420.41   -25436.745     1651.693   -27088.438   -884.73292    8238.4742    96.311936    14.951626    26.597504 
 5186000    231.06513   -447.42679    204420.41   -25443.274    1677.1337   -27120.407   -939.76129    8234.1626    96.311328    14.952595     26.60172 
 5186200    234.08863   -386.78815    204420.41   -25418.357     1699.079   -27117.436   -675.90751    8238.6958    96.311411    14.953365    26.604155 
 5186400    226.24392   -494.97077    204420.41   -25452.615      1642.14   -27094.755   -1104.3125     8241.174    96.311756    14.953103    26.595362 
 5186600     229.2173    -313.5001    204420.41   -25445.294    1663.7216   -27109.015   -451.18672    8238.9954     96.31199    14.953405    26.594921 
 5186800    226.62748     -365.101    204420.41   -25451.698     1644.924   -27096.622   -649.35089    8237.6506    96.312042    14.954667    26.607985 
 5187000    226.81104   -384.31624    204420.41   -25436.561    1646.2563   -27082.818    -742.0887    8233.0416    96.312479    14.954376    26.612651 
 5187200    230.65867   -457.92948    204420.41   -25489.033    1674.1835   -27163.216   -988.55717    8234.4513    96.312684    14.955014    26.605291 
 5187400    221.34346   -437.60226    204420.41    -25521.02    1606.5712   -27127.592   -901.78297    8222.8507     96.31195    14.954577    26.612266 
 5187600    232.52589   -381.19723    204420.41   -25438.539    1687.7363   -27126.275   -708.69559    8228.0474    96.312635     14.95402    26.607396 
 5187800    225.06674   -473.97219    204420.41   -25482.522    1633.5957   -27116.117   -1038.1419     8232.568    96.312512    14.955047    26.614883 
 5188000     230.4306   -520.04026    204420.41   -25406.827    1672.5281   -27079.355   -1187.3785    8239.6367    96.312714    14.954622    26.609447 
 5188200    229.12505   -446.81169    204420.41   -25450.722     1663.052   -27113.774    -953.0984    8232.1633    96.312386    14.955716    26.605235 
 5188400    232.99107   -328.38345    204420.41   -25448.902    1691.1127   -27140.014    -554.3558    8233.4732    96.312842    14.955182    26.614784 
 5188600    228.51791   -485.08738    204420.41   -25479.807    1658.6453   -27138.453   -1088.0863      8232.17    96.312085    14.954828    26.610198 
 5188800    225.24151   -382.52374    204420.41   -25516.159    1634.8643   -27151.023   -683.51421    8230.6289    96.312517    14.954142    26.599175 
 5189000    224.80262   -451.25417    204420.41   -25469.782    1631.6787   -27101.461   -943.33361    8236.1655    96.312199    14.953005    26.599309 
 5189200    220.10416   -461.19396    204420.41   -25562.604    1597.5759    -27160.18   -1025.8392     8246.566    96.311888    14.952787    26.587716 
 5189400    218.83228   -511.79143    204420.41   -25503.623    1588.3443   -27091.968   -1136.8666    8247.4777    96.311486    14.952629    26.580915 
 5189600    225.48261   -431.06924    204420.41   -25440.984    1636.6142   -27077.598   -923.32686    8231.6047     96.31227    14.954198    26.600635 
 5189800    229.20969   -304.18684    204420.41    -25481.94    1663.6664   -27145.606    -434.5013    8231.1289    96.313056    14.955291    26.609831 
 5190000    228.20357    -525.8444    204420.41   -25479.614    1656.3637   -27135.977   -1221.0093    8238.6789    96.313068    14.954777    26.605713 
 5190200    228.71041   -405.58627    204420.41   -25487.118    1660.0425    -27147.16   -799.56224    8238.4941    96.312848    14.953958      26.5834 
 5190400    234.35832   -395.86394    204420.41   -25391.254    1701.0365    -27092.29   -703.72699    8238.7176    96.313135    14.952982     26.59037 
 5190600    224.32895    -366.0769    204420.41   -25465.693    1628.2406   -27093.934   -674.42748    8230.2044    96.312888    14.952938    26.600714 
 5190800    229.90471   -314.99438    204420.41   -25446.845     1668.711   -27115.556   -447.29734    8230.0266    96.312631     14.95238    26.613565 
 5191000    225.66523   -523.89747    204420.41   -25463.373    1637.9397   -27101.313   -1217.1731    8238.8455    96.313311    14.951475    26.617395 
 5191200    221.98021   -378.80183    204420.41   -25462.545    1611.1928   -27073.738    -665.1081    8228.2814    96.313717    14.951955    26.604873 
 5191400    222.97512   -385.11422    204420.41   -25436.591    1618.4142   -27055.005   -729.54731    8217.8952    96.313929    14.951835    26.619622 
 5191600    225.64478   -370.87909    204420.41   -25465.847    1637.7913   -27103.639   -652.63248    8231.8046    96.313934    14.952849    26.621329 
 5191800    230.15786   -495.48396    204420.41   -25411.694    1670.5485   -27082.242   -1128.6051    8246.7844    96.314281    14.952585    26.612516 
 5192000    230.81464   -376.29199    204420.41   -25405.085    1675.3155   -27080.401   -681.91425     8240.044    96.313297     14.95312    26.602458 
 5192200    227.80833   -380.23872    204420.41   -25457.342    1653.4949   -27110.837   -721.20993    8239.1128     96.31298    14.953853    26.601966 
 5192400    227.13758   -329.08717    204420.41   -25462.457    1648.6264   -27111.083   -503.35081    8234.4305    96.313121    14.953837    26.596462 
 5192600     223.9272   -326.73036    204420.41   -25489.112    1625.3247   -27114.436   -519.76083    8231.1267    96.312064    14.953195    26.592755 
 5192800    228.50843   -432.34256    204420.41   -25444.902    1658.5765   -27103.479   -889.86617    8228.0875    96.311741    14.952764    26.597991 
 5193000    222.22825   -348.94384    204420.41   -25514.559    1612.9932   -27127.552   -590.97562    8232.3767    96.311934    14.953454    26.585154 
 5193200    231.13578   -318.68684    204420.41   -25450.198    1677.6465   -27127.844   -474.49721    8241.9883     96.31253    14.952728     26.59192 
 5193400    227.52596   -400.17968    204420.41   -25445.694    1651.4454   -27097.139   -742.85673    8238.8535    96.312538    14.953322    26.598033 
 5193600    229.85737   -406.12271    204420.41   -25434.771    1668.3674   -27103.138   -808.15784    8238.1928    96.312887    14.952659    26.592207 
 5193800    229.69136   -462.24605    204420.41   -25456.195    1667.1624   -27123.358   -968.83965    8237.7219    96.312589    14.952208    26.596263 
 5194000    217.02677   -429.60025    204420.41   -25559.629    1575.2394   -27134.868   -839.26161    8237.7264     96.31323    14.951925    26.577708 
 5194200    221.11077   -493.35706    204420.41   -25500.594    1604.8822   -27105.476   -1066.6005    8243.4791     96.31365    14.953021    26.575819 
 5194400     224.2894   -275.91835    204420.41   -25448.837    1627.9536   -27076.791   -350.16664    8234.8351    96.313286    14.951887    26.588366 
 5194600    224.30625   -464.03106    204420.41   -25420.217    1628.0759   -27048.293   -1006.6092    8247.3542     96.31468    14.951442    26.582884 
 5194800    224.57251   -361.98157    204420.41   -25441.033    1630.0085   -27071.042   -642.09996    8243.3881    96.315685     14.94958    26.577136 
 5195000    224.89462   -455.44683    204420.41   -25453.107    1632.3464   -27085.454   -962.03732    8239.9414     96.31591    14.949752    26.590915 
 5195200    229.39266    -383.1901    204420.41   -25447.536    1664.9944   -27112.531   -722.59097    8237.7009    96.315733    14.948284    26.586104 
 5195400    223.31729   -397.74477    204420.41   -25452.451    1620.8977   -27073.349   -746.34621    8235.4184    96.315742    14.947406    26.590561 
 5195600    221.36783   -413.16505    204420.41   -25499.856     1606.748   -27106.604   -812.54769    8233.3056    96.315365    14.948623    26.592108 
 5195800    235.71962   -365.10156    204420.41   -25396.716    1710.9172   -27107.633   -664.41475    8240.3304    96.314688      14.9473    26.594923 
 5196000    231.83519   -545.74048    204420.41   -25457.211     1682.723   -27139.934   -1274.1182    8244.7329    96.314356    14.948467    26.599635 
 5196200    232.69767    -402.9706    204420.41   -25474.425    1688.9831   -27163.408   -766.27334    8236.1083    96.313811    14.947397    26.600402 
 5196400    223.11782    -444.7409    204420.41   -25465.877    1619.4499   -27085.327    -967.0132    8237.8234    96.314003    14.945431    26.609028 
 5196600    227.62948   -413.57297    204420.41   -25442.091    1652.1968   -27094.288   -822.15902    8239.7969     96.31418    14.944633     26.60113 
 5196800    228.01103   -460.00077    204420.41   -25439.264    1654.9662    -27094.23     -928.339    8241.3797    96.314263    14.944504    26.608158 
 5197000     232.1072   -465.48616    204420.41   -25410.573    1684.6973    -27095.27   -996.55614    8237.0332    96.315235    14.945742    26.611142 
 5197200    226.40977     -435.042    204420.41    -25476.65    1643.3438   -27119.994    -888.2124    8240.2476    96.314737    14.945445    26.609119 
 5197400    229.15157   -509.63545    204420.41   -25477.517    1663.2445   -27140.761   -1153.8292     8242.364    96.314588    14.945313    26.604209 
 5197600    225.02279   -392.43489    204420.41   -25515.103    1633.2767    -27148.38   -714.49482    8238.5641    96.314424    14.946513    26.612471 
 5197800    226.34853   -372.49019    204420.41   -25550.684    1642.8993   -27193.584    -677.4338    8234.3988    96.313902     14.94719    26.614313 
 5198000    228.00282   -510.63002    204420.41   -25417.876    1654.9066   -27072.783   -1117.2386    8237.4655     96.31378    14.948455    26.604997 
 5198200    230.81343   -389.23449    204420.41   -25438.261    1675.3068   -27113.568   -762.07455    8233.7458    96.313823    14.947191    26.598556 
 5198400    228.39155   -552.64484    204420.41   -25503.299    1657.7281   -27161.027   -1313.0979    8236.5858    96.313799    14.946195    26.604933 
 5198600    219.92045   -464.07388    204420.41   -25547.159    1596.2426   -27143.402   -995.39469    8237.2071    96.312572    14.946676     26.61614 
 5198800    229.44859   -510.12057    204420.41   -25478.064    1665.4004   -27143.464   -1186.9413    8238.1134    96.312186    14.946716    26.612363 
 5199000     229.5205    -356.2545    204420.41   -25413.955    1665.9223   -27079.878   -632.57927    8235.2687    96.313146    14.947203    26.610951 
 5199200    226.10658   -425.02102    204420.41   -25462.108    1641.1431   -27103.251   -855.57391    8248.0098    96.314174    14.946424    26.607767 
 5199400    229.64275   -417.07715    204420.41   -25451.949    1666.8097   -27118.758    -779.0482    8246.4278    96.314334    14.947352    26.597485 
 5199600    226.81484   -418.84557    204420.41   -25442.838    1646.2839   -27089.122   -834.80603    8234.9758    96.313706    14.946473    26.598878 
 5199800    225.28555   -398.35165    204420.41   -25469.785    1635.1839   -27104.969    -768.5252     8226.695    96.314198    14.945929    26.603603 
 5200000    230.57553   -468.24517    204420.41   -25420.908      1673.58   -27094.488   -1056.6701    8233.7531    96.314992     14.94538    26.619487 
Loop time of 6448.85 on 160 procs for 5200000 steps with 8482 atoms

Performance: 696.682 ns/day, 0.034 hours/ns, 806.345 timesteps/s
98.1% CPU use with 160 MPI tasks x no OpenMP threads

MPI task timing breakdown:
Section |  min time  |  avg time  |  max time  |%varavg| %total
---------------------------------------------------------------
Pair    | 0.25419    | 1714.5     | 5165.4     |4360.3 | 26.59
Neigh   | 0.34509    | 90.895     | 320.89     |1107.9 |  1.41
Comm    | 8.9677     | 1747.3     | 5177.5     |4068.2 | 27.09
Output  | 80.958     | 81.029     | 82.986     |   1.7 |  1.26
Modify  | 356.86     | 2733.3     | 6283.4     |4608.9 | 42.38
Other   |            | 81.85      |            |       |  1.27

Nlocal:    53.0125 ave 164 max 0 min
Histogram: 55 16 49 0 0 0 0 5 5 30
Nghost:    544.231 ave 879 max 0 min
Histogram: 19 3 2 2 13 31 23 14 35 18
Neighs:    0 ave 0 max 0 min
Histogram: 160 0 0 0 0 0 0 0 0 0
FullNghs:  5362.46 ave 20600 max 0 min
Histogram: 91 29 0 0 0 0 0 5 14 21

Total # of neighbors = 857994
Ave neighs/atom = 101.155
Neighbor list builds = 556059
Dangerous builds = 0
write_data 		${DIR}/data.${NAME}_run
write_data 		run_20/data.${NAME}_run
write_data 		run_20/data.ibeam_cooling_20_run
Total wall time: 1:47:42
