
### Dimensions ###
variable Z_G equal 10.062000000000001
variable Z_W equal 23.803019087

variable	XDIM string 78.752
variable 	YDIM string 80.86108639999017


### IMPORT ATOMS ###
read_data ../Box_Setup/data.Ibeam_240K
Reading data file ...
  orthogonal box = (0.0000000 0.0000000 0.0000000) to (78.752000 80.861086 33.944269)
  4 by 8 by 2 MPI processor grid
  reading atoms ...
  9422 atoms
  reading velocities ...
  9422 velocities
  read_data CPU = 0.024 seconds
group water type 2
2126 atoms in group water
group graphite type 1
7296 atoms in group graphite


# Define potential
#
pair_style          sw
pair_coeff * * MLC_e.sw C mW

# Add velocity/set timestep
#

fix		1 graphite setforce 0.0 0.0 0.0
velocity 	graphite set 0.0 0.0 0.0
velocity            water create ${START_TEMP} ${SEED} rot yes dist gaussian
velocity            water create 235 ${SEED} rot yes dist gaussian
velocity            water create 235 6292 rot yes dist gaussian
timestep            5.0

# Define output
#
compute 1 water msd
compute 2 water temp


thermo	            100
thermo_style custom step c_2 press vol etotal ke pe c_1[4] density

# Neighbor lists
#
neigh_modify        delay 0 every 1 check yes


# Set fixes
#
fix                 2 water momentum 10 linear 1 1 1 rescale
fix                 3 all nve
fix                 4 water temp/csvr ${START_TEMP} ${START_TEMP} 500.0 928347
fix                 4 water temp/csvr 235 ${START_TEMP} 500.0 928347
fix                 4 water temp/csvr 235 235 500.0 928347

# Run 0.05 ns equilibration
#
dump                1 all custom 100 ${DIR}/eq.${NAME}.dump id type x y z vx vy vz
dump                1 all custom 100 run_6/eq.${NAME}.dump id type x y z vx vy vz
dump                1 all custom 100 run_6/eq.ibeam_cooling_6.dump id type x y z vx vy vz
run                 10000
Neighbor list info ...
  update every 1 steps, delay 0 steps, check yes
  max neighbors/atom: 2000, page size: 100000
  master list distance cutoff = 6.6747184
  ghost atom cutoff = 6.6747184
  binsize = 3.3373592, bins = 24 25 11
  1 neighbor lists, perpetual/occasional/extra = 1 0 0
  (1) pair sw, perpetual
      attributes: full, newton on
      pair build: full/bin/atomonly
      stencil: full/bin/3d
      bin: standard
Per MPI rank memory allocation (min/avg/max) = 3.640 | 4.495 | 4.761 Mbytes
Step c_2 Press Volume TotEng KinEng PotEng c_1[4] Density 
       0          235   -349.74665    216156.16   -20108.674     1488.542   -21597.216            0   0.96737059 
     100    230.87117   -246.94482    216156.16   -20135.164    1462.3891   -21597.553    0.9675377   0.96737059 
     200    229.21157   -435.37676    216156.16    -20160.73    1451.8768   -21612.607    1.4402035   0.96737059 
     300    234.48376   -394.36245    216156.16   -20161.945    1485.2721   -21647.217    1.9399617   0.96737059 
     400    233.81463   -288.45625    216156.16   -20163.024    1481.0336   -21644.057    2.4765514   0.96737059 
     500    236.51194   -264.76356    216156.16   -20150.569     1498.119   -21648.688    2.9808574   0.96737059 
     600    236.53017   -632.83029    216156.16   -20105.581    1498.2344   -21603.816    3.5426078   0.96737059 
     700    230.21025   -448.47663    216156.16   -20111.803    1458.2027   -21570.006     3.994547   0.96737059 
     800    239.28801   -300.43498    216156.16   -20101.574    1515.7032   -21617.278    4.2154581   0.96737059 
     900    237.88575   -359.97569    216156.16   -20130.664     1506.821   -21637.485    4.5204927   0.96737059 
    1000    232.64452   -448.45038    216156.16   -20178.131    1473.6219   -21651.753    4.7974049   0.96737059 
    1100    238.21246   -418.16327    216156.16   -20171.304    1508.8904   -21680.194    5.0909798   0.96737059 
    1200    233.25121   -324.42758    216156.16   -20184.231    1477.4648   -21661.696    5.5885532   0.96737059 
    1300    239.56729   -415.60306    216156.16   -20133.129    1517.4723   -21650.601    6.2377409   0.96737059 
    1400    231.68973   -457.16294    216156.16   -20158.426     1467.574       -21626    6.6884665   0.96737059 
    1500    234.30113   -263.75366    216156.16     -20196.3    1484.1152   -21680.415    7.0974859   0.96737059 
    1600    237.19892   -471.51618    216156.16   -20178.555    1502.4705   -21681.025     7.471418   0.96737059 
    1700     232.6437   -463.55499    216156.16   -20192.518    1473.6167   -21666.135    7.7894166   0.96737059 
    1800    234.58246   -250.85537    216156.16   -20174.759    1485.8972   -21660.657    7.9654104   0.96737059 
    1900    238.22891    -342.9053    216156.16   -20143.142    1508.9947   -21652.137    8.6394488   0.96737059 
    2000    248.89856   -263.20238    216156.16    -20123.44    1576.5786   -21700.019    8.9589156   0.96737059 
    2100    233.77441   -355.32788    216156.16   -20218.245    1480.7789   -21699.024    9.3157823   0.96737059 
    2200    242.86588   -466.61109    216156.16    -20211.47    1538.3662   -21749.836    9.5954592   0.96737059 
    2300    236.94583   -349.16981    216156.16   -20208.043    1500.8673    -21708.91    9.9959949   0.96737059 
    2400     237.3001   -310.88454    216156.16   -20223.562    1503.1114   -21726.674    10.150855   0.96737059 
    2500    232.85152   -299.18356    216156.16   -20237.893     1474.933   -21712.826    10.297411   0.96737059 
    2600    235.01835   -556.14181    216156.16   -20245.208    1488.6582   -21733.866     10.70482   0.96737059 
    2700    233.65346   -415.67192    216156.16   -20229.693    1480.0127   -21709.706    10.964846   0.96737059 
    2800    238.53271   -427.97379    216156.16   -20183.526     1510.919   -21694.445    11.303015   0.96737059 
    2900    233.84339   -434.80698    216156.16   -20175.012    1481.2158   -21656.228     11.63786   0.96737059 
    3000    231.47634   -412.29425    216156.16   -20162.618    1466.2224    -21628.84    11.818221   0.96737059 
    3100     236.9934   -408.82062    216156.16   -20161.202    1501.1687    -21662.37    12.121289   0.96737059 
    3200    237.06221   -476.59013    216156.16   -20208.898    1501.6045   -21710.503    12.215524   0.96737059 
    3300    226.82396   -323.87812    216156.16   -20290.753    1436.7532   -21727.506    12.466988   0.96737059 
    3400    243.33439   -309.56738    216156.16    -20240.34    1541.3339   -21781.674    12.654694   0.96737059 
    3500    233.72256   -461.43675    216156.16   -20240.069    1480.4504    -21720.52    12.811127   0.96737059 
    3600    238.91834   -433.06174    216156.16   -20240.745    1513.3616   -21754.107      12.9249   0.96737059 
    3700    240.42125   -221.13816    216156.16   -20215.548    1522.8814   -21738.429     13.14645   0.96737059 
    3800    234.63612   -457.66866    216156.16   -20212.132    1486.2371   -21698.369    13.388162   0.96737059 
    3900     239.0884   -304.13441    216156.16    -20222.43    1514.4389   -21736.868    13.827232   0.96737059 
    4000     237.7703   -248.22751    216156.16   -20259.917    1506.0897   -21766.007    14.444971   0.96737059 
    4100    239.02079    -367.7856    216156.16   -20243.516    1514.0106   -21757.527    14.576613   0.96737059 
    4200    236.15755   -365.26877    216156.16   -20231.327    1495.8742   -21727.201    14.897099   0.96737059 
    4300    231.28821    -336.3218    216156.16   -20300.508    1465.0307   -21765.538    15.365201   0.96737059 
    4400    225.47753   -296.14401    216156.16   -20247.161    1428.2246   -21675.386    15.885799   0.96737059 
    4500    233.27529   -415.29429    216156.16   -20283.591    1477.6173   -21761.208    16.199499   0.96737059 
    4600    230.70744   -384.59601    216156.16   -20306.927     1461.352   -21768.279    16.463841   0.96737059 
    4700    239.77576   -442.08692    216156.16   -20243.838    1518.7927   -21762.631    16.902345   0.96737059 
    4800     243.1634   -310.17909    216156.16   -20216.436    1540.2508   -21756.686    17.345105   0.96737059 
    4900    244.04239   -362.46944    216156.16   -20182.812    1545.8185   -21728.631    17.985906   0.96737059 
    5000    237.31127   -413.59372    216156.16   -20240.852    1503.1821   -21744.034     18.32816   0.96737059 
    5100     233.7736   -396.76882    216156.16    -20215.02    1480.7737   -21695.793    18.813472   0.96737059 
    5200    234.97641   -293.66985    216156.16   -20240.301    1488.3926   -21728.693    19.273548   0.96737059 
    5300    234.11711   -440.17108    216156.16   -20293.988    1482.9496   -21776.938    19.524312   0.96737059 
    5400    232.98612   -389.61632    216156.16   -20272.279    1475.7856   -21748.065    19.891901   0.96737059 
    5500    236.03365   -300.21972    216156.16   -20275.501    1495.0894   -21770.591    20.190976   0.96737059 
    5600    234.31581   -445.57386    216156.16   -20295.076    1484.2082   -21779.284    20.289074   0.96737059 
    5700    233.40686   -311.18819    216156.16   -20266.684    1478.4507   -21745.135     20.64268   0.96737059 
    5800    228.87903   -404.91173    216156.16   -20249.016    1449.7704   -21698.786    20.731086   0.96737059 
    5900    229.15647   -393.33666    216156.16   -20281.052    1451.5278    -21732.58    21.055979   0.96737059 
    6000    235.20565   -297.34296    216156.16   -20310.992    1489.8447   -21800.837    21.196892   0.96737059 
    6100    231.20339   -470.56726    216156.16   -20338.149    1464.4934   -21802.642    21.427332   0.96737059 
    6200    233.39842   -316.56525    216156.16   -20338.475    1478.3972   -21816.873    21.513611   0.96737059 
    6300    237.76063   -419.63633    216156.16   -20283.324    1506.0285   -21789.352    21.677534   0.96737059 
    6400     229.0884   -247.68516    216156.16   -20311.033    1451.0967   -21762.129    22.150931   0.96737059 
    6500    231.08722   -291.56439    216156.16   -20300.508    1463.7576   -21764.265    22.559043   0.96737059 
    6600    232.14259   -494.68589    216156.16   -20296.021    1470.4426   -21766.463    22.821501   0.96737059 
    6700    231.24632   -254.49673    216156.16   -20304.184    1464.7654    -21768.95    22.871782   0.96737059 
    6800    235.70398   -385.62755    216156.16   -20276.275    1493.0012   -21769.276    23.225919   0.96737059 
    6900    235.10675   -247.00685    216156.16   -20241.459    1489.2182   -21730.677    23.385954   0.96737059 
    7000    236.51625   -272.35739    216156.16   -20241.515    1498.1463   -21739.662    23.558309   0.96737059 
    7100    240.02009    -353.1967    216156.16   -20247.423    1520.3404   -21767.763    23.522573   0.96737059 
    7200    234.21258   -363.97811    216156.16   -20323.595    1483.5544   -21807.149    23.719597   0.96737059 
    7300    229.63174   -387.29458    216156.16   -20356.258    1454.5383   -21810.796    23.909531   0.96737059 
    7400    236.16101    -432.1632    216156.16   -20318.468    1495.8961   -21814.365      24.0756   0.96737059 
    7500    235.49862   -482.88166    216156.16   -20278.887    1491.7004   -21770.588    24.233767   0.96737059 
    7600    240.42948   -305.15066    216156.16   -20230.915    1522.9336   -21753.849     24.61903   0.96737059 
    7700    235.04554   -251.61945    216156.16   -20257.321    1488.8305   -21746.152    24.882283   0.96737059 
    7800    230.85254   -484.52499    216156.16   -20299.797    1462.2711   -21762.068     25.39293   0.96737059 
    7900    227.66724   -317.88787    216156.16   -20247.976    1442.0947   -21690.071    25.784094   0.96737059 
    8000    232.72006   -366.91656    216156.16   -20175.694    1474.1003   -21649.794    25.996525   0.96737059 
    8100     236.2861   -456.92769    216156.16   -20137.297    1496.6884   -21633.986    26.017745   0.96737059 
    8200    229.49083   -372.80567    216156.16   -20133.162    1453.6457   -21586.807     26.33207   0.96737059 
    8300    241.12649   -358.94102    216156.16   -20102.743    1527.3485   -21630.091    26.710553   0.96737059 
    8400    236.04515   -377.85116    216156.16   -20083.719    1495.1622   -21578.881    27.357376   0.96737059 
    8500    233.46675    -545.2308    216156.16   -20135.561    1478.8301   -21614.391    27.671776   0.96737059 
    8600    235.79871   -278.72469    216156.16   -20137.044    1493.6012   -21630.645    28.061145   0.96737059 
    8700    236.09353    -548.4481    216156.16   -20162.853    1495.4687   -21658.321    28.591638   0.96737059 
    8800     233.6054   -446.95653    216156.16   -20161.635    1479.7083   -21641.344    29.024818   0.96737059 
    8900    234.90897   -379.00545    216156.16   -20175.531    1487.9654   -21663.497    29.319907   0.96737059 
    9000    224.98846   -333.73791    216156.16   -20142.651    1425.1267   -21567.778    29.808389   0.96737059 
    9100    240.16351   -396.34552    216156.16   -20155.856    1521.2488   -21677.105    30.345341   0.96737059 
    9200    239.39022   -486.17671    216156.16   -20116.174    1516.3506   -21632.524    30.770217   0.96737059 
    9300    229.90302   -330.41007    216156.16   -20181.664    1456.2566   -21637.921    31.144603   0.96737059 
    9400    229.29775   -326.98807    216156.16   -20162.384    1452.4227   -21614.807    31.741983   0.96737059 
    9500     229.9914   -430.63077    216156.16   -20194.383    1456.8164   -21651.199    32.002325   0.96737059 
    9600    232.34313   -354.81039    216156.16   -20188.608    1471.7128    -21660.32    32.346566   0.96737059 
    9700    231.85877   -308.82405    216156.16   -20162.387    1468.6448   -21631.032    32.409009   0.96737059 
    9800    239.59902   -438.04201    216156.16   -20137.145    1517.6732   -21654.818    32.636532   0.96737059 
    9900     238.2966   -278.45805    216156.16   -20155.178    1509.4234   -21664.601    32.712284   0.96737059 
   10000     238.9164   -297.62133    216156.16   -20166.187    1513.3494   -21679.537    32.906131   0.96737059 
Loop time of 14.1972 on 64 procs for 10000 steps with 9422 atoms

Performance: 304.286 ns/day, 0.079 hours/ns, 704.365 timesteps/s
98.9% CPU use with 64 MPI tasks x no OpenMP threads

MPI task timing breakdown:
Section |  min time  |  avg time  |  max time  |%varavg| %total
---------------------------------------------------------------
Pair    | 0.0017192  | 4.8552     | 10.876     | 190.8 | 34.20
Neigh   | 0.0057316  | 0.2849     | 0.62568    |  41.2 |  2.01
Comm    | 1.3207     | 5.2466     | 10.91      | 145.6 | 36.96
Output  | 0.17727    | 0.17848    | 0.18054    |   0.2 |  1.26
Modify  | 0.83199    | 3.3567     | 11.314     | 214.9 | 23.64
Other   |            | 0.2753     |            |       |  1.94

Nlocal:        147.219 ave         284 max           0 min
Histogram: 16 0 5 11 0 0 0 7 10 15
Nghost:        824.984 ave        1034 max         619 min
Histogram: 12 12 6 2 0 0 0 11 12 9
Neighs:         0.00000 ave           0 max           0 min
Histogram: 64 0 0 0 0 0 0 0 0 0
FullNghs:      15001.3 ave       31952 max           0 min
Histogram: 16 16 0 0 0 0 0 7 11 14

Total # of neighbors = 960086
Ave neighs/atom = 101.89832
Neighbor list builds = 568
Dangerous builds = 0
write_data 	    ${DIR}/data.${NAME}_eq
write_data 	    run_6/data.${NAME}_eq
write_data 	    run_6/data.ibeam_cooling_6_eq
System init for write_data ...

undump              1
unfix               4



################################################
#######         Run Simulation         #########
################################################

reset_timestep      0
timestep	    10.0
log                 ${DIR}/log.run_${NAME}
log                 run_6/log.run_${NAME}
log                 run_6/log.run_ibeam_cooling_6
