
# Set production fixes - Nose/Hoover
#
fix                 4 water temp/csvr ${START_TEMP} ${END_TEMP} 500.0 928347
fix                 4 water temp/csvr 235 ${END_TEMP} 500.0 928347
fix                 4 water temp/csvr 235 225 500.0 928347


## divide "droplet" into core and surface
#region		core_reg cylinder z 135 135 44.6 20 INF units box
#region		surface_reg cylinder z 135 135 44.6 20 INF units box side out
#group		core dynamic all region core_reg
#group		surface dynamic all region surface_reg

## compute pressure core
#compute        peratom_core core stress/atom NULL
#compute        p_core core reduce sum c_peratom_core[1] c_peratom_core[2] c_peratom_core[3]
#variable       press_core equal -(c_p_core[1]+c_p_core[2]+c_p_core[3])/(3*1249982.5)


## compute pressure surface
#compute        peratom_surf surface stress/atom NULL
#compute        p_surf surface reduce sum c_peratom_surf[1] c_peratom_surf[2] #c_peratom_surf[3]
#variable       press_surf equal -(c_p_surf[1]+c_p_surf[2]+c_p_surf[3])/(3*42395)

## compute total pressure of drop
compute        peratom water stress/atom NULL
compute        p water reduce sum c_peratom[1] c_peratom[2] c_peratom[3]
variable       press equal -(c_p[1]+c_p[2]+c_p[3])/(3*50402)


# compute order parameter
compute        3 all orientorder/atom nnn NULL cutoff 3.5

# compute center of mass of bridge
compute 	4 water com

# Run simulation
thermo_style        custom step c_2 press vol etotal ke pe v_press c_1[4] c_4[*]
thermo              200
dump		     1 water custom 400 ${DIR}/prod.${NAME}.dump id type x y z vx vy vz c_3[*] c_peratom[*]
dump		     1 water custom 400 run_6/prod.${NAME}.dump id type x y z vx vy vz c_3[*] c_peratom[*]
dump		     1 water custom 400 run_6/prod.ibeam_cooling_6.dump id type x y z vx vy vz c_3[*] c_peratom[*]
run                 ${STEPS}
run                 4000000
Neighbor list info ...
  update every 1 steps, delay 0 steps, check yes
  max neighbors/atom: 2000, page size: 100000
  master list distance cutoff = 6.6747184
  ghost atom cutoff = 6.6747184
  binsize = 3.3373592, bins = 24 25 11
  2 neighbor lists, perpetual/occasional/extra = 1 1 0
  (1) pair sw, perpetual
      attributes: full, newton on
      pair build: full/bin/atomonly
      stencil: full/bin/3d
      bin: standard
  (2) compute orientorder/atom, occasional, copy from (1)
      attributes: full, newton on
      pair build: copy
      stencil: none
      bin: none
Per MPI rank memory allocation (min/avg/max) = 6.172 | 6.820 | 7.292 Mbytes
Step c_2 Press Volume TotEng KinEng PotEng v_press c_1[4] c_4[1] c_4[2] c_4[3] 
       0     238.9164   -297.62133    216156.16   -20166.187    1513.3494   -21679.537   -605.41022    32.906131    39.419188    39.236934    23.704082 
     200    234.48053   -455.60289    216156.16    -20191.15    1485.2516   -21676.402   -1282.8369    33.630798    39.417572     39.23963    23.709477 
     400     235.9833   -350.91378    216156.16   -20205.241    1494.7704   -21700.012   -867.89693    34.940049    39.421188    39.237655    23.692077 
     600    242.82894   -291.07236    216156.16   -20117.041    1538.1322   -21655.173   -595.79957    35.697789    39.423824    39.237307    23.684109 
     800    234.25228   -509.49761    216156.16   -20111.026    1483.8058   -21594.832   -1550.0494    37.630098    39.423781    39.235983    23.667789 
    1000    232.66319    -646.1615    216156.16   -20188.122    1473.7401   -21661.863   -2130.0055    39.559404    39.422719    39.238387    23.657838 
    1200    234.52928   -404.23929    216156.16   -20154.239    1485.5604     -21639.8   -1075.8133    40.510367     39.42117    39.239345    23.668841 
    1400    242.46381   -381.91532    216156.16   -20133.618    1535.8194   -21669.437   -970.35623    41.522113    39.422873    39.239616    23.651381 
    1600    236.41423    -440.8611    216156.16   -20137.613       1497.5   -21635.113    -1279.555    43.260812    39.423878    39.238474    23.664059 
    1800    238.36611   -352.99308    216156.16    -20104.19    1509.8637   -21614.054   -881.55879    44.269758    39.422913    39.236285    23.686028 
    2000    240.98501   -498.12146    216156.16   -20046.105    1526.4524   -21572.557   -1461.9354    45.118222    39.423258    39.235841    23.688534 
    2200    237.16483   -361.76701    216156.16   -20119.666    1502.2546    -21621.92   -876.42066    46.398151     39.42159    39.234285    23.677201 
    2400    233.32152   -343.76198    216156.16   -20121.543    1477.9101   -21599.453   -844.36294    47.724918    39.420101      39.2325    23.664078 
    2600    231.10153   -334.71452    216156.16   -20164.296    1463.8482   -21628.144   -814.61131     48.86882    39.417381    39.233953    23.643659 
    2800    239.34904   -307.10301    216156.16   -20065.346    1516.0898   -21581.436   -658.74507    48.719952    39.415988    39.235317    23.636496 
    3000    241.69008   -361.37243    216156.16   -20088.755    1530.9185   -21619.673   -893.41903    49.580581    39.419066    39.238835    23.634966 
    3200    231.72092   -326.40652    216156.16   -20183.051    1467.7716   -21650.823   -786.47143    50.510088    39.422482    39.237268    23.637754 
    3400     235.8185   -235.44982    216156.16    -20162.17    1493.7266   -21655.896   -375.84688    52.353555    39.424683    39.238523    23.656481 
    3600    235.10483   -446.08788    216156.16   -20161.614     1489.206    -21650.82   -1231.6144    53.995967    39.424731    39.240661    23.662341 
    3800    237.61367   -354.11114    216156.16   -20144.072    1505.0976    -21649.17   -885.04147    55.310651    39.421508    39.239166      23.6634 
    4000    231.99172   -411.10823    216156.16   -20149.827    1469.4869   -21619.314   -1160.0036    56.387101    39.422349    39.238602    23.679891 
    4200    234.95751   -287.74839    216156.16   -20158.754    1488.2729   -21647.027   -600.70621    57.004661    39.421844    39.241605    23.711901 
    4400    234.78042   -350.16216    216156.16   -20180.611    1487.1511   -21667.762   -872.06144     58.06599    39.422117    39.243046    23.710479 
    4600    235.63428   -357.88761    216156.16   -20233.418    1492.5597   -21725.978   -915.19661    59.805191    39.420271    39.241991    23.723113 
    4800    239.14295   -334.99457    216156.16   -20151.421    1514.7844   -21666.205   -822.91099    60.444103    39.421823    39.240969    23.712035 
    5000    231.27895   -527.37422    216156.16   -20204.333    1464.9721   -21669.306   -1591.1841    61.112877    39.422164    39.239762    23.689942 
    5200    233.16788   -542.01738    216156.16   -20212.716     1476.937   -21689.653   -1618.9505    62.697927    39.421317    39.237402    23.696133 
    5400     235.2238   -318.98181    216156.16   -20242.586    1489.9596   -21732.545   -708.32319    62.729478     39.42202    39.237584    23.702962 
    5600    230.48488   -415.13765    216156.16   -20250.996    1459.9422   -21710.938   -1140.9981    63.886793    39.419806    39.232962    23.728488 
    5800    236.60743   -387.66228    216156.16   -20206.492    1498.7239   -21705.216   -998.05132    65.054668    39.418731    39.231914    23.721929 
    6000    234.10849   -351.64126    216156.16   -20262.497     1482.895   -21745.392   -818.04202    66.457626     39.41922    39.232427    23.705913 
    6200    232.92623   -195.27357    216156.16   -20260.937    1475.4063   -21736.344   -158.54331    67.577401    39.420673    39.233203    23.705975 
    6400    233.59227   -272.58008    216156.16   -20256.717    1479.6252   -21736.342   -532.09533    69.444382    39.419912    39.234275    23.697526 
    6600    231.14671   -398.60547    216156.16   -20224.461    1464.1344   -21688.596   -1062.3695    69.898243    39.419893    39.235615    23.688776 
    6800    234.42068   -377.97236    216156.16   -20228.066    1484.8725   -21712.938   -951.34369    71.006747     39.41894    39.237512    23.676461 
    7000    240.11311   -391.43263    216156.16   -20173.982    1520.9296   -21694.912   -1018.2724    72.563084     39.41772    39.236716    23.686004 
    7200    231.55481   -140.75905    216156.16   -20282.536    1466.7194   -21749.256    66.770747    73.709634    39.417074    39.235305    23.696816 
    7400    227.35126   -204.34434    216156.16   -20267.069    1440.0932   -21707.162   -184.15795    75.253442    39.416627    39.235275    23.710559 
    7600    240.29216   -530.18177    216156.16   -20183.881    1522.0637   -21705.944   -1574.9046    76.445394    39.414356    39.230722    23.737753 
    7800    231.90794    -590.0695    216156.16   -20331.946    1468.9562   -21800.902   -1839.4598    76.720761    39.416544    39.228976    23.735572 
    8000    235.47669   -337.59137    216156.16   -20236.921    1491.5615   -21728.483   -794.96116    78.150442    39.416893    39.226112    23.747196 
    8200    240.15823   -414.61238    216156.16   -20231.188    1521.2154   -21752.403   -1100.0401     79.01083     39.41502     39.22483    23.730068 
    8400    240.50032    -465.6818    216156.16   -20174.717    1523.3823     -21698.1   -1317.7278    79.808743    39.417121    39.225292    23.719853 
    8600    231.44611   -260.56117    216156.16   -20236.796    1466.0309   -21702.827   -435.21981    80.575007    39.416742    39.224702    23.722714 
    8800    231.30388   -371.52897    216156.16   -20222.773      1465.13   -21687.903   -898.08285    81.527818    39.416765    39.221936    23.706961 
    9000    236.32089   -377.25254    216156.16   -20191.467    1496.9089   -21688.376   -911.69866    83.125855    39.415675    39.222361    23.729245 
    9200    238.01087   -392.66197    216156.16   -20114.291    1507.6136   -21621.905    -1011.392    83.840615    39.416732    39.220663    23.724786 
    9400     233.8885   -464.95697    216156.16   -20168.415    1481.5015   -21649.916   -1322.0326    83.366308    39.418507    39.221517    23.737175 
    9600    240.32606   -272.28255    216156.16   -20225.143    1522.2785   -21747.421   -441.40719    85.156266    39.418186    39.219874     23.73237 
    9800    237.30145   -423.13254    216156.16   -20122.307    1503.1199   -21625.427   -1119.0991    87.148841    39.417137    39.220586    23.754284 
   10000    235.25772   -289.53536    216156.16   -20186.354    1490.1745   -21676.528   -579.73671    88.098184    39.416796    39.219384    23.737692 
   10200    241.02343    -425.9531    216156.16   -20088.213    1526.6958   -21614.909   -1063.6399    90.576368    39.416336    39.218236    23.752155 
   10400    237.87422   -191.52523    216156.16   -20085.057     1506.748   -21591.805   -165.01751    91.841223     39.41397    39.217022    23.764133 
   10600    230.99499   -374.31592    216156.16   -20180.729    1463.1734   -21643.902   -951.75105     93.75246    39.414133    39.219512    23.768229 
   10800     223.8216   -313.93674    216156.16     -20256.7    1417.7356   -21674.436   -745.90057    95.775076    39.414322    39.220971     23.78572 
   11000     234.5153   -265.22562    216156.16   -20212.005    1485.4718   -21697.477   -461.00374    96.098388    39.416355    39.222093    23.804454 
   11200    234.13935   -471.44536    216156.16   -20205.028    1483.0905   -21688.118   -1370.0434    98.028976    39.420208    39.222316    23.805748 
   11400    232.85272   -392.40121    216156.16   -20170.271    1474.9407   -21645.211   -1001.8551    98.708249    39.422917    39.224449    23.800374 
   11600    242.31139   -431.49213    216156.16   -20123.512     1534.854   -21658.366   -1186.7746    100.06669    39.424982    39.225729     23.79655 
   11800    233.04056   -337.73699    216156.16   -20134.665    1476.1305   -21610.795   -771.56078    101.41883    39.424663    39.224487    23.798652 
   12000    240.90263   -419.09929    216156.16   -20120.626    1525.9306   -21646.557   -1144.1794    101.66859    39.424456     39.22701    23.814318 
   12200    239.11906    -345.6208    216156.16   -20111.586     1514.633   -21626.219   -786.46362    103.54466    39.425639    39.228403     23.81554 
   12400    232.18942   -228.60146    216156.16    -20153.81    1470.7392    -21624.55   -321.22621    102.88107    39.427729    39.229377    23.822641 
   12600    238.71521   -408.86614    216156.16   -20098.916     1512.075   -21610.991   -1108.6806    104.75159    39.429758    39.232029    23.822376 
   12800    229.42428   -413.86735    216156.16   -20150.512    1453.2242   -21603.736   -1110.9557    107.48826    39.430402    39.232199    23.834788 
   13000    233.99848   -459.86741    216156.16   -20179.579    1482.1982   -21661.777   -1336.8228    108.72494    39.432809     39.23395    23.842215 
   13200    240.76481   -277.99622    216156.16   -20209.688    1525.0576   -21734.746   -525.25813    110.11946    39.434132    39.237671    23.846992 
   13400    228.95464   -196.15412    216156.16   -20289.242    1450.2494   -21739.491   -167.83811    111.10328    39.436535     39.24168    23.865148 
   13600     233.6984   -405.05415    216156.16   -20238.935    1480.2974   -21719.232   -1037.8476    110.13374     39.43488    39.244589    23.871593 
   13800    241.49059   -288.61596    216156.16    -20183.08    1529.6548   -21712.735   -583.27613    111.48527    39.434893    39.246174    23.895236 
   14000    231.64621   -430.99069    216156.16   -20103.956    1467.2984   -21571.254   -1205.3083    112.53918    39.433622      39.2485     23.91258 
   14200    237.01466    -377.7011    216156.16    -20136.43    1501.3033   -21637.733   -952.33775    113.62706    39.433019    39.248552    23.928743 
   14400    233.36574   -439.64489    216156.16   -20182.819    1478.1903    -21661.01    -1191.973    114.68456    39.432936    39.246962    23.933862 
   14600     237.3987   -356.32848    216156.16   -20197.884    1503.7359    -21701.62   -824.64685    116.62026    39.434164     39.24663    23.922193 
   14800     235.3066   -339.64737    216156.16   -20154.716    1490.4841     -21645.2   -779.56169    116.44203    39.437411    39.247352    23.926448 
   15000    231.42081   -465.47997    216156.16   -20193.321    1465.8706   -21659.192   -1315.2042     117.8218    39.437929    39.248005    23.935599 
   15200    237.01805   -450.91363    216156.16   -20163.449    1501.3248   -21664.774   -1267.4624    118.40844    39.437663    39.248316    23.924253 
   15400    231.97728   -313.96095    216156.16   -20237.385    1469.3954   -21706.781      -632.23    117.99689    39.439082    39.248346    23.904772 
   15600    242.11996   -369.88262    216156.16   -20077.318    1533.6414    -21610.96   -907.88233     119.6054    39.437529    39.249282     23.88562 
   15800    233.77088   -512.95805    216156.16   -20124.571    1480.7565   -21605.328   -1564.3239    120.18018    39.438835    39.249144    23.879132 
   16000    233.82345   -493.29851    216156.16   -20178.562    1481.0895   -21659.652   -1436.9505    122.12095    39.441895     39.24907    23.877568 
   16200    243.36297   -367.92663    216156.16   -20136.009    1541.5149   -21677.524     -897.298    123.26235    39.442713    39.249386    23.881582 
   16400    239.80234   -331.14969    216156.16   -20186.874    1518.9611   -21705.835   -739.83888    122.49724    39.444462    39.250387    23.849453 
   16600    242.49218   -435.24819    216156.16   -20091.371    1535.9991    -21627.37   -1199.1134     122.5143    39.446615    39.250352    23.867194 
   16800    234.23864   -422.19914    216156.16   -20162.869    1483.7194   -21646.589   -1126.7347    124.07935    39.447424    39.246911    23.859741 
   17000    232.40153   -337.47605    216156.16   -20228.391    1472.0827   -21700.473    -800.1734    124.65448    39.447337    39.245036    23.855463 
   17200    225.49222   -501.62776    216156.16   -20212.677    1428.3177   -21640.995   -1457.2779    125.49137    39.447579    39.243393    23.861803 
   17400    232.17548   -304.20277    216156.16   -20253.929    1470.6509    -21724.58    -623.4824    126.40483    39.447542    39.240823    23.863202 
   17600    235.49755    -182.7036    216156.16   -20176.251    1491.6936   -21667.945   -102.98161    127.29216    39.446425    39.238703    23.856403 
   17800    226.06141    -516.0893    216156.16   -20184.452     1431.923   -21616.375   -1543.1839    128.56927    39.445595    39.238433    23.849819 
   18000    236.51173   -506.92764    216156.16   -20181.614    1498.1177   -21679.731   -1457.4871    130.15843      39.4446    39.239442    23.839943 
   18200     235.0023   -394.88336    216156.16   -20223.255    1488.5566   -21711.812   -1088.5814    130.59942    39.443045    39.240991    23.816664 
   18400    235.91337   -513.07102    216156.16   -20214.066    1494.3275   -21708.394   -1511.3174    132.12435    39.443176    39.241447    23.827906 
   18600    240.04799   -429.50926    216156.16   -20204.398    1520.5171   -21724.915   -1177.8879     133.5623    39.444207    39.239896    23.835179 
   18800    232.15506   -430.55604    216156.16    -20261.96    1470.5216   -21732.482   -1145.9546    134.40292    39.445939    39.242958    23.822556 
   19000    240.53885   -454.85302    216156.16   -20201.564    1523.6263    -21725.19   -1259.5045    134.70552    39.448771    39.246108    23.806468 
   19200    232.89659   -479.91257    216156.16    -20254.77    1475.2185   -21729.989   -1367.8128    134.97452    39.450698    39.245749    23.807896 
   19400    232.43322   -413.33652    216156.16   -20150.047    1472.2835   -21622.331   -1097.3432    135.36402    39.451845    39.246141    23.811045 
   19600    238.94419   -550.63643    216156.16   -20161.559    1513.5254   -21675.085   -1691.9815    136.60712    39.451535     39.24763    23.819047 
   19800    238.80397    -311.7302    216156.16   -20166.426    1512.6372   -21679.063    -683.3053    137.86187    39.450512    39.247001    23.820996 
   20000    231.33439   -200.35345    216156.16   -20193.399    1465.3233   -21658.722   -166.47393    139.31333     39.44966    39.244794    23.824242 
   20200    237.85906   -437.69537    216156.16   -20239.651    1506.6519   -21746.303   -1185.3606    139.45098    39.448517    39.244304    23.819789 
   20400    238.88423    -266.0076    216156.16   -20150.634    1513.1456    -21663.78   -451.16396    139.59716    39.447784    39.245289    23.814582 
   20600    234.08863   -300.98422    216156.16   -20217.748    1482.7692   -21700.517    -679.4979    140.77629    39.449397    39.241665    23.837909 
   20800    241.11395   -508.35909    216156.16   -20163.734    1527.2691   -21691.003   -1476.7607    142.26459    39.450421    39.238034    23.829748 
   21000    231.65792   -194.59434    216156.16   -20155.411    1467.3726   -21622.783   -136.58391    143.22451    39.452179     39.23706    23.832217 
   21200    236.02675   -253.10695    216156.16   -20139.293    1495.0457   -21634.339   -396.77665    144.00672    39.448513    39.237427    23.843373 
   21400    233.63798   -454.32408    216156.16   -20177.539    1479.9147   -21657.454   -1305.5216    146.13765    39.448757    39.234756    23.826719 
   21600    235.16285   -494.87057    216156.16   -20080.519    1489.5735   -21570.092    -1435.896    147.57605    39.445434    39.235595    23.822698 
   21800     239.1441   -440.83141    216156.16    -20181.13    1514.7916   -21695.922   -1186.2863    147.93428    39.444963    39.238649    23.830548 
   22000    230.06759   -385.77551    216156.16   -20230.125     1457.299   -21687.424   -993.62634    148.51023    39.445847    39.238799    23.828476 
   22200    230.81639   -485.39212    216156.16    -20278.74    1462.0421   -21740.782   -1379.8917    148.72971     39.44769    39.238069    23.846648 
   22400    234.00696   -413.95605    216156.16   -20151.023    1482.2519   -21633.275   -1098.3824    149.72656    39.448471    39.238384    23.828619 
   22600    228.36049   -347.76144    216156.16   -20172.505    1446.4859   -21618.991   -815.12023    150.17018     39.44869    39.239327    23.815034 
   22800    241.52373   -298.43768    216156.16   -20141.976    1529.8648    -21671.84   -591.76911    150.36818    39.447347    39.239939    23.817402 
   23000    229.23267   -391.26509    216156.16   -20243.141    1452.0105   -21695.151   -1026.2747    150.89194    39.448677    39.238433    23.826092 
   23200    237.17591   -495.88539    216156.16   -20190.875    1502.3247     -21693.2   -1418.0072    152.21295    39.450478    39.237586    23.826291 
   23400    233.24803   -563.40576    216156.16   -20197.009    1477.4446   -21674.454   -1737.4118    152.79718      39.4521    39.235591    23.858745 
   23600    242.76892   -409.59095    216156.16   -20150.202    1537.7521   -21687.955   -1059.9517    153.12293    39.453342    39.235353    23.838531 
   23800    243.15009   -209.09712    216156.16   -20208.235    1540.1665   -21748.402   -221.59415    154.48633    39.455703    39.232764    23.848037 
   24000    236.15761   -268.51212    216156.16   -20234.579    1495.8746   -21730.454   -474.62367    154.89934    39.456158     39.23046    23.840142 
   24200    239.26317   -553.79112    216156.16   -20235.496    1515.5459   -21751.042   -1718.9865     155.1354    39.458448    39.228426    23.856598 
   24400    232.39747   -493.81778    216156.16   -20262.049     1472.057   -21734.106   -1451.3978     156.1228    39.459629    39.225996    23.856702 
   24600    233.28411   -382.53028    216156.16   -20284.579    1477.6732   -21762.252    -953.2476    156.74764    39.463126     39.22334    23.846018 
   24800    236.15685   -504.70618    216156.16    -20282.16    1495.8698    -21778.03   -1467.3679    157.82523    39.467027    39.222181     23.86107 
   25000    227.86604   -448.79329    216156.16   -20262.316    1443.3539    -21705.67    -1287.264    160.21405    39.468693    39.219277    23.889838 
   25200    227.76931   -493.66462    216156.16   -20346.384    1442.7413   -21789.126   -1443.8108     160.9453    39.471524    39.215546    23.876117 
   25400    232.71244   -392.33427    216156.16   -20193.844    1474.0521   -21667.896   -997.08652    160.66584    39.471663    39.214309    23.871042 
   25600    243.38687   -447.66432    216156.16   -20085.635    1541.6663   -21627.302   -1231.4685    160.63759    39.474819    39.215509    23.890773 
   25800    241.32945   -201.34095    216156.16   -20147.519    1528.6342   -21676.153    -176.1345    161.95743    39.479182    39.215741    23.904477 
   26000    231.33729   -298.45206    216156.16   -20194.338    1465.3416   -21659.679   -650.21787    161.15896    39.481724    39.216699     23.88328 
   26200    239.20911   -407.70402    216156.16   -20191.866    1515.2035    -21707.07   -1101.8222    162.13181    39.482278    39.219162    23.879914 
   26400    232.13478   -253.65821    216156.16   -20218.853    1470.3931   -21689.246   -424.08636    162.27068    39.481524      39.2212    23.883404 
   26600    234.42763   -343.95611    216156.16   -20128.237    1484.9165   -21613.154   -807.05332    163.43299    39.480757    39.222808    23.899267 
   26800    234.47803   -365.54075    216156.16   -20170.438    1485.2358   -21655.674    -892.1448    165.65329    39.482142    39.222542      23.9081 
   27000    234.96368   -541.60987    216156.16   -20095.282     1488.312   -21583.594   -1625.6384    166.22782    39.483705    39.220894    23.913709 
   27200    239.51484   -368.51394    216156.16   -20144.488      1517.14   -21661.628   -927.01431    167.59677    39.482421    39.220377    23.889748 
   27400    240.88072   -176.48328    216156.16   -20108.076    1525.7918   -21633.868   -108.72917     169.7468    39.483756    39.220643    23.900921 
   27600    234.01953   -298.43218    216156.16    -20285.17    1482.3315   -21767.502   -657.72218    170.38338    39.482739    39.220667    23.887449 
   27800    228.90457   -316.03392    216156.16   -20169.542    1449.9322   -21619.475   -682.72207    172.09047    39.483162    39.221737    23.905029 
   28000    230.94522   -329.80425    216156.16   -20252.785    1462.8581   -21715.643   -759.55023     172.6567     39.48254    39.224393    23.921517 
   28200    231.71342   -310.40683    216156.16   -20200.516    1467.7241   -21668.241    -649.3847    174.59627    39.480737    39.226803    23.929974 
   28400    227.94771   -532.26233    216156.16   -20202.027    1443.8713   -21645.898   -1567.8165     175.4874    39.481914    39.227965    23.926212 
   28600    233.55125    -402.3063    216156.16   -20200.183    1479.3653   -21679.548   -1015.6777    176.85319    39.480974    39.230167    23.923022 
   28800    233.20886   -605.00962    216156.16   -20225.874    1477.1966   -21703.071   -1945.9991    178.93424    39.480157    39.231593    23.934496 
   29000    236.83489   -379.81879    216156.16   -20178.571    1500.1646   -21678.736    -955.0532    179.22879    39.478825     39.23103    23.931602 
   29200    240.20459   -206.82547    216156.16   -20106.629     1521.509   -21628.138   -213.58926    180.43727     39.47634     39.22885    23.923139 
   29400    232.25534   -403.17739    216156.16   -20145.921    1471.1568   -21617.078   -1061.2574    181.56078    39.474423    39.227604    23.922089 
   29600    237.17466   -419.69083    216156.16   -20117.165    1502.3168   -21619.482   -1079.2309    181.94379     39.47274     39.22639    23.917879 
   29800    236.84662   -274.97255    216156.16   -20204.795    1500.2389   -21705.034    -540.0284    182.79279    39.473499     39.22543     23.92134 
   30000    227.58695   -460.33513    216156.16   -20259.257    1441.5861   -21700.843    -1238.314    183.96867    39.472753    39.224376    23.896179 
   30200    233.79421   -403.30242    216156.16   -20231.198    1480.9043   -21712.102   -1072.6219    184.59887    39.472941    39.223958    23.913411 
   30400    233.36602   -439.84445    216156.16   -20189.235     1478.192   -21667.427   -1256.2077    184.38595     39.47115     39.22559    23.912478 
   30600    237.39164   -305.18582    216156.16   -20243.986    1503.6912   -21747.677   -628.94439    184.67333    39.472376     39.22738     23.91087 
   30800    235.23898   -395.47797    216156.16   -20184.462    1490.0558   -21674.518   -1011.9881    186.28825    39.473995     39.22677    23.899334 
   31000     238.4659    -321.0669    216156.16   -20201.301    1510.4958   -21711.796   -704.56937    186.57544    39.473139    39.226691    23.898845 
   31200    236.91064   -418.55909    216156.16   -20164.393    1500.6444   -21665.038   -1095.8568    187.67683    39.473344    39.224755    23.904478 
   31400    238.32134   -252.59928    216156.16    -20174.56    1509.5801    -21684.14   -398.95271    188.38196    39.473348    39.225093    23.913602 
   31600     227.6102   -354.89496    216156.16   -20214.804    1441.7334   -21656.538   -848.20024    189.03777    39.471397    39.222547    23.924893 
   31800    240.01632     -153.118    216156.16   -20125.894    1520.3165   -21646.211    36.525355    190.12993    39.470196    39.222109    23.929389 
   32000    229.83483   -274.45772    216156.16   -20217.769    1455.8247   -21673.594   -511.15176    191.85583    39.468788    39.220292    23.933144 
   32200    232.07547   -254.91307    216156.16    -20224.91    1470.0174   -21694.927   -441.96869    193.11495    39.469232    39.221516    23.909674 
   32400     237.0512   -212.74807    216156.16   -20213.009    1501.5347   -21714.544   -247.83875    193.90897    39.471073    39.223368    23.902887 
   32600    230.62001   -315.13248    216156.16   -20125.258    1460.7982   -21586.056   -660.62269    194.75086     39.47171    39.222798    23.880502 
   32800    242.17273   -330.15349    216156.16   -20126.052    1533.9757   -21660.028   -788.20209    195.49292    39.472437    39.221085    23.872922 
   33000    235.70734   -316.56219    216156.16   -20118.724    1493.0225   -21611.746   -729.95731    195.96297    39.472292    39.217991    23.886169 
   33200     230.0575   -407.08156    216156.16   -20166.495    1457.2351    -21623.73   -1086.0189    197.15218    39.472904    39.217439    23.896212 
   33400    235.29993   -295.27397    216156.16    -20189.55    1490.4418   -21679.991   -600.68237    197.50127    39.472191    39.217465    23.892551 
   33600     227.3338   -282.68641    216156.16   -20213.203    1439.9826   -21653.185   -535.18583    198.40804    39.471396     39.21621    23.897939 
   33800    245.30037   -369.10474    216156.16    -20042.78    1553.7868   -21596.567   -878.13001    200.02909    39.471465    39.215928    23.901093 
   34000    231.42245   -426.45375    216156.16   -20164.054     1465.881   -21629.935   -1140.0257    200.39464    39.468649    39.216702    23.911097 
   34200    236.85272   -253.50922    216156.16   -20183.567    1500.2776   -21683.844   -416.06592     201.6895    39.466239    39.218555    23.895894 
   34400    227.88516   -458.03446    216156.16   -20222.355     1443.475    -21665.83   -1285.2434    201.98435    39.466204    39.217084    23.903911 
   34600    237.57586   -536.20104    216156.16   -20079.117    1504.8581   -21583.975   -1592.8405    203.60735    39.468642     39.21819     23.93051 
   34800    236.77986   -384.00818    216156.16    -20156.69    1499.8161   -21656.506   -942.81629    204.59727    39.466462    39.219368    23.936309 
   35000    231.18161    -390.9714    216156.16   -20170.605    1464.3555   -21634.961   -982.36645    206.08821    39.465295    39.220413    23.926797 
   35200    246.42347   -323.46694    216156.16    -20097.81    1560.9008    -21658.71   -738.32603    205.06038     39.46486    39.218738    23.912294 
   35400    229.91332   -231.83452    216156.16   -20101.347    1456.3219   -21557.669   -370.67105    206.55786    39.465207    39.218646    23.900724 
   35600    235.26263   -465.60679    216156.16   -20112.898    1490.2056   -21603.104   -1329.9774    206.71161    39.465729    39.217157    23.926921 
   35800    241.00621   -443.04118    216156.16   -20050.599    1526.5867   -21577.186   -1195.5381    208.13563    39.467704    39.216774    23.903898 
   36000    233.11437   -353.79941    216156.16   -20182.475     1476.598   -21659.073   -873.03897    209.54842    39.466864    39.216639    23.904522 
   36200     235.1146   -420.59375    216156.16   -20203.308    1489.2679   -21692.576   -1148.7725    211.21827     39.46556    39.214455    23.911377 
   36400    236.60334   -364.14687    216156.16   -20145.456    1498.6979   -21644.154   -876.46366    211.21246    39.465512    39.214463    23.902972 
   36600    235.36728   -396.53117    216156.16   -20133.186    1490.8685   -21624.054   -1005.6283    212.58923    39.464575    39.215555    23.910577 
   36800    233.44248   -358.13376    216156.16   -20199.198    1478.6763   -21677.874   -878.43175    213.03404    39.462545    39.218457     23.92468 
   37000    233.09343   -332.50342    216156.16   -20207.058    1476.4654   -21683.524   -751.96884    213.60666    39.462954    39.220598    23.935273 
   37200    229.04571   -404.99326    216156.16   -20206.798    1450.8262   -21657.624   -1064.8454    214.93788    39.462626    39.222089    23.922907 
   37400    239.81969   -401.70208    216156.16   -20197.611     1519.071   -21716.682   -1125.5087     216.7709    39.465318    39.223264    23.931728 
   37600    226.80045   -266.94516    216156.16   -20227.949    1436.6043   -21664.553   -502.61335    217.92109    39.466569    39.222969    23.918095 
   37800    229.09039   -208.82475    216156.16   -20235.282    1451.1092   -21686.391   -230.59635    219.49161    39.465547    39.223333    23.905151 
   38000    233.41336   -369.65527    216156.16   -20177.111    1478.4919   -21655.603   -885.31494    220.83178    39.467824    39.224593     23.90667 
   38200    237.81876   -390.43757    216156.16    -20170.29    1506.3967   -21676.687   -1019.5399    221.55924    39.469045    39.225382    23.901223 
   38400    237.96297   -300.04134    216156.16   -20138.563    1507.3101   -21645.873   -620.13491    221.40833    39.468074    39.224554    23.907436 
   38600    240.57239   -339.46709    216156.16   -20228.512    1523.8388   -21752.351   -796.15004    222.68468     39.46675    39.226743    23.908002 
   38800     232.2541   -385.73408    216156.16   -20191.821    1471.1489    -21662.97   -989.10854    224.70027    39.466618    39.226574    23.913884 
   39000    240.69133   -590.08446    216156.16   -20125.918    1524.5922    -21650.51   -1819.6313    225.31028    39.466878    39.225705    23.913667 
   39200    228.92396   -411.48237    216156.16   -20211.684    1450.0551   -21661.739    -1073.402    226.05591    39.465736    39.225743    23.901995 
   39400    234.50813   -383.20538    216156.16   -20197.655    1485.4264   -21683.082   -982.58874     226.3976    39.466029    39.225079    23.902072 
   39600    240.47499   -305.69351    216156.16    -20150.45    1523.2218   -21673.672   -659.38841    226.61575    39.464354    39.225341    23.881969 
   39800    233.44627   -534.04071    216156.16   -20225.777    1478.7003   -21704.477   -1574.6786    228.17874     39.46489    39.225563    23.864201 
   40000    239.55547   -275.38281    216156.16   -20217.169    1517.3974   -21734.567   -501.74223    228.12539    39.468247    39.226433    23.853638 
   40200    236.14255   -261.71367    216156.16   -20228.298    1495.7792   -21724.077   -477.50038    228.95452    39.468213    39.226001     23.83793 
   40400    230.88809   -232.88924    216156.16   -20276.425    1462.4963   -21738.921   -353.93929    230.13103    39.469398    39.225407    23.836388 
   40600    229.99074   -454.18041    216156.16   -20196.169    1456.8122   -21652.981   -1286.7922    230.36332    39.469874    39.225378    23.847429 
   40800    232.10691   -258.13236    216156.16   -20258.613    1470.2165   -21728.829   -436.67952     231.0777    39.469135    39.224939    23.838668 
   41000    237.32132   -309.96843    216156.16   -20247.358    1503.2457   -21750.603   -639.63399    233.19022    39.470531     39.22479     23.83594 
   41200    244.33636   -274.22851    216156.16   -20158.865    1547.6806   -21706.546     -494.327    234.37936    39.471959    39.223379    23.847423 
   41400    234.46873   -545.73194    216156.16   -20200.079    1485.1768   -21685.255   -1682.5911    235.01134    39.471655    39.223849    23.839589 
   41600    231.66732   -270.95835    216156.16   -20225.568    1467.4321       -21693   -447.80718    235.90594    39.472147    39.224805    23.836139 
   41800    235.57846   -298.40817    216156.16   -20219.235    1492.2061   -21711.441   -606.38504    237.04794    39.472745    39.227672    23.838365 
   42000    231.45725   -477.00407    216156.16   -20212.493    1466.1015   -21678.595   -1348.4215    237.72856    39.471958    39.227819    23.841725 
   42200    229.54688   -335.68838    216156.16   -20241.929    1454.0007    -21695.93   -790.77512    239.84671    39.469926    39.227318    23.836638 
   42400    234.74391   -332.70663    216156.16   -20166.658    1486.9199   -21653.578   -738.45928    240.87952    39.469311    39.227979    23.834459 
   42600    233.93977   -420.61001    216156.16   -20206.948    1481.8263   -21688.774   -1166.0698    241.53785    39.469524    39.226887    23.836598 
   42800    232.50406   -332.14143    216156.16   -20169.354    1472.7322   -21642.086   -747.10489    241.33286     39.47009    39.222686    23.836984 
   43000    230.13297   -331.97937    216156.16    -20209.82    1457.7131   -21667.533   -803.61839    242.05106    39.472641    39.222175    23.836429 
   43200    230.22592   -344.71485    216156.16   -20185.022     1458.302   -21643.324   -789.75024    243.42934     39.47588    39.223331    23.836393 
   43400    231.81674   -327.21539    216156.16   -20167.568    1468.3786   -21635.946   -755.78939    243.88387    39.478733    39.221578    23.846665 
   43600    229.81009   -456.78172    216156.16   -20193.842     1455.668    -21649.51   -1275.3466    244.70248    39.479474    39.220754    23.847888 
   43800    237.01593   -310.64537    216156.16   -20209.531    1501.3113   -21710.842   -611.17383    245.63489    39.480144    39.218398    23.866244 
   44000    229.66476   -440.36807    216156.16   -20250.423    1454.7474   -21705.171    -1165.529    246.57339    39.478822    39.216653    23.874899 
   44200    235.87278    -385.3202    216156.16   -20179.828    1494.0704   -21673.898   -942.47618    248.24741    39.477357    39.215578    23.878196 
   44400    235.58664   -547.36862    216156.16   -20218.448    1492.2579   -21710.706   -1687.9862     250.0438    39.478431    39.215688    23.876671 
   44600    227.17816   -215.23433    216156.16   -20218.534    1438.9968   -21657.531   -212.26941     250.1192    39.476905    39.215153    23.878485 
   44800    233.20007   -472.74534    216156.16   -20196.819    1477.1409    -21673.96   -1324.5378    252.17089     39.47573    39.218246    23.858492 
   45000     233.9906   -384.16387    216156.16   -20172.661    1482.1483    -21654.81    -966.8881    254.50029    39.475105    39.219886    23.858858 
   45200     236.7135   -404.16566    216156.16   -20149.241    1499.3957   -21648.637   -1062.7613     255.8478    39.474756    39.221593     23.88169 
   45400    227.51609   -419.57154    216156.16   -20213.143    1441.1373    -21654.28   -1097.6705    256.73091    39.475107    39.223821     23.88363 
   45600     237.2434   -550.91122    216156.16   -20128.584    1502.7522   -21631.336   -1656.9341    257.83341    39.473709    39.224383    23.871449 
   45800    235.76005   -409.92456    216156.16   -20135.542    1493.3564   -21628.898   -1047.1482    259.28111    39.474517    39.223737     23.85575 
   46000    244.97093   -291.17941    216156.16   -20064.107    1551.7001   -21615.807    -619.3848    261.71403    39.476848    39.225633    23.857719 
   46200    239.90735   -217.52135    216156.16   -20042.591    1519.6263   -21562.217   -249.17858    263.04251    39.478324    39.224348    23.844817 
   46400    235.63451   -455.99433    216156.16   -20141.185    1492.5611   -21633.746   -1263.0467    263.89596    39.478778     39.22484    23.829839 
   46600    233.43245   -462.84056    216156.16   -20161.253    1478.6128   -21639.866   -1290.6971    264.43755    39.477896    39.223574    23.859246 
   46800    237.26232   -500.64325    216156.16   -20141.801    1502.8721   -21644.673   -1466.6924    264.75201    39.479145    39.222164     23.86707 
   47000    238.27634     -365.147    216156.16   -20117.712    1509.2951   -21627.007   -864.94161    266.93245    39.477054    39.220425    23.857831 
   47200    232.62889   -358.59451    216156.16   -20202.278    1473.5229   -21675.801   -890.95039    267.88631    39.476118    39.220546    23.870053 
   47400    230.72109   -451.31577    216156.16   -20116.504    1461.4385   -21577.943   -1242.3877     270.1614    39.477345    39.221238    23.881311 
   47600    242.47304   -311.69745    216156.16   -20143.435    1535.8779   -21679.312   -681.73973    271.63054    39.478494    39.221713    23.880801 
   47800    231.05615   -451.38165    216156.16   -20167.501    1463.5608   -21631.062   -1241.1123    273.66964    39.480748    39.226372    23.874566 
   48000    231.60232   -204.83936    216156.16   -20134.693    1467.0204   -21601.714   -282.74952    274.36751    39.481606    39.229274    23.870685 
   48200    237.57503   -260.15765    216156.16   -20162.479    1504.8528   -21667.332   -450.04239    275.25064    39.481278    39.228964    23.893928 
   48400    236.87533   -449.32306    216156.16   -20193.341    1500.4208   -21693.762   -1249.4515    276.86635    39.480412    39.229577    23.902713 
   48600    229.63424   -224.87941    216156.16   -20276.866    1454.5541    -21731.42   -309.76394    278.51743    39.482548    39.229509    23.910227 
   48800    232.91167   -176.92559    216156.16   -20223.297    1475.3141   -21698.611   -67.696067    279.19318    39.485102    39.229334    23.931973 
   49000    228.59418   -350.39479    216156.16   -20234.177    1447.9662   -21682.143   -826.91326    278.60503    39.482642    39.231629    23.896088 
   49200    235.03562   -349.16847    216156.16   -20168.008    1488.7677   -21656.776   -847.83072    277.06538    39.484797    39.234577    23.900905 
   49400    229.30528    -480.4756    216156.16   -20234.332    1452.4704   -21686.802   -1369.0834    279.50853    39.486583    39.234223    23.898094 
   49600    243.05202   -436.91462    216156.16   -20190.495    1539.5453    -21730.04   -1154.7019     281.1634    39.487305    39.234714    23.906672 
   49800    233.79934   -373.92612    216156.16    -20194.86    1480.9368   -21675.797   -970.91847    280.49396    39.487871    39.233241    23.894095 
   50000    231.46516   -529.45237    216156.16   -20217.593    1466.1516   -21683.744   -1565.9519    281.77254    39.488436    39.233592    23.897123 
   50200    244.08442   -450.14994    216156.16   -20145.676    1546.0848   -21691.761   -1323.5105    282.77586    39.486343    39.232365    23.896601 
   50400    235.12529   -318.78817    216156.16   -20182.975    1489.3356   -21672.311   -699.40323    284.08945    39.485626    39.232786    23.897291 
   50600     245.8047   -295.91046    216156.16   -20101.298    1556.9814    -21658.28   -600.09514    284.09404    39.484739     39.23271    23.895918 
   50800    228.22044   -444.97829    216156.16   -20281.895    1445.5988   -21727.494   -1234.7066    286.00734    39.485083    39.231157    23.895671 
   51000    230.51555   -372.37635    216156.16    -20190.92    1460.1365   -21651.057   -940.91563    285.86047    39.485478     39.23288    23.906865 
   51200    235.03447   -350.87382    216156.16   -20210.797    1488.7603   -21699.557   -880.05077     289.2294    39.486113    39.231214    23.915055 
   51400    236.08793   -521.91585    216156.16   -20201.667    1495.4332     -21697.1    -1603.462    289.38872    39.488093    39.230167    23.896074 
   51600    233.37153    -334.8562    216156.16   -20214.055     1478.227   -21692.282   -722.82203    289.58362    39.489647     39.22783    23.891723 
   51800    236.46891   -531.80485    216156.16   -20173.001    1497.8464   -21670.847   -1592.4698    290.53222    39.489176    39.228183     23.88132 
   52000    230.83357   -443.47708    216156.16   -20262.284    1462.1509   -21724.435    -1194.383    290.62358    39.490312    39.229498    23.898492 
   52200    231.63229   -288.93141    216156.16   -20268.826    1467.2102   -21736.037   -593.57401    291.82066    39.491116    39.228955    23.892936 
   52400    225.17483   -504.91476    216156.16   -20313.128    1426.3072   -21739.435   -1551.5056    294.67364    39.492375    39.231661    23.869423 
   52600    241.58815    -291.2808    216156.16   -20240.532    1530.2728   -21770.805    -536.7171    295.99826    39.493392    39.232382    23.878512 
   52800    240.34379   -405.49066    216156.16   -20169.948    1522.3908   -21692.339   -1065.0159     296.4917    39.494237    39.231924    23.878408 
   53000      239.083   -515.35468    216156.16   -20157.692    1514.4046   -21672.096   -1548.2008    298.40129    39.492763    39.232059    23.869936 
   53200    228.88129    -539.5868    216156.16   -20260.512    1449.7847   -21710.297   -1592.7335    299.88179    39.496399    39.232465     23.87636 
   53400    233.54518   -507.55955    216156.16   -20229.784    1479.3269   -21709.111   -1464.4264    300.25685     39.49633    39.231185    23.885015 
   53600    228.38848   -338.99504    216156.16   -20252.736    1446.6632   -21699.399   -813.08599    301.14916    39.495088    39.233305    23.905461 
   53800     233.5581   -474.41439    216156.16   -20199.111    1479.4087   -21678.519   -1296.4498    300.70012    39.493495    39.232599    23.930289 
   54000    233.88727    -523.8933    216156.16   -20169.333    1481.4938   -21650.827   -1584.8998    303.00361    39.490845    39.232173    23.930142 
   54200    236.22571   -351.39112    216156.16   -20106.935     1496.306   -21603.241   -836.95486    302.84741    39.487241    39.234136    23.944939 
   54400    239.96913   -324.18587    216156.16   -20046.302    1520.0176    -21566.32   -732.58995    304.53909    39.485081    39.239068    23.944833 
   54600    236.48189   -297.38072    216156.16   -20109.866    1497.9286   -21607.795    -575.8113     303.8526    39.484535    39.238242    23.930906 
   54800    235.62548   -320.73095    216156.16   -20108.513    1492.5039   -21601.017   -726.05097    304.42938    39.484353    39.237189     23.93434 
   55000    245.53507   -418.00062    216156.16   -20064.042    1555.2735   -21619.315   -1103.2764    306.58024    39.484629    39.237166    23.928582 
   55200    229.23883   -445.54823    216156.16   -20214.351    1452.0495     -21666.4   -1207.8459    307.83237    39.484735    39.235241    23.917915 
   55400    233.38359   -288.51817    216156.16   -20179.053    1478.3033   -21657.356   -565.10285    309.32458    39.484321    39.235042    23.917189 
   55600    230.91838   -344.26876    216156.16    -20166.52    1462.6881   -21629.208   -790.99837    310.40525    39.483683    39.235282    23.903336 
   55800    244.86553   -303.40754    216156.16   -20056.302    1551.0325   -21607.335     -642.465    310.13462    39.486408    39.236459    23.921124 
   56000    233.73938   -506.58195    216156.16   -20111.748     1480.557   -21592.305   -1523.9834    311.05645    39.487198    39.238171    23.922289 
   56200    239.44068   -256.62918    216156.16   -20097.508    1516.6703   -21614.178   -414.04686    312.59635    39.488043    39.237514      23.9381 
   56400     230.9854   -329.50531    216156.16   -20175.977    1463.1127   -21639.089   -794.62108    313.69222    39.492519    39.236324    23.939273 
   56600    227.92442   -533.81388    216156.16   -20260.463    1443.7237   -21704.186   -1653.6471     315.1033    39.495338    39.235485    23.910934 
   56800    233.83693   -408.90954    216156.16   -20162.522    1481.1749   -21643.697   -1106.3779    315.72766    39.497583    39.235414    23.898982 
   57000    233.91329   -428.66851    216156.16   -20238.191    1481.6585   -21719.849   -1155.2279    318.14066    39.498842    39.237556    23.882538 
   57200    239.11102   -408.46412    216156.16   -20168.798    1514.5821    -21683.38   -1116.6364    319.33338    39.497978    39.236523    23.884315 
   57400    231.33816   -403.14927    216156.16   -20194.146    1465.3471   -21659.493   -1065.2134    320.59506    39.494823    39.233788    23.884546 
   57600    229.42365   -367.39944    216156.16   -20206.024    1453.2202   -21659.244   -915.97186    319.12979    39.494933    39.233536    23.906949 
   57800    233.98666   -419.24624    216156.16   -20165.965    1482.1233   -21648.088    -1151.774    320.19935    39.492851    39.234099     23.88163 
   58000    239.21544   -281.85443    216156.16   -20155.715    1515.2435   -21670.959   -542.83192    319.51114      39.4903    39.233169    23.870357 
   58200    239.06821   -406.24091    216156.16   -20103.548    1514.3109   -21617.858   -1063.1814    321.21134    39.489087    39.233195    23.875831 
   58400    232.63253   -368.88491    216156.16   -20136.406     1473.546   -21609.952   -980.00549    322.69684     39.48956    39.232625    23.894757 
   58600    236.68375   -324.37524    216156.16   -20200.426    1499.2073   -21699.633   -768.24981    323.25763    39.487915     39.23376    23.898635 
   58800    236.07687   -319.90866    216156.16   -20175.837    1495.3631     -21671.2   -737.22936    324.25938    39.490643    39.233723    23.899066 
   59000    240.03262   -425.61987    216156.16   -20096.793    1520.4197   -21617.212   -1140.8245    326.76392      39.4908    39.234231    23.882881 
   59200    235.96547    -517.5764    216156.16   -20161.483    1494.6576   -21656.141    -1579.056     326.0404    39.490018    39.235408    23.894364 
   59400     233.2097    -258.0124    216156.16   -20159.548    1477.2019    -21636.75   -460.40827    326.14225    39.489935    39.238736    23.887194 
   59600    230.38452   -267.27674    216156.16   -20223.035    1459.3065   -21682.341   -413.90975    325.26247     39.49119    39.238206     23.89942 
   59800    240.32257   -238.15489    216156.16   -20190.452    1522.2564   -21712.708   -421.29091    324.81556    39.490597    39.239648    23.899422 
   60000    238.47425   -456.04691    216156.16   -20163.427    1510.5487   -21673.976     -1259.11    326.70691    39.492556    39.238768    23.884813 
   60200    236.28349   -310.71146    216156.16   -20193.631    1496.6719   -21690.303   -655.26401    326.72679    39.493058    39.239655    23.876275 
   60400    233.29335   -303.32528    216156.16   -20161.757    1477.7317   -21639.489   -634.38624    327.11287     39.49138    39.237108    23.879487 
   60600    237.58613   -258.74521    216156.16   -20130.409    1504.9232   -21635.332     -443.856    330.00472    39.491062    39.239269    23.875322 
   60800    240.01854   -435.99579    216156.16   -20078.764    1520.3305   -21599.094   -1175.2845    329.75257    39.490927    39.240137    23.867935 
   61000    233.54097   -331.71681    216156.16   -20127.742    1479.3002   -21607.043   -776.33971    329.18472    39.488142    39.236502    23.872171 
   61200    242.28392   -226.02776    216156.16   -20108.752      1534.68   -21643.432   -318.53538    330.73639    39.486881    39.236265    23.861027 
   61400    237.01733   -314.46539    216156.16   -20177.682    1501.3202   -21679.002   -690.14308    332.82659    39.485018    39.238715    23.858988 
   61600    233.02945   -432.63549    216156.16   -20203.887    1476.0601   -21679.947   -1160.7832    332.62638    39.485858    39.240731    23.850488 
   61800    231.43555   -283.98795    216156.16   -20233.214     1465.964   -21699.178   -618.10409    332.71586    39.484713    39.242205    23.853621 
   62000    240.40636   -354.06589    216156.16   -20143.511    1522.7871   -21666.298   -935.96522    335.14383    39.487013    39.242827     23.85472 
   62200    239.83751   -478.31854    216156.16   -20119.418    1519.1838   -21638.602   -1357.8497    336.47697    39.487857    39.241474    23.850046 
   62400    240.57262   -352.64231    216156.16   -20108.734    1523.8402   -21632.575   -858.61511    336.75106    39.487812    39.241274    23.842007 
   62600    229.95372    -256.3189    216156.16   -20170.064    1456.5778   -21626.642    -439.2698    337.22818    39.486063    39.238495    23.831605 
   62800     226.1277   -522.13379    216156.16   -20228.007    1432.3429    -21660.35   -1588.4107    336.04634    39.485668    39.238748    23.813751 
   63000    233.81157   -506.15039    216156.16   -20125.366    1481.0142    -21606.38   -1498.6986    336.28399    39.486779     39.23697    23.807614 
   63200    235.06104   -503.20033    216156.16   -20160.842    1488.9287   -21649.771   -1532.1546    337.84521    39.489131    39.238589    23.808874 
   63400    230.25848   -537.52605    216156.16   -20257.548    1458.5082   -21716.057    -1609.608    337.47644    39.489426    39.239098    23.833569 
   63600    227.58779   -270.84297    216156.16   -20223.508    1441.5914   -21665.099   -515.39748    336.59357    39.488754    39.238345     23.85824 
   63800    232.92536   -487.43214    216156.16    -20272.56    1475.4008    -21747.96   -1401.0447    336.51144    39.490506    39.237747    23.885462 
   64000    240.49817    -452.1386    216156.16   -20189.087    1523.3686   -21712.456   -1259.7509    337.09702    39.491253    39.235461    23.882051 
   64200    235.69404   -438.13663    216156.16   -20165.663    1492.9382   -21658.601   -1194.6533     337.7475    39.491523    39.234973    23.872713 
   64400    233.64368   -358.03788    216156.16   -20168.583    1479.9508   -21648.534   -847.91692    339.65612    39.491065    39.235337    23.873667 
   64600     224.1227    -131.4692    216156.16   -20214.865    1419.6428   -21634.507    108.52502    340.01394    39.490007    39.234335    23.871367 
   64800    237.14434   -406.55969    216156.16   -20214.785    1502.1247    -21716.91   -1069.3896    341.76408    39.490251    39.231898    23.879982 
   65000     238.1348    -346.1273    216156.16   -20126.913    1508.3985   -21635.312   -781.19449    343.28157    39.489348    39.228093    23.864013 
   65200    236.42158   -500.99629    216156.16   -20184.949    1497.5466   -21682.495   -1514.5484     343.3831     39.48801    39.227499    23.855235 
   65400     231.2848   -297.35689    216156.16    -20189.55    1465.0091   -21654.559   -642.26963    344.90035    39.484621    39.226476    23.852702 
   65600    232.89632   -454.26467    216156.16   -20096.548    1475.2168   -21571.765   -1274.5878    347.69478    39.483247    39.225592    23.852157 
   65800    237.18426   -322.95194    216156.16   -20127.155    1502.3776   -21629.532   -713.10944    346.64417    39.480276    39.226529    23.853013 
   66000    236.07442   -531.53898    216156.16    -20134.43    1495.3476   -21629.778   -1617.9317    348.03167    39.477114    39.226647    23.835992 
   66200    230.17029   -547.34059    216156.16   -20202.769    1457.9496   -21660.718   -1642.9479    350.23058    39.477476     39.22554    23.850868 
   66400    236.81899   -319.69036    216156.16    -20212.71    1500.0639   -21712.774   -692.44851    350.71457    39.474969    39.226213    23.840291 
   66600    236.96824   -236.99468    216156.16   -20269.542    1501.0093   -21770.551   -402.94348    351.84239     39.47406     39.22504    23.837772 
   66800    231.54053   -245.81989    216156.16   -20262.678     1466.629   -21729.307   -340.16443    352.90983    39.472129    39.226187    23.846675 
   67000    230.76559   -335.01197    216156.16   -20311.923    1461.7203   -21773.644   -753.62123     352.0884    39.472452    39.225276    23.842182 
   67200     236.1109   -460.58967    216156.16   -20243.292    1495.5787   -21738.871   -1332.6202    352.34185    39.472352    39.225352    23.845153 
   67400    234.24528   -403.90291    216156.16   -20213.531    1483.7615   -21697.292   -1044.9393    352.23942     39.47435    39.224156    23.847891 
   67600     238.1143   -300.55327    216156.16   -20136.784    1508.2687   -21645.052   -578.74104    351.54445    39.474106    39.224478    23.845771 
   67800    231.74506   -327.32416    216156.16   -20167.166    1467.9245   -21635.091   -754.78974    351.86468    39.474358    39.225772    23.849546 
   68000     235.9125    -519.6966    216156.16   -20211.468     1494.322    -21705.79   -1549.8102    353.58981    39.472661    39.226871    23.872127 
   68200    234.15486   -425.09395    216156.16   -20191.315    1483.1887   -21674.503   -1156.6088    352.44075     39.47114    39.229146    23.871882 
   68400    239.68492   -345.01565    216156.16   -20157.976    1518.2173   -21676.194   -789.71616    354.47077    39.467398    39.230757    23.867505 
   68600    236.09556   -391.27482    216156.16   -20203.234    1495.4815   -21698.716   -1008.2471    354.90364    39.465458    39.229592    23.835424 
   68800    239.48894   -418.14977    216156.16   -20183.041     1516.976   -21700.017   -1131.7421    354.88596    39.462607    39.227533    23.825861 
   69000    237.49779   -312.53067    216156.16   -20181.546    1504.3635    -21685.91   -637.25953    356.92367    39.463193    39.226649    23.810446 
   69200    233.80462   -408.25587    216156.16   -20271.695    1480.9702   -21752.665   -1073.5701    358.29642     39.46199     39.22325    23.794088 
   69400    231.02578   -560.15178    216156.16    -20316.83    1463.3684   -21780.198   -1691.9338    358.34441    39.461141    39.221778     23.78588 
   69600    231.77641   -359.61273    216156.16   -20084.863    1468.1231   -21552.986   -865.70481    361.61437    39.461802     39.22183    23.774771 
   69800    234.38883   -392.59635    216156.16   -20201.327    1484.6707   -21685.998   -1041.2564    361.56308    39.460285    39.220608    23.731199 
   70000    240.63545   -373.57271    216156.16   -20235.767    1524.2382   -21760.005   -957.15071     360.8499    39.459782    39.217181    23.703427 
   70200    238.74951   -332.24724    216156.16   -20235.622    1512.2922   -21747.914    -745.5092       361.95    39.458983    39.216916    23.717201 
   70400    235.78678   -374.55523    216156.16   -20157.469    1493.5257   -21650.995   -950.58973    361.40015    39.461369    39.218078    23.734979 
   70600    231.08878    -371.8879    216156.16   -20218.035    1463.7675   -21681.802   -894.93547    360.63157    39.462859    39.218309    23.724944 
   70800    230.89339   -535.05371    216156.16   -20189.785    1462.5298   -21652.314   -1607.4035      362.211     39.46155    39.218108    23.734237 
   71000    231.50635   -355.47765    216156.16   -20230.521    1466.4125   -21696.934   -827.99444    362.80932    39.462779    39.219583    23.731977 
   71200    227.55166   -471.32318    216156.16   -20224.102    1441.3626   -21665.465   -1393.1186    364.38842    39.462771    39.221906    23.728099 
   71400    230.00275   -342.45275    216156.16   -20218.565    1456.8883   -21675.453   -842.27018    364.19768    39.463526     39.22408    23.721951 
   71600    228.55877   -385.38936    216156.16   -20154.474    1447.7418   -21602.216   -986.68577    363.34513    39.462079    39.224946    23.705191 
   71800    230.59987   -529.68122    216156.16   -20256.445    1460.6706   -21717.115   -1581.6287    364.99465    39.461871    39.224984    23.717199 
   72000    232.67884   -434.10253    216156.16    -20221.31    1473.8393   -21695.149   -1220.1411    367.30814    39.461294     39.22355    23.697868 
   72200    242.05958   -385.77618    216156.16   -20079.123     1533.259   -21612.382   -995.00528    368.25357    39.462338    39.224652    23.710056 
   72400    228.93735   -243.45259    216156.16   -20170.548    1450.1398   -21620.688   -346.24648    367.87827    39.462575    39.225066    23.722541 
   72600    236.56045   -528.54725    216156.16   -20141.656    1498.4263   -21640.082   -1557.6424    369.76425    39.464548    39.225057    23.724623 
   72800    234.31974   -304.45106    216156.16   -20153.198    1484.2331   -21637.431   -609.61843    369.56968    39.465737    39.224697    23.733632 
   73000    235.69213   -415.09474    216156.16   -20165.957    1492.9262   -21658.883   -1087.4668     370.0472    39.466434    39.224721     23.71768 
   73200    238.36718   -352.41894    216156.16   -20100.994    1509.8705   -21610.864   -820.38252     370.6169    39.464517    39.224574    23.705339 
   73400    232.23749   -454.27945    216156.16    -20135.46    1471.0437   -21606.504   -1223.8305    370.71517     39.46586    39.226165    23.723176 
   73600    238.45517   -289.22887    216156.16   -20123.773    1510.4278   -21634.201   -535.34357    370.69699    39.466325    39.229368    23.730815 
   73800    230.42804   -361.49494    216156.16   -20205.583    1459.5822   -21665.165   -864.51615    372.26271     39.46709    39.231084    23.738466 
   74000    234.81602   -364.44866    216156.16   -20191.655    1487.3766   -21679.032   -900.82461    374.14873    39.468849    39.233224    23.750461 
   74200     236.0601   -429.49358    216156.16   -20131.245    1495.2569   -21626.502   -1144.3412     375.0344     39.46762    39.233787    23.734874 
   74400    242.18366    -533.1324    216156.16   -20118.484    1534.0449   -21652.529    -1608.135    374.14309    39.468588    39.232394    23.738315 
   74600     230.0877   -362.63243    216156.16   -20170.684    1457.4264    -21628.11   -913.74511    375.16981    39.465214     39.23216    23.748884 
   74800    234.60988   -488.10463    216156.16   -20151.178    1486.0709   -21637.249   -1454.3613    375.85194     39.46702    39.233757    23.720765 
   75000    231.52458   -490.14361    216156.16   -20143.662     1466.528    -21610.19   -1471.4289    377.37777    39.467973    39.235043    23.677565 
   75200    233.90554   -460.52466    216156.16   -20072.193    1481.6095   -21553.803   -1265.0476    377.64989    39.468086    39.234766    23.676277 
   75400    230.39538   -306.79119    216156.16   -20146.234    1459.3753   -21605.609   -624.33991     377.2523    39.469493    39.234243    23.666236 
   75600    236.62194   -314.06893    216156.16   -20121.845    1498.8157   -21620.661   -725.30877    378.69914    39.469288    39.237217    23.655925 
   75800    234.90333   -385.03829    216156.16   -20072.084    1487.9297   -21560.014     -960.791    380.60898    39.469774    39.237186    23.659968 
   76000    235.24122   -397.56379    216156.16   -20111.852      1490.07   -21601.922   -1039.2359    378.64316    39.469385    39.238367    23.679474 
   76200     231.2758   -343.32222    216156.16   -20215.296    1464.9521   -21680.248   -808.54143    380.09922    39.465265    39.236759    23.667292 
   76400    228.16251   -500.09462    216156.16   -20183.977    1445.2318   -21629.209   -1508.2959     381.9891    39.465092    39.234525     23.65214 
   76600    237.93334   -437.91753    216156.16   -20143.681    1507.1224   -21650.804   -1267.0102    381.29979    39.464402    39.232704    23.652003 
   76800    231.05281   -632.47272    216156.16   -20181.987    1463.5397   -21645.527   -2010.7954    380.92758    39.462416     39.23009    23.657749 
   77000    236.58612    -320.0073    216156.16   -20171.338    1498.5888   -21669.927   -738.97751     378.6843    39.463534    39.229103    23.662284 
   77200    237.33909    -450.5723    216156.16   -20158.805    1503.3584   -21662.164   -1280.6263    376.52168    39.464294    39.225631    23.668784 
   77400    231.62989   -532.62897    216156.16   -20151.079     1467.195   -21618.274    -1560.246    376.03357    39.464655    39.223718    23.670587 
   77600    239.63735   -574.42838    216156.16   -20180.659     1517.916   -21698.575   -1835.2091    378.13605    39.464737    39.221961    23.660773 
   77800     238.3199   -246.63359    216156.16   -20143.884     1509.571   -21653.455   -396.47516    380.22389    39.463121    39.222901    23.669296 
   78000    238.41117   -426.88087    216156.16   -20217.117    1510.1491   -21727.266   -1179.3321    379.04137     39.46266     39.21954    23.656227 
   78200      242.939   -317.89075    216156.16   -20144.672    1538.8294   -21683.502   -636.28053    379.03375    39.466528    39.219091    23.660002 
   78400    230.12149   -367.92618    216156.16   -20162.934    1457.6405   -21620.574   -901.22841    376.89802    39.467646    39.220429    23.677223 
   78600    234.35648   -399.54973    216156.16    -20150.83    1484.4658   -21635.296   -1030.4544    377.71815    39.467085    39.220806    23.688717 
   78800    232.00377   -297.39164    216156.16   -20165.747    1469.5632   -21635.311   -665.26706    377.62615    39.468364    39.221235    23.691744 
   79000    235.55559   -459.42208    216156.16    -20150.07    1492.0612   -21642.131   -1299.0756    378.53149    39.467768    39.219628     23.71042 
   79200    243.38114   -439.51004    216156.16   -20155.439      1541.63   -21697.069   -1232.2552    378.51033    39.468653    39.216725    23.700816 
   79400    234.96144   -201.08082    216156.16   -20134.633    1488.2978   -21622.931   -257.47633    377.65468    39.467386    39.215414    23.716656 
   79600    232.20402   -149.23145    216156.16   -20213.023    1470.8316   -21683.855    18.974598    378.60008    39.467439    39.216579    23.737058 
   79800    233.29549   -432.46277    216156.16   -20172.299    1477.7453   -21650.044   -1213.0658    380.54231    39.467684    39.215721    23.744893 
   80000    227.74556   -369.09409    216156.16   -20162.952    1442.5908   -21605.543   -932.92239    380.16091    39.467618    39.215499     23.76526 
   80200    233.65034   -322.18022    216156.16   -20178.071     1479.993   -21658.064   -757.13069    381.97313    39.467052    39.215933    23.776114 
   80400    239.93051   -425.86587    216156.16   -20186.448    1519.7729   -21706.221   -1158.6244    382.84657    39.464715    39.216391    23.768729 
   80600    237.54946   -411.21852    216156.16   -20184.229    1504.6909    -21688.92   -1062.6133    383.50755    39.463225    39.215226    23.761582 
   80800    237.44476   -450.41234    216156.16   -20171.405    1504.0277   -21675.433   -1241.9053    384.35041    39.462081    39.213211    23.773563 
   81000    240.82158   -375.47421    216156.16    -20186.21    1525.4172   -21711.628   -916.16345    385.68589     39.46167    39.211704    23.774733 
   81200    232.26529   -481.03404    216156.16   -20175.064    1471.2198   -21646.284   -1373.4781    383.81649    39.462909    39.211883    23.770402 
   81400    235.36599   -458.16098    216156.16   -20146.194    1490.8603   -21637.054   -1305.0849     384.4125     39.46136    39.211085    23.756217 
   81600    228.00163   -401.40493    216156.16   -20212.898    1444.2128   -21657.111    -1068.881    386.46268    39.461675    39.212997    23.740773 
   81800    228.78211   -377.25967    216156.16   -20248.387    1449.1566   -21697.544   -915.57134    387.80688    39.464591    39.211728    23.750477 
   82000    228.55799   -528.76916    216156.16   -20196.826    1447.7369   -21644.563   -1565.6312    390.17726    39.465872    39.209971     23.75866 
   82200    239.34559   -295.37361    216156.16    -20147.28     1516.068   -21663.348   -537.72033    390.86959    39.466046    39.209979    23.735586 
   82400    235.13924   -438.77475    216156.16   -20172.959     1489.424   -21662.383   -1177.8327    392.72589    39.466912    39.210347    23.737973 
   82600    239.09627   -411.11549    216156.16   -20125.284    1514.4887   -21639.773   -1114.1901    393.08257    39.465761    39.210981    23.743235 
   82800    235.95969   -474.34053    216156.16   -20228.955    1494.6209   -21723.576    -1356.718    395.42973    39.466353    39.212663    23.752576 
   83000    233.69815   -305.39161    216156.16   -20153.079    1480.2958   -21633.375   -608.26313    396.11086    39.466952    39.211249    23.772246 
   83200    236.09507   -506.59519    216156.16   -20159.008    1495.4785   -21654.486   -1453.7658    396.02805    39.464933    39.210552    23.786692 
   83400    225.46885   -429.91083    216156.16   -20170.359    1428.1696   -21598.528   -1141.0994    396.46657    39.464827     39.20998    23.793088 
   83600    233.47913   -302.44808    216156.16    -20213.34    1478.9085   -21692.248   -653.17036    395.92267    39.463552    39.209504    23.798378 
   83800    234.92279   -503.44567    216156.16   -20181.319     1488.053   -21669.372   -1527.3891    396.07286    39.461787    39.209539    23.814036 
   84000    230.54608   -278.45047    216156.16   -20175.006    1460.3299   -21635.336   -529.07928    397.00117    39.460699    39.211954    23.809587 
   84200    238.48523   -418.05652    216156.16   -20165.748    1510.6182   -21676.367   -1113.2435    398.43041     39.45677    39.210523    23.785951 
   84400    231.80532   -477.17664    216156.16   -20195.166    1468.3062   -21663.472   -1358.2687    400.05761    39.454921     39.20602    23.811961 
   84600     238.6225   -347.26296    216156.16   -20138.895    1511.4877   -21650.383   -777.25428    399.69994    39.455306    39.205883    23.809205 
   84800    238.69047   -322.21263    216156.16   -20203.013    1511.9183   -21714.932   -715.56585    402.25081    39.456005    39.206235    23.798544 
   85000    235.79037     -343.129    216156.16     -20194.7    1493.5484   -21688.249   -789.97733    403.10332    39.458646    39.207024    23.788288 
   85200    232.57487   -396.09038    216156.16    -20202.13    1473.1807   -21675.311   -1054.5929    402.25978    39.457463    39.205665    23.758021 
   85400    227.15803   -397.92662    216156.16    -20239.72    1438.8693    -21678.59   -991.77832    402.83164     39.45732    39.204867    23.768345 
   85600    231.10304   -481.04652    216156.16   -20266.095    1463.8578   -21729.953   -1340.7474    403.80767    39.458666    39.203464    23.755487 
   85800    235.18549   -356.68857    216156.16    -20159.24    1489.7169   -21648.957   -823.64894    405.19947     39.46064    39.200414    23.737425 
   86000    233.27353   -336.86339    216156.16    -20172.77    1477.6062   -21650.377    -770.5997    407.05644    39.460641    39.201168    23.753572 
   86200      228.521   -364.10487    216156.16   -20157.663    1447.5026   -21605.165   -871.57328    406.85906    39.460938    39.202593    23.743386 
   86400    226.85316   -345.90824    216156.16    -20208.28    1436.9382   -21645.218   -823.98622    406.84853    39.458778    39.200414    23.739405 
   86600    230.38611   -265.95455    216156.16   -20116.064    1459.3166   -21575.381   -501.56344    407.40615    39.456448    39.202568    23.762481 
   86800    238.42349   -285.98752    216156.16   -20223.304    1510.2271   -21733.531   -523.95686    409.72287    39.459835     39.20381     23.75493 
   87000    235.92891   -272.29566    216156.16   -20155.244    1494.4259    -21649.67   -543.09293    411.94128    39.464295    39.203863    23.760713 
   87200    230.58965   -567.19542    216156.16    -20099.63    1460.6059   -21560.236   -1786.6663    411.94046    39.465631    39.202788    23.761796 
   87400    234.56055   -273.45448    216156.16   -20172.756    1485.7584   -21658.515   -540.15025    410.66618    39.466204    39.201859    23.780053 
   87600    234.83706   -419.80445    216156.16   -20079.826    1487.5099   -21567.336   -1142.7723    410.04865    39.468227    39.201259     23.79377 
   87800    233.46547   -482.88508    216156.16   -20119.573     1478.822   -21598.395   -1350.8523    412.84901    39.470379    39.200498    23.806028 
   88000    236.70537   -444.32002    216156.16   -20149.583    1499.3442   -21648.927   -1237.7171    414.52293    39.470402    39.200332    23.784398 
   88200    234.92948   -482.37862    216156.16   -20212.185    1488.0953    -21700.28   -1447.8633     414.2618    39.471752    39.198969    23.787099 
   88400    230.90107   -180.95626    216156.16    -20130.11    1462.5785   -21592.689   -127.43187    413.30513    39.469457    39.198506    23.789836 
   88600    235.16162   -240.44523    216156.16   -20152.161    1489.5658   -21641.727   -366.64271    412.87158    39.470311    39.195578     23.75571 
   88800    234.37937   -351.02828    216156.16   -20139.996    1484.6108   -21624.607   -818.37233    414.43447    39.469979    39.193621    23.759602 
   89000    238.11939    -317.8013    216156.16   -20162.698    1508.3009   -21670.999   -687.91307    416.41637    39.470268    39.193206    23.740942 
   89200    230.56088   -546.33097    216156.16   -20135.677    1460.4236     -21596.1   -1641.4713    416.81015    39.470781    39.192714    23.720041 
   89400     236.4854    -369.6348    216156.16   -20105.584    1497.9509   -21603.535   -938.72068    419.80707    39.470443     39.19146    23.719788 
   89600    226.28452   -346.47309    216156.16   -20236.197    1433.3362   -21669.533   -830.81304    421.18244    39.471868    39.194052    23.712942 
   89800    236.71127   -352.11552    216156.16   -20135.063    1499.3816   -21634.445   -849.34081    421.06051    39.471898    39.193974    23.712463 
   90000    231.45131   -450.70158    216156.16   -20139.418    1466.0638   -21605.482   -1285.8405    423.40945    39.473318    39.194298     23.70811 
   90200     236.5255   -338.04433    216156.16   -20166.147    1498.2049   -21664.352   -831.08567    424.53807    39.472503      39.1962    23.687326 
   90400    238.07593   -173.72418    216156.16    -20121.04    1508.0257   -21629.066   -93.706978    423.49426    39.471385    39.200261    23.667273 
   90600    236.97551   -399.51029    216156.16   -20156.382    1501.0553   -21657.437   -1033.3505    423.58606    39.470885    39.201102    23.664517 
   90800    229.64121   -363.69147    216156.16   -20140.288    1454.5982   -21594.886   -870.37465    425.20822    39.469968    39.203187    23.676672 
   91000    229.71375   -342.26297    216156.16   -20209.306    1455.0578   -21664.364   -839.24099    423.93414    39.470826    39.202082    23.679249 
   91200    228.99102   -579.86834    216156.16   -20276.233    1450.4798   -21726.712   -1773.0351    425.66047    39.470314    39.200365    23.678285 
   91400    233.91526   -450.18884    216156.16   -20194.968     1481.671   -21676.639   -1264.1526    424.50262    39.466829    39.198127    23.668926 
   91600    237.22004   -302.22924    216156.16   -20076.104    1502.6042   -21578.708   -595.52957    426.11415    39.464726    39.193955    23.647461 
   91800    241.14685   -412.45263    216156.16     -20131.6    1527.4776   -21659.077   -1125.7594    425.27382    39.464718    39.191935    23.622816 
   92000    244.37362   -380.12737    216156.16   -20179.146    1547.9166   -21727.063   -942.61038    427.07964    39.465744    39.189419    23.623241 
   92200    235.94363   -196.14468    216156.16   -20192.878    1494.5192   -21687.397    -107.3232    426.78015    39.468226     39.19285    23.622544 
   92400    239.91124   -308.60218    216156.16   -20162.813    1519.6509   -21682.464   -707.41037    428.39813    39.467223    39.193256    23.637011 
   92600    240.29779    -377.6882    216156.16   -20115.152    1522.0994   -21637.251   -986.69953    430.31267    39.466043    39.193917    23.627754 
   92800    229.06853   -395.20483    216156.16    -20151.63    1450.9708   -21602.601   -1007.0568    431.59421    39.465942    39.197228    23.627608 
   93000    233.15858    -542.5657    216156.16   -20179.791    1476.8781   -21656.669   -1654.5468    431.62433    39.466787    39.197276    23.633171 
   93200     234.2491   -422.44652    216156.16   -20165.132    1483.7856   -21648.918   -1123.4989    432.19724    39.468302    39.196639    23.643021 
   93400    228.80675   -451.64277    216156.16   -20249.801    1449.3126   -21699.114     -1264.09    431.15803    39.465791    39.196397    23.645154 
   93600    240.27943   -411.38539    216156.16   -20212.412    1521.9831   -21734.396     -1111.83    431.06352    39.466963    39.196566    23.671908 
   93800     228.4217   -393.93137    216156.16   -20228.353    1446.8736   -21675.226   -1029.8648    430.15673    39.467234    39.196038    23.677528 
   94000    234.34134   -368.73325    216156.16   -20203.664    1484.3699   -21688.034   -925.27846    429.48043    39.464951    39.195353    23.673555 
   94200    233.43637   -330.95974    216156.16   -20130.904    1478.6376   -21609.541   -775.69016     430.1289    39.465099    39.195744    23.658953 
   94400    236.92734   -442.48309    216156.16   -20191.626    1500.7502   -21692.376   -1215.3701    432.27126    39.468172    39.195493    23.648246 
   94600    232.51588   -413.31495    216156.16     -20176.3     1472.807   -21649.107   -1093.5757    431.67046    39.470861    39.194739    23.653079 
   94800    236.67021   -153.53365    216156.16   -20165.048    1499.1215   -21664.169    6.3640992    431.43115    39.471956     39.19414    23.623212 
   95000    233.94661   -502.67257    216156.16   -20250.857    1481.8696   -21732.726   -1478.5174    433.91859    39.472839    39.192535     23.61434 
   95200    228.94284   -515.49568    216156.16   -20231.682    1450.1746   -21681.857   -1543.5265     434.6894    39.471938    39.194577    23.603952 
   95400    238.61193   -482.29705    216156.16   -20170.188    1511.4208   -21681.609   -1374.6557    435.29513    39.470948    39.197233    23.618774 
   95600    231.67662   -271.19273    216156.16   -20188.716     1467.491   -21656.207   -510.51036    436.47255    39.470672    39.199184    23.626321 
   95800    235.22221   -363.56891    216156.16   -20186.892    1489.9496   -21676.841   -917.20731    435.64759    39.469271    39.199621    23.622272 
   96000    236.44842   -226.76842    216156.16   -20151.708    1497.7166   -21649.424   -291.74753    436.99799    39.470128    39.199271    23.618269 
   96200    238.00797   -432.83184    216156.16   -20111.832    1507.5952   -21619.427   -1176.9406    437.58193    39.467966    39.197725    23.649855 
   96400    234.94762   -567.85238    216156.16   -20177.565    1488.2102   -21665.775   -1779.7064    438.18022    39.467802    39.197461    23.668876 
   96600    236.82639   -526.07605    216156.16   -20215.981    1500.1108   -21716.092   -1581.6526    437.38967    39.469505    39.194299    23.668155 
   96800    228.88388   -454.77089    216156.16   -20163.477    1449.8011   -21613.278   -1262.4473    437.34819    39.470168    39.192169    23.673462 
   97000     234.1357   -437.97524    216156.16   -20204.504    1483.0674   -21687.572   -1183.7691    437.24746    39.473005    39.191027    23.671598 
   97200    229.05444   -472.47385    216156.16   -20207.896    1450.8816   -21658.777   -1324.7449     436.7816    39.474614    39.188677    23.673528 
   97400    238.64871   -475.06344    216156.16   -20189.597    1511.6538   -21701.251    -1356.324    437.32927    39.473706    39.186976    23.669401 
   97600    235.93884   -348.97274    216156.16   -20144.247    1494.4888   -21638.735   -801.19527    438.45818    39.474007    39.187482    23.659552 
   97800    237.34234   -258.21601    216156.16   -20146.199    1503.3789   -21649.578    -424.4299     439.5821    39.472922    39.187259    23.666857 
   98000    231.77347   -334.64179    216156.16   -20190.919    1468.1044   -21659.024   -744.77932    440.60884    39.471147    39.189871    23.668043 
   98200    235.15666   -421.95739    216156.16   -20209.422    1489.5343   -21698.956   -1137.5754    441.02859    39.468007    39.192091    23.688826 
   98400    235.48881   -393.39936    216156.16   -20165.185    1491.6382   -21656.823   -992.33423    442.74159    39.469216    39.194151    23.697901 
   98600    233.15317   -423.90523    216156.16    -20159.06    1476.8438   -21635.904   -1149.1689    441.64316    39.471315    39.196727    23.705309 
   98800    233.70824   -383.38764    216156.16   -20112.411    1480.3597   -21592.771   -989.71346    444.40105    39.470624     39.19573    23.731172 
   99000    232.28576   -395.69097    216156.16   -20198.813    1471.3494   -21670.162    -1008.895    447.04822    39.468166    39.195213    23.736698 
   99200    231.62173   -411.84051    216156.16    -20160.03    1467.1433   -21627.174     -1080.41    444.56469    39.467053    39.191308     23.74507 
   99400    232.29617   -190.22759    216156.16    -20128.15    1471.4154   -21599.565   -127.24456    445.65316    39.466075    39.190019    23.737783 
   99600    234.64088   -379.17647    216156.16   -20138.889    1486.2673   -21625.156   -959.98748    449.82831    39.466156    39.188195    23.717696 
   99800    232.74867   -425.53594    216156.16   -20180.242    1474.2816   -21654.524   -1185.1574    450.24164    39.467674    39.187953    23.719516 
  100000    229.55724   -370.95906    216156.16   -20150.097    1454.0664   -21604.163   -923.13751    451.35825    39.465487    39.186107    23.746686 
  100200     231.9842   -456.32713    216156.16   -20224.347    1469.4393   -21693.786   -1302.9022    451.74191    39.463946    39.184932    23.774279 
  100400    236.21612   -401.79946    216156.16   -20128.004    1496.2452   -21624.249   -1057.3817    453.29669    39.462737    39.184921    23.783871 
  100600     240.9638   -444.72104    216156.16   -20143.778     1526.318   -21670.097   -1268.2731    454.15398    39.460115    39.185729    23.799376 
  100800    231.39209   -373.01255    216156.16   -20218.371    1465.6887   -21684.059   -915.38912    454.27687    39.460202    39.186735    23.800491 
[...]
 3976000    228.09837   -272.16093    216156.16   -22151.658    1444.8256   -23596.483   -506.61267    3386.8781    39.039414    39.340245    23.645369 
 3976200    221.06557   -210.74379    216156.16   -22152.251    1400.2782   -23552.529   -221.35568    3387.4413    39.041557    39.339472      23.6526 
 3976400    218.30719   -322.62657    216156.16    -22152.73    1382.8061   -23535.537   -709.03567    3387.8157    39.042268    39.338857     23.65261 
 3976600    222.51367   -218.68069    216156.16   -22156.981    1409.4508   -23566.432   -245.38849    3386.4304    39.042334    39.338211    23.657915 
 3976800    223.67449   -120.66278    216156.16   -22119.117    1416.8037   -23535.921    180.77338    3387.2549    39.041153    39.338892    23.657307 
 3977000    217.23281   -222.89603    216156.16   -22211.912    1376.0007   -23587.912   -262.96704    3387.5899    39.041855     39.33938    23.658643 
 3977200    227.13326   -133.38354    216156.16   -22128.052    1438.7123   -23566.764    125.17913    3386.5355    39.041803     39.33997    23.659015 
 3977400    217.86878   -165.11811    216156.16    -22129.19    1380.0291   -23509.219    -15.30871    3386.2983    39.041296    39.339488    23.651081 
 3977600    219.19366   -284.35811    216156.16   -22153.878    1388.4212   -23542.299   -533.51356    3386.8741    39.042367    39.340034    23.655916 
 3977800    222.34864   -231.86038    216156.16   -22156.314    1408.4055    -23564.72   -299.34466    3385.6986     39.04305    39.340158    23.659635 
 3978000    218.57077   -191.57264    216156.16   -22178.501    1384.4756   -23562.977   -172.32585    3384.7509    39.043652    39.341515     23.65536 
 3978200    230.95005   -259.26154    216156.16   -22122.703    1462.8887   -23585.592     -420.931    3386.5186    39.042535    39.341867    23.646882 
 3978400    224.39047   -235.16375    216156.16   -22183.491    1421.3389    -23604.83   -309.28909    3384.9916    39.042052    39.342062    23.648988 
 3978600    228.19346   -209.57944    216156.16   -22139.946    1445.4279   -23585.374   -236.25178    3384.8881      39.0427    39.342105     23.64595 
 3978800    227.91238   -131.65071    216156.16     -22119.9    1443.6474   -23563.547    95.043542    3384.9917    39.043106    39.341636    23.650445 
 3979000    225.22707   -254.37264    216156.16   -22149.184    1426.6381   -23575.822   -364.57566    3385.3812    39.042682    39.342513    23.646916 
 3979200    223.12555   -330.71074    216156.16   -22178.894    1413.3267   -23592.221   -740.92776    3385.8736    39.043752    39.343649    23.644865 
 3979400    227.40049   -143.10823    216156.16   -22138.885     1440.405    -23579.29    23.559842    3385.4668    39.043664    39.345485    23.648704 
 3979600    221.25114   -112.84081    216156.16   -22158.511    1401.4537   -23559.965    194.97875    3385.8273    39.042656    39.345519    23.649315 
 3979800     218.4193   -325.74558    216156.16   -22148.492    1383.5162   -23532.008   -726.02794    3386.9778    39.042676    39.347448    23.645128 
 3980000    221.67646   -217.66877    216156.16   -22156.879    1404.1478   -23561.026   -270.12404    3385.7753    39.040233    39.348726    23.646066 
 3980200    223.20752   -90.747489    216156.16   -22156.005    1413.8458   -23569.851    284.74553    3385.0037    39.038778    39.350806    23.647872 
 3980400    228.82279   -200.75168    216156.16   -22119.589    1449.4142   -23569.003   -162.03597    3385.9902    39.037554    39.350942    23.650875 
 3980600    231.07146   -373.50034    216156.16   -22081.048    1463.6578   -23544.706    -904.8372    3385.5867    39.035336    39.351863    23.646619 
 3980800    231.33769   -219.35778    216156.16    -22109.63    1465.3441   -23574.974    -259.5714    3386.9243    39.035088    39.354494    23.651238 
 3981000    224.25882   -169.25589    216156.16   -22132.363     1420.505   -23552.868   -33.502519    3386.2181    39.035197    39.356736    23.648954 
 3981200    226.23093   -213.89065    216156.16   -22126.033    1432.9968    -23559.03   -232.60347    3386.4298    39.034118    39.357109    23.650802 
 3981400    226.99642   -131.18345    216156.16   -22113.951    1437.8455   -23551.797    126.76485     3386.357    39.033291    39.358664    23.654838 
 3981600    221.39219   -135.76799    216156.16   -22162.523    1402.3471    -23564.87    117.35555    3385.8042    39.033957    39.359409    23.656691 
 3981800    223.35618   -286.61011    216156.16   -22143.201    1414.7875   -23557.988    -551.1049    3386.7137    39.031628    39.361397    23.657636 
 3982000    219.85541   -208.00806    216156.16   -22185.158    1392.6128   -23577.771   -180.42379    3386.9205     39.03138    39.362156    23.660229 
 3982200    220.43295   -112.79205    216156.16   -22236.041    1396.2711   -23632.312    231.24037    3385.8699    39.031482     39.36208    23.656246 
 3982400    218.14424   -230.94205    216156.16   -22148.097    1381.7739   -23529.871   -354.08472    3386.0191    39.028532    39.363769    23.661554 
 3982600     227.8379   -322.87863    216156.16   -22154.931    1443.1757   -23598.106    -728.1098    3387.2612    39.028276     39.36464    23.658929 
 3982800    226.00149   -204.16464    216156.16   -22111.959    1431.5435   -23543.502    -209.0675    3386.7201    39.028897    39.365482    23.665806 
 3983000     227.3824   -215.83098    216156.16   -22088.435    1440.2904   -23528.726   -256.95094    3386.0899    39.028932    39.366772    23.660714 
 3983200     223.7609   -268.83488    216156.16   -22116.896     1417.351   -23534.247   -482.15493    3386.5091    39.029171    39.367199    23.662528 
 3983400    230.24861   -188.42393    216156.16   -22087.796    1458.4456   -23546.242   -113.61829     3386.478    39.028136    39.366924    23.655621 
 3983600    223.01012   -158.62311    216156.16   -22156.729    1412.5955   -23569.325   -24.189395     3386.304    39.027873    39.367583    23.661365 
 3983800    226.33114   -254.99252    216156.16   -22144.631    1433.6316   -23578.263   -382.61351    3386.7497    39.026072    39.368809    23.660249 
 3984000    222.89121   -244.34391    216156.16   -22131.378    1411.8423    -23543.22   -349.43099    3386.5169    39.025295    39.367853    23.653748 
 3984200    227.70086   -133.85132    216156.16   -22121.423    1442.3077   -23563.731    111.65101    3385.4095    39.024971    39.367937    23.651681 
 3984400    217.42422   -224.08771    216156.16   -22161.827    1377.2131    -23539.04   -271.72803    3385.6253    39.024216    39.368481    23.653164 
 3984600    226.46714   -178.45226    216156.16   -22172.486     1434.493   -23606.979   -102.23956    3386.2304    39.023258    39.368166    23.653438 
 3984800     223.9503   -213.75001    216156.16   -22137.173    1418.5508   -23555.723   -262.71722    3386.3284    39.021206    39.369023    23.661538 
 3985000    221.75186   -309.39649    216156.16    -22179.96    1404.6254   -23584.585   -638.50618    3387.0103    39.018895    39.369001     23.65946 
 3985200    221.80563   -147.20537    216156.16   -22128.116    1404.9659   -23533.082    34.778835    3385.5942    39.017646    39.368823    23.658784 
 3985400    226.97216   -116.37263    216156.16   -22138.564    1437.6919   -23576.256    147.96354    3386.9114    39.016681    39.370382    23.658668 
 3985600     227.7048   -211.56054    216156.16   -22093.421    1442.3326   -23535.754   -211.98709    3387.4642    39.016668    39.371025    23.660261 
 3985800    227.13425   -262.63373    216156.16   -22119.379    1438.7186   -23558.098   -436.37351    3387.6804    39.015338    39.372033    23.662252 
 3986000    227.74153   -180.34999    216156.16   -22040.902    1442.5653   -23483.468   -91.354632    3386.7394    39.016372    39.372273    23.666367 
 3986200    225.52643   -196.01861    216156.16   -22075.341    1428.5343   -23503.875   -119.98701    3386.4565    39.017077    39.371882    23.672571 
 3986400    223.12906   -216.97389    216156.16   -22171.881    1413.3488    -23585.23   -238.60038    3386.4922    39.016506    39.373303    23.672875 
 3986600    226.89291    -222.8218    216156.16   -22125.313    1437.1899   -23562.503   -228.77502    3386.6443    39.016287     39.37446    23.669726 
 3986800    224.14208   -232.38968    216156.16   -22137.823    1419.7656   -23557.589   -321.47528    3386.3302    39.014844    39.374992    23.672971 
 3987000    223.92325   -138.57324    216156.16   -22108.728    1418.3795   -23527.107    65.212121    3386.4472    39.015242    39.377358    23.669244 
 3987200    219.74592   -184.15852    216156.16   -22206.302    1391.9193   -23598.222    -145.5278    3386.8976    39.015458    39.377602    23.667032 
 3987400    223.19918   -217.02299    216156.16   -22156.657     1413.793    -23570.45    -253.3995    3387.2948    39.015079    39.379072    23.675623 
 3987600    230.08759   -234.86145    216156.16   -22101.495    1457.4257   -23558.921   -361.96717    3386.9919     39.01415    39.380349     23.67675 
 3987800    223.61449   -307.31122    216156.16   -22146.005    1416.4237   -23562.428   -677.74921    3387.3009    39.014267    39.381769    23.673306 
 3988000    228.36094   -207.61157    216156.16   -22091.038    1446.4887   -23537.527    -221.0012    3387.2817    39.014722    39.382484    23.675094 
 3988200    230.65395   -141.83568    216156.16   -22127.655    1461.0132   -23588.669    83.536973    3385.5176    39.015242    39.382103    23.671504 
 3988400    227.06592   -221.01267    216156.16   -22119.492    1438.2858   -23557.778   -295.24627    3386.8681    39.014955    39.383224    23.669299 
 3988600     224.0776   -369.87523    216156.16   -22174.795    1419.3571   -23594.152    -915.8787    3387.2089    39.013897    39.384143    23.677402 
 3988800    222.08793   -184.86808    216156.16   -22178.679    1406.7541   -23585.433     -103.143    3386.7209    39.014126    39.385208      23.6802 
 3989000    227.02784   -150.07066    216156.16   -22099.175    1438.0446    -23537.22    64.758437    3386.9426    39.013909    39.385601    23.682864 
 3989200    225.10011   -362.49038    216156.16   -22129.046    1425.8339    -23554.88   -871.87861    3388.4873     39.01534    39.385611    23.679574 
 3989400    224.39152   -227.64597    216156.16   -22166.831    1421.3456   -23588.176   -293.22962    3388.1409    39.014536    39.386983    23.675939 
 3989600    228.58291   -121.12192    216156.16   -22083.707    1447.8948   -23531.601    143.95276    3385.4994    39.012897    39.388069     23.67688 
 3989800    227.60706   -222.45795    216156.16   -22129.151    1441.7135   -23570.864   -271.12376    3387.2519    39.012558     39.38813    23.676854 
 3990000    221.97374   -287.05856    216156.16   -22173.337    1406.0308   -23579.368   -554.18801    3388.0651    39.011924    39.388811    23.676945 
 3990200    225.46445   -243.52595    216156.16    -22161.55    1428.1417   -23589.692    -361.8955    3386.9263    39.012536    39.388634     23.67465 
 3990400    225.38587   -114.23015    216156.16    -22128.72     1427.644   -23556.364    212.41661    3386.4988    39.011988    39.388737    23.678203 
 3990600    220.63292   -164.06262    216156.16   -22158.704    1397.5378   -23556.242   -31.503593    3386.0714    39.011605    39.388554    23.678564 
 3990800    227.84991    -197.4872    216156.16   -22127.051    1443.2518   -23570.303   -175.68755    3386.6263    39.011744    39.388132    23.681728 
 3991000    231.77807   -210.67583    216156.16   -22105.036    1468.1336    -23573.17   -243.31791    3386.7509     39.01147     39.38939    23.674835 
 3991200    232.50853   -292.21844    216156.16    -22087.44    1472.7605   -23560.201   -576.32091     3387.071    39.012374    39.389765    23.675191 
 3991400     230.5103   -243.50026    216156.16   -22082.955    1460.1033   -23543.058   -371.51632    3387.0176    39.012836    39.390168    23.681485 
 3991600     226.7143   -142.60923    216156.16   -22133.563    1436.0586   -23569.622    45.581787    3385.5634    39.012341     39.38991    23.677077 
 3991800    220.84458   -135.36933    216156.16   -22196.994    1398.8784   -23595.872    59.506079    3385.8433    39.010959    39.390046    23.678876 
 3992000    227.75096   -236.82968    216156.16   -22138.235     1442.625    -23580.86   -315.27372    3386.8122    39.010367    39.391423    23.675948 
 3992200    224.38974   -249.94134    216156.16    -22125.38    1421.3343   -23546.715    -373.8776    3386.4851    39.011141    39.392304    23.679958 
 3992400    228.03773   -153.61232    216156.16   -22139.226    1444.4415   -23583.667    18.448001    3385.7916    39.010618    39.395117    23.679158 
 3992600    222.42699   -168.37188    216156.16   -22137.295    1408.9018   -23546.197   -56.694377    3386.2415    39.010123    39.396309    23.681203 
 3992800    226.24198   -266.41691    216156.16   -22128.684    1433.0668    -23561.75   -483.09428    3387.3036    39.010716    39.395784    23.682292 
 3993000    218.22898   -205.06936    216156.16   -22219.005    1382.3107   -23601.316   -210.56001     3386.175    39.009664    39.396359    23.678733 
 3993200    225.29811   -260.57027    216156.16   -22132.872    1427.0881    -23559.96   -427.33657    3386.7413    39.008688    39.397052    23.676105 
 3993400    226.99029   -130.05886    216156.16   -22094.324    1437.8068    -23532.13    122.21061    3385.3824    39.009114    39.396671    23.673648 
 3993600    230.10031   -130.02546    216156.16   -22112.902    1457.5063   -23570.408    146.22941    3386.1658     39.00913    39.397734    23.682219 
 3993800    222.37748   -186.11412    216156.16   -22127.637    1408.5882   -23536.225   -90.963408    3386.2095    39.006989    39.397902     23.68342 
 3994000    222.86877   -246.91153    216156.16    -22140.16    1411.7001    -23551.86   -379.27391    3384.9986     39.00605    39.397729    23.680648 
 3994200    222.03104   -326.37682    216156.16   -22160.064    1406.3937   -23566.458    -717.1115    3387.3554    39.004794    39.398178    23.677873 
 3994400      227.121   -194.42772    216156.16   -22132.136    1438.6347   -23570.771   -174.03047    3386.0746    39.003067    39.398937    23.676569 
 3994600    217.10211   -144.64728    216156.16   -22186.508    1375.1728   -23561.681    73.141326    3385.8119    39.002501    39.401232     23.68198 
 3994800    228.62539    -229.4998    216156.16   -22096.444    1448.1638   -23544.607   -284.42331    3386.1292     39.00095    39.402242    23.676435 
 3995000     224.7741   -258.39718    216156.16   -22099.413    1423.7689   -23523.182   -394.69247    3386.5592    39.001079    39.401902    23.679643 
 3995200     229.1136   -234.09088    216156.16   -22157.022    1451.2562   -23608.279    -317.4919    3387.1098    39.000695    39.402784    23.688826 
 3995400    230.98629   -175.73271    216156.16   -22102.888    1463.1183   -23566.007   -37.598674    3385.1535    39.000125    39.404957    23.684254 
 3995600    231.60014    -178.9741    216156.16    -22043.74    1467.0065   -23510.747   -103.01007    3385.5768    39.000522      39.4058    23.678865 
 3995800    225.83003   -252.57825    216156.16   -22065.999    1430.4574   -23496.457   -372.63844    3387.2705    39.000667    39.406711    23.680764 
 3996000    230.60291   -220.00903    216156.16   -22019.276    1460.6899   -23479.966     -258.214    3386.0501     38.99955    39.407681     23.68175 
 3996200    227.13409   -204.85819    216156.16   -22104.574    1438.7176   -23543.292   -212.20613    3385.7934    38.999468    39.409567    23.685848 
 3996400    224.55376   -150.06491    216156.16   -22136.635    1422.3732   -23559.008    15.800526    3385.2197     38.99897    39.410159    23.679952 
 3996600    228.90684   -117.01564    216156.16   -22108.429    1449.9466   -23558.375    176.81376    3385.8565    38.999281    39.411588     23.67913 
 3996800    218.92393   -193.93837    216156.16    -22146.61    1386.7126   -23533.323   -140.63503    3386.8356    38.998152    39.413053    23.676233 
 3997000     237.5489   -283.06791    216156.16   -22037.589    1504.6873   -23542.276   -537.08657     3386.958    38.997693    39.414951    23.682896 
 3997200    234.49553   -173.16486    216156.16   -22113.102    1485.3466   -23598.449   -68.237843    3386.1396    38.995917    39.415457    23.678655 
 3997400    224.75741   -96.835782    216156.16   -22170.961    1423.6632   -23594.624    257.63979    3385.9105    38.995429    39.417491    23.684706 
 3997600    225.71434   -195.20537    216156.16   -22090.158    1429.7246   -23519.883   -160.62409     3385.512    38.994456    39.418834    23.688624 
 3997800    220.39061   -337.67458    216156.16   -22212.989    1396.0029   -23608.992   -738.22483    3387.6986    38.994555     39.42079    23.683729 
 3998000     225.1625    -171.0642    216156.16    -22135.16    1426.2291   -23561.389   -65.348491    3386.8549    38.994176    39.422961    23.687117 
 3998200    219.93478   -221.74684    216156.16   -22170.964    1393.1156    -23564.08   -272.87236    3386.4945    38.994692     39.42397    23.694549 
 3998400    226.21459   -236.34637    216156.16   -22029.928    1432.8933   -23462.822   -304.34246    3386.8521    38.995304     39.42524      23.6931 
 3998600    227.21405   -304.25834    216156.16   -22120.314    1439.2241   -23559.538   -616.64321    3388.0758    38.996412    39.428683    23.691276 
 3998800    224.08885   -222.20747    216156.16   -22120.762    1419.4284    -23540.19   -270.52259    3388.6872     38.99727     39.43038    23.694683 
 3999000     225.2346   -114.00806    216156.16   -22068.971    1426.6858   -23495.657    156.64763    3387.8437    38.995891    39.431941     23.69875 
 3999200     227.2577   -183.66652    216156.16   -22123.954    1439.5005   -23563.455   -45.791056    3387.6224    38.995487    39.433551     23.69061 
 3999400      215.932   -309.74578    216156.16   -22162.448    1367.7611   -23530.209   -656.68507    3388.1114    38.995845    39.436054     23.69145 
 3999600    221.91635   -232.47277    216156.16   -22175.394    1405.6673   -23581.061   -270.43617    3388.2069    38.995856    39.437349    23.693044 
 3999800    229.79857   -185.41819    216156.16   -22098.462     1455.595   -23554.057    -79.38633    3387.3646    38.994667    39.438858    23.686785 
 4000000    225.77222   -148.50664    216156.16    -22100.34    1430.0912   -23530.431    58.234825    3386.3912    38.993519    39.440388    23.685503 
Loop time of 5593.54 on 64 procs for 4000000 steps with 9422 atoms

Performance: 617.856 ns/day, 0.039 hours/ns, 715.111 timesteps/s
99.0% CPU use with 64 MPI tasks x no OpenMP threads

MPI task timing breakdown:
Section |  min time  |  avg time  |  max time  |%varavg| %total
---------------------------------------------------------------
Pair    | 2.9308     | 1755.4     | 3914.5     |3613.2 | 31.38
Neigh   | 4.4068     | 203.56     | 430.47     |1110.3 |  3.64
Comm    | 668.44     | 2067.8     | 4000.4     |2575.5 | 36.97
Output  | 125.23     | 125.51     | 125.94     |   1.5 |  2.24
Modify  | 276.76     | 1327.7     | 4191.5     |4168.2 | 23.74
Other   |            | 113.5      |            |       |  2.03

Nlocal:        147.219 ave         283 max           0 min
Histogram: 16 0 1 15 0 0 0 7 12 13
Nghost:        827.359 ave        1023 max         637 min
Histogram: 13 10 9 0 0 0 1 12 8 11
Neighs:         0.00000 ave           0 max           0 min
Histogram: 64 0 0 0 0 0 0 0 0 0
FullNghs:      14879.2 ave       31732 max           0 min
Histogram: 16 16 0 0 0 0 0 7 13 12

Total # of neighbors = 952268
Ave neighs/atom = 101.06856
Neighbor list builds = 416811
Dangerous builds = 0
write_data 		${DIR}/data.${NAME}_run
write_data 		run_6/data.${NAME}_run
write_data 		run_6/data.ibeam_cooling_6_run
System init for write_data ...
Total wall time: 1:33:27
