
# Set production fixes - Nose/Hoover
#
fix                 4 water temp/csvr ${START_TEMP} ${END_TEMP} 500.0 928347
fix                 4 water temp/csvr 240 ${END_TEMP} 500.0 928347
fix                 4 water temp/csvr 240 227 500.0 928347


## divide "droplet" into core and surface
#region		core_reg cylinder z 135 135 44.6 20 INF units box
#region		surface_reg cylinder z 135 135 44.6 20 INF units box side out
#group		core dynamic all region core_reg
#group		surface dynamic all region surface_reg

## compute pressure core
#compute        peratom_core core stress/atom NULL
#compute        p_core core reduce sum c_peratom_core[1] c_peratom_core[2] c_peratom_core[3]
#variable       press_core equal -(c_p_core[1]+c_p_core[2]+c_p_core[3])/(3*1249982.5)


## compute pressure surface
#compute        peratom_surf surface stress/atom NULL
#compute        p_surf surface reduce sum c_peratom_surf[1] c_peratom_surf[2] #c_peratom_surf[3]
#variable       press_surf equal -(c_p_surf[1]+c_p_surf[2]+c_p_surf[3])/(3*42395)

## compute total pressure of drop
compute        peratom water stress/atom NULL
compute        p water reduce sum c_peratom[1] c_peratom[2] c_peratom[3]
variable       press equal -(c_p[1]+c_p[2]+c_p[3])/(3*58301)


# compute order parameter
compute        3 all orientorder/atom nnn NULL cutoff 3.5

# compute center of mass of bridge
compute 	4 water com

# Run simulation
thermo_style        custom step c_2 press vol etotal ke pe v_press c_1[4] c_4[*]
thermo              200
dump		     1 water custom 400 ${DIR}/prod.${NAME}.dump id type x y z vx vy vz c_3[*] c_peratom[*]
dump		     1 water custom 400 run_30/prod.${NAME}.dump id type x y z vx vy vz c_3[*] c_peratom[*]
dump		     1 water custom 400 run_30/prod.ibeam_cooling_30.dump id type x y z vx vy vz c_3[*] c_peratom[*]
run                 ${STEPS}
run                 5200000
Neighbor list info ...
  update every 1 steps, delay 0 steps, check yes
  max neighbors/atom: 2000, page size: 100000
  master list distance cutoff = 6.67472
  ghost atom cutoff = 6.67472
  binsize = 3.33736, bins = 57 9 12
  2 neighbor lists, perpetual/occasional/extra = 1 1 0
  (1) pair sw, perpetual
      attributes: full, newton on
      pair build: full/bin/atomonly
      stencil: full/bin/3d
      bin: standard
  (2) compute orientorder/atom, occasional, copy from (1)
      attributes: full, newton on
      pair build: copy
      stencil: none
      bin: none
Per MPI rank memory allocation (min/avg/max) = 0.8629 | 6.058 | 7.205 Mbytes
Step c_2 Press Volume TotEng KinEng PotEng v_press c_1[4] c_4[1] c_4[2] c_4[3] 
       0    242.62052   -415.18254    204420.41   -23211.419    1761.0058   -24972.425    -933.0156    35.472745    95.093693    14.525582    27.891441 
     200    241.38376    17.390919    204420.41   -23236.282    1752.0291   -24988.311     560.4049    36.864619    95.093205    14.528027    27.902139 
     400    246.26115   -418.25774    204420.41   -23219.863    1787.4305   -25007.294   -960.04969    38.503097    95.093208    14.526619    27.893512 
     600    249.52601     -509.333    204420.41   -23136.131    1811.1278   -24947.259   -1254.8799    40.128187    95.094315    14.523623     27.90955 
     800    249.45255   -238.04864    204420.41   -23182.479    1810.5946   -24993.074   -334.41165    42.134701    95.093328    14.524575    27.922291 
    1000     238.6556    -530.6087    204420.41   -23237.552    1732.2273   -24969.779   -1354.9985    45.165293    95.093502    14.523509    27.935995 
    1200    242.87667   -420.54727    204420.41    -23189.73    1762.8651   -24952.596   -977.20212    46.839567    95.093342    14.523426    27.951097 
    1400    245.96703   -318.28745    204420.41    -23222.72    1785.2957   -25008.016   -623.92399     47.76411    95.093435    14.522085     27.93202 
    1600    243.31902   -213.81318    204420.41   -23206.576    1766.0757   -24972.651    -228.1556     49.71874    95.093541    14.520188    27.936196 
    1800    240.01422   -301.26827    204420.41   -23154.996    1742.0886   -24897.084    -515.0497    52.212446    95.095361    14.519942    27.934576 
    2000    242.11955   -308.62037    204420.41   -23075.959    1757.3696   -24833.328   -567.88817    55.049563     95.09528    14.519295    27.943561 
    2200     238.1716   -270.39226    204420.41   -23178.735    1728.7143   -24907.449   -422.09503    56.831314    95.095772    14.518364    27.920522 
    2400    243.70691   -256.06967    204420.41   -23189.714    1768.8911   -24958.605   -363.02377    58.317627    95.094503     14.51868    27.914076 
    2600    236.59697   -556.65136    204420.41   -23256.038    1717.2853   -24973.324   -1462.1129    60.302726    95.096784    14.517041    27.935132 
    2800    240.58367   -194.21497    204420.41   -23169.158    1746.2218   -24915.379   -147.36029    61.743881    95.096848    14.518442     27.94613 
    3000    236.16905   -347.35863    204420.41   -23202.376    1714.1793   -24916.555   -718.62385    64.924274    95.096726    14.515383    27.960149 
    3200    234.36707   -526.24127    204420.41   -23234.643    1701.1001   -24935.743   -1325.1127    66.004041    95.097136    14.514289     27.97559 
    3400      240.285   -177.26992    204420.41   -23229.354     1744.054   -24973.408   -105.99122    66.770958    95.097133    14.513334    27.981983 
    3600    238.45434   -307.51811    204420.41   -23206.074    1730.7666    -24936.84   -553.16029    68.767476    95.098002    14.514487    27.984893 
    3800    237.68136   -384.39738    204420.41   -23157.223    1725.1561    -24882.38   -810.92422    69.878802    95.098805    14.514299    27.982226 
    4000     242.1109   -265.00997    204420.41   -23222.514    1757.3069   -24979.821   -397.13616    71.450935     95.09815     14.51694     27.99196 
    4200    243.63008    -350.1493    204420.41   -23194.725    1768.3335   -24963.059    -666.8403    72.119762     95.09881    14.516912    27.976381 
    4400    239.01224   -183.34511    204420.41   -23248.931     1734.816   -24983.747   -115.16664    72.931542    95.100345    14.519282    27.997902 
    4600    234.97894   -511.13142    204420.41   -23345.471    1705.5412   -25051.013   -1274.6414    73.544462    95.100046    14.517376     27.98708 
    4800    241.75875   -431.41469    204420.41   -23252.339    1754.7509   -25007.089   -1000.6803    74.007089    95.099528    14.516031    27.974839 
    5000      239.189   -365.94918    204420.41   -23308.583    1736.0989   -25044.682   -739.78645    75.026619    95.098955    14.517268    27.958729 
    5200    237.68673    -632.4183    204420.41   -23276.516     1725.195   -25001.711   -1685.3461     76.64302    95.098681    14.516925     27.94913 
    5400    237.88371   -220.09834    204420.41    -23277.88    1726.6248   -25004.505   -268.59397    79.081129    95.099289    14.519355     27.96161 
    5600     242.0317   -303.27728    204420.41   -23270.768     1756.732     -25027.5    -555.8686    79.424315    95.097906    14.518916    27.961907 
    5800    243.48059   -544.15864    204420.41   -23201.633    1767.2485   -24968.881   -1358.6402     80.49425    95.097428    14.519417     27.96412 
    6000    236.90413   -289.57041    204420.41   -23253.957    1719.5147   -24973.471   -499.24115    82.229259    95.098681    14.517751    27.945736 
    6200    233.12293    -446.9733    204420.41   -23275.664    1692.0697   -24967.734   -1020.6743    83.322666    95.099147    14.512768    27.940528 
    6400    234.31266   -393.07516    204420.41   -23261.742    1700.7051   -24962.447   -812.26466    84.948479     95.09655    14.512093    27.962025 
    6600    239.36205   -444.75732    204420.41   -23276.989     1737.355   -25014.344   -973.90489    85.711506    95.097418      14.5101    27.953243 
    6800    241.46421   -472.48493    204420.41   -23286.482     1752.613   -25039.095   -1127.0812    87.159998    95.095656    14.506756    27.957736 
    7000    241.18549   -349.37327    204420.41   -23265.834      1750.59   -25016.424   -671.27989    87.942112    95.094566    14.506062    27.959403 
    7200    237.07482   -188.04126    204420.41   -23317.346    1720.7536     -25038.1   -124.38677     88.38608    95.093459     14.50462    27.927971 
    7400    237.90427   -99.429909    204420.41   -23269.115     1726.774   -24995.889    196.19238     91.17175    95.091987    14.503258    27.911138 
    7600    244.05729   -330.78856    204420.41   -23215.073    1771.4343   -24986.508   -615.91526    92.150793    95.091926    14.499929    27.901714 
    7800    233.36245    -369.4108    204420.41   -23332.185    1693.8082   -25025.993   -707.25802    92.771515    95.092756    14.499102    27.906721 
    8000     245.9246   -379.79263    204420.41   -23135.424    1784.9877   -24920.412   -772.29851    94.864935    95.091478    14.498325    27.918464 
    8200    239.92923   -261.57505    204420.41   -23154.028    1741.4717     -24895.5   -379.57692    96.649016    95.092985     14.50178    27.914065 
    8400    244.35423   -351.13437    204420.41   -23152.188    1773.5896   -24925.778   -700.41795    99.233166    95.093656    14.504281    27.915818 
    8600    240.33889   -443.71591    204420.41   -23185.837    1744.4451   -24930.282   -1022.6704    101.93813    95.094057    14.503626    27.916204 
    8800    239.26252   -264.02841    204420.41   -23209.432    1736.6326   -24946.064   -375.02525    102.62573    95.094582    14.501982    27.937301 
    9000    245.18001   -268.94756    204420.41   -23210.846    1779.5833   -24990.429   -407.05599    104.18833    95.094115    14.500179    27.933001 
    9200     239.5065   -292.62653    204420.41   -23174.447    1738.4034    -24912.85   -482.39289    105.20868    95.094194    14.499848    27.927488 
    9400    233.69986   -362.13425    204420.41   -23204.349    1696.2573   -24900.606   -707.20729    106.88059    95.092287    14.502646    27.915281 
    9600    241.86127   -286.60394    204420.41    -23253.23     1755.495   -25008.724   -465.04638    111.19104    95.091272    14.502448    27.917306 
    9800    235.85404   -498.41228    204420.41   -23159.789    1711.8929   -24871.682   -1184.3928      115.959    95.092277    14.502426    27.925019 
   10000    239.34417   -497.57428    204420.41   -23176.188    1737.2252   -24913.413    -1190.196    120.03961    95.093206    14.506498    27.938276 
   10200    244.84034   -313.71997    204420.41   -23097.121    1777.1179   -24874.239   -558.25117    123.65047    95.094996    14.507664    27.930342 
   10400    241.46007   -333.01381    204420.41   -23092.607     1752.583    -24845.19   -644.69103    126.76421    95.094431    14.503731    27.942248 
   10600    242.28137   -364.56889    204420.41   -23184.252    1758.5442   -24942.796   -750.78796    130.15859    95.094387    14.504623    27.951786 
   10800    237.07012   -464.02226    204420.41   -23270.094    1720.7195   -24990.814     -1084.39    132.65499    95.095502    14.505072    27.967319 
   11000     237.1157    -318.1331    204420.41   -23287.489    1721.0504    -25008.54   -538.06643    133.65656     95.09645    14.507011    27.923744 
   11200    231.76783   -547.50729    204420.41   -23311.801    1682.2341   -24994.035   -1340.9363    133.90722    95.096048    14.506428     27.92663 
   11400    236.42474   -285.72861    204420.41   -23276.825    1716.0352    -24992.86   -443.01588    133.54305    95.096755    14.505239    27.929768 
   11600    245.96991   -350.25836    204420.41   -23151.583    1785.3166     -24936.9   -699.10042    133.42014     95.09772    14.501968     27.94651 
   11800    244.07651   -306.98118    204420.41   -23156.627    1771.5738     -24928.2   -560.35548    134.95483    95.096578    14.502992    27.957211 
   12000    245.23926   -350.34596    204420.41   -23176.458    1780.0133   -24956.471   -672.09932    137.04875    95.095697    14.503262    27.952655 
   12200    246.33238   -355.29888    204420.41   -23170.174    1787.9476   -24958.121   -750.72029    139.16943    95.095042    14.503643    27.985237 
   12400    247.69474   -463.93002    204420.41   -23204.575    1797.8359   -25002.411   -1063.6925    141.29493    95.094295    14.504352    27.974456 
   12600    244.99566   -244.20284    204420.41   -23161.921    1778.2453   -24940.167   -320.21794    144.00105    95.095073    14.503133    27.971637 
   12800    241.84953   -417.98375    204420.41   -23176.574    1755.4098   -24931.983   -889.16419    148.15195    95.096916    14.503739    27.997299 
   13000    239.51923    -294.2521    204420.41   -23218.486    1738.4958   -24956.981   -510.51825    151.26767     95.09597    14.502295    28.007205 
   13200    241.51813   -62.389018    204420.41   -23304.533    1753.0044   -25057.538     280.3005    154.16948    95.095728    14.502434    28.026076 
   13400    239.24318     -543.842    204420.41   -23373.337    1736.4922    -25109.83    -1376.286     155.6999    95.095697    14.501135    28.027187 
   13600    234.64533   -654.35951    204420.41   -23295.136    1703.1198   -24998.256   -1763.1233    157.27931    95.094676    14.502956    28.049988 
   13800    240.52416   -111.25881    204420.41   -23236.202    1745.7899   -24981.992    111.96781    158.00994    95.094511    14.504526    28.060743 
   14000    249.24577   -426.79351    204420.41   -23179.352    1809.0937   -24988.446   -947.16663    158.39657    95.095629    14.507109    28.068037 
   14200    240.45553   -314.77842    204420.41   -23255.684    1745.2918   -25000.976   -576.51705    156.36049    95.096455    14.508289    28.053575 
   14400    236.73995   -187.72294    204420.41   -23311.304     1718.323   -25029.627   -106.75584    155.94887    95.099054     14.50745    28.049617 
   14600     242.0891   -174.26036    204420.41   -23255.483    1757.1486   -25012.631   -62.359846    157.93236    95.101752    14.503607    28.054956 
   14800    240.94361   -155.03438    204420.41   -23194.653    1748.8344   -24943.487   -55.675462    161.10336     95.10254    14.505309    28.043858 
   15000    242.87547   -467.64161    204420.41   -23230.432    1762.8563   -24993.289   -1122.5068    163.91964    95.103071    14.506364    28.083824 
   15200    239.11094   -485.95504    204420.41   -23211.818    1735.5324    -24947.35   -1138.7247    167.15649    95.104315    14.506134    28.087563 
   15400    236.54226   -411.00784    204420.41   -23270.122    1716.8882   -24987.011   -903.53732    170.32189    95.105918    14.503402    28.077927 
   15600    244.89564    -252.9659    204420.41   -23157.397    1777.5193   -24934.916   -346.75569    170.21154    95.104578    14.500463     28.08793 
   15800    239.38311   -279.00708    204420.41   -23138.921    1737.5078   -24876.429   -453.54876    172.31922    95.103922    14.502072    28.080208 
   16000    235.48903   -378.41941    204420.41   -23208.015    1709.2436   -24917.258   -789.96612    173.43167    95.103007    14.503403    28.060836 
   16200    239.26118   -375.40287    204420.41   -23160.165    1736.6229   -24896.788   -785.23289     175.3898    95.103469    14.499503    28.073698 
   16400    239.05888   -220.00207    204420.41   -23228.775    1735.1545   -24963.929   -240.85973     177.6181    95.103118    14.500387    28.090303 
   16600     245.5449   -424.94376    204420.41   -23120.454    1782.2318   -24902.686     -966.301    177.52036    95.104668    14.499615    28.094651 
   16800    237.38236    -262.4737    204420.41   -23161.753    1722.9859   -24884.739   -397.61872    176.67468    95.104241    14.500563    28.090721 
   17000    231.75822    -414.2847    204420.41   -23218.915    1682.1643   -24901.079   -913.82619    176.99228    95.103409    14.501505    28.079684 
   17200    238.83329   -226.46302    204420.41    -23229.06    1733.5171   -24962.577   -233.06925    177.08291    95.103359    14.501614    28.065961 
   17400    235.35584   -405.54214    204420.41   -23316.194    1708.2768   -25024.471   -826.38085    175.77757    95.103639    14.500708    28.075322 
   17600    237.60454   -236.83718    204420.41   -23209.007    1724.5985   -24933.605   -321.60899    177.20336    95.102985    14.498412    28.076922 
   17800    244.46608   -323.22811    204420.41   -23259.427    1774.4014   -25033.828   -564.41955    179.23231    95.101952    14.497484    28.069016 
   18000     244.9858   -382.64973    204420.41   -23202.706    1778.1737    -24980.88   -802.24159    179.73768    95.101886    14.499667    28.059821 
   18200    233.97149   -370.38895    204420.41   -23207.621    1698.2288    -24905.85   -802.08347     179.9615    95.101888    14.500991    28.057713 
   18400    236.21276   -355.23474    204420.41   -23153.156    1714.4966   -24867.652   -712.05313    179.61455    95.102424    14.500872     28.07494 
   18600    237.16863      -418.45    204420.41   -23161.749    1721.4345   -24883.184   -907.54589    179.67818    95.103412    14.500673    28.101441 
   18800    234.21408   -316.44106    204420.41   -23252.337    1699.9896   -24952.327   -607.78037    182.14469    95.102877    14.501665    28.123031 
   19000    242.76918   -429.32683    204420.41   -23205.821    1762.0849   -24967.906   -946.59019    184.14397    95.101339    14.504155    28.101387 
   19200    241.48622   -242.93651    204420.41   -23232.685    1752.7728   -24985.458   -282.30943    185.32582     95.10274    14.504604    28.078241 
   19400    240.66386   -432.65048    204420.41    -23156.98    1746.8039   -24903.784   -977.09868    187.45985     95.10222    14.502094    28.068656 
   19600    241.46679   -301.73895    204420.41   -23164.078    1752.6317    -24916.71   -545.41093    188.60418     95.10155    14.504738    28.068657 
   19800    242.75003   -576.46759    204420.41   -23168.492    1761.9459   -24930.438   -1431.9906    190.60812    95.100438    14.506952      28.0411 
   20000    241.05962   -180.24394    204420.41   -23169.556    1749.6764   -24919.233   -65.624846    191.78928    95.100396     14.50504    28.026907 
   20200    237.53042   -458.63512    204420.41   -23273.335    1724.0605   -24997.395   -1083.3324    195.19437    95.099308    14.501841     28.02536 
   20400    240.86916   -412.33705    204420.41   -23163.166     1748.294    -24911.46   -926.55981    195.80827    95.099114    14.502271     28.03852 
   20600    244.32314    -372.6713    204420.41   -23246.405    1773.3639   -25019.769    -764.9352    196.79752    95.100259    14.502459    28.022556 
   20800    238.21464   -278.13313    204420.41   -23205.025    1729.0268   -24934.051   -441.73973    196.86204     95.10045    14.501874    27.996475 
   21000    238.76602    -497.9379    204420.41   -23225.168    1733.0288   -24958.197   -1209.4338    195.74795    95.100574    14.502475    28.012256 
   21200     242.9949    -374.5914    204420.41   -23225.884    1763.7232   -24989.607   -755.20482    195.17468    95.103086    14.502854    28.006679 
   21400    241.49928   -361.39413    204420.41   -23237.487    1752.8676   -24990.355   -751.84221    196.52415    95.103664    14.501339    28.003514 
   21600    246.89638   -477.25585    204420.41   -23123.275    1792.0412   -24915.316   -1118.9732    197.94095    95.102496    14.503209    28.004614 
   21800    239.58093   -381.33799    204420.41   -23255.675    1738.9437   -24994.619    -793.3549    199.92181    95.101268    14.501365    27.998175 
   22000    234.96732   -401.48851    204420.41   -23295.825    1705.4569   -25001.282   -855.08922    200.82806    95.099863    14.499314    28.015921 
   22200    235.29788   -321.39671    204420.41   -23316.877    1707.8561   -25024.733   -599.41324    202.89249    95.100236     14.49744    28.016399 
   22400    239.57047   -225.14534    204420.41   -23149.689    1738.8678   -24888.557   -238.15384    204.23428     95.09826    14.497275    27.987739 
   22600    242.60204   -503.73828    204420.41   -23227.048    1760.8717    -24987.92   -1288.6821    206.17653    95.098801    14.495182    27.982254 
   22800    244.83377    -314.3248    204420.41   -23226.366    1777.0702   -25003.437   -583.50531    205.55434    95.098346    14.494484    27.995124 
   23000    240.28233   -297.66032    204420.41   -23309.502    1744.0346   -25053.537   -495.48103    207.68485    95.096228    14.494159    27.995161 
   23200    250.14674   -376.32028    204420.41   -23218.395    1815.6332   -25034.028   -815.20828    209.47268    95.095325    14.495826    28.001789 
   23400    249.53273   -298.72693    204420.41    -23206.25    1811.1766   -25017.427    -504.3217    212.19586    95.094217    14.499118     27.98741 
   23600    247.27558   -375.95149    204420.41   -23160.505    1794.7936   -24955.298   -741.89915    215.98526    95.093928    14.499601    27.986185 
   23800     239.7494   -329.47295    204420.41   -23167.858    1740.1664   -24908.025   -622.55823    219.01035    95.093222    14.498965    27.996937 
   24000    239.72742    -354.5679    204420.41   -23206.563    1740.0069    -24946.57   -705.65704    222.27311    95.092791    14.502618    27.991686 
   24200     243.4392   -386.81195    204420.41   -23214.042     1766.948    -24980.99   -832.93146    225.61129     95.09263    14.502683    27.981704 
   24400     236.9555   -381.22659    204420.41   -23279.799    1719.8876   -24999.686   -811.54852    227.27063    95.093848    14.505441    27.975346 
   24600    237.21166    -430.3218    204420.41   -23318.285    1721.7469   -25040.031    -966.5246    229.77958    95.094013    14.506998    27.969512 
   24800    237.79077   -247.57492    204420.41   -23264.614    1725.9502   -24990.564   -306.76746    233.29489    95.095551    14.508889    27.954412 
   25000    240.34425   -174.89799    204420.41   -23263.772     1744.484   -25008.256   -123.81296    235.83435    95.095711    14.511248    27.941802 
   25200    225.65744   -393.74715    204420.41   -23366.257    1637.8832    -25004.14   -833.10849    240.07125    95.094935    14.509977    27.938294 
   25400    237.80861   -426.72007    204420.41    -23254.03    1726.0797    -24980.11   -958.12509    244.01981    95.093498    14.510115    27.938548 
   25600    249.75372   -263.72552    204420.41   -23126.136    1812.7806   -24938.916   -395.71624    245.70654    95.093514    14.508178    27.952874 
   25800    243.77418   -360.04001    204420.41   -23214.908    1769.3794   -24984.287   -716.99545     249.2343    95.092927    14.508093    27.957236 
   26000    241.73774    -284.6756    204420.41   -23263.883    1754.5984   -25018.481   -443.46142    250.88629    95.093137    14.508762    27.951441 
   26200    238.75139   -366.59639    204420.41   -23258.047    1732.9227    -24990.97   -783.16008    251.40316    95.094805    14.508833    27.960908 
   26400    240.25939   -345.47877    204420.41    -23306.06    1743.8681   -25049.928   -696.36191    252.15777    95.092399    14.508957    27.940849 
   26600    238.25914   -342.65861    204420.41   -23222.716    1729.3497   -24952.066   -665.59957    254.18458    95.091514    14.504687    27.970779 
   26800    240.41449    -424.2072    204420.41   -23249.569    1744.9939   -24994.563   -955.06043    255.62717    95.093982    14.503591    27.948439 
   27000     242.3468   -372.26667    204420.41   -23160.714    1759.0191   -24919.733   -777.84589     257.9663    95.096717    14.503919    27.941135 
   27200    238.28636   -400.14684    204420.41    -23256.36    1729.5473   -24985.907   -859.70692    259.54654    95.095679    14.506099    27.930252 
   27400    245.63746   -203.03097    204420.41   -23151.116    1782.9036    -24934.02   -186.57703    261.02412     95.09562    14.509482    27.938671 
   27600    235.59737   -403.13477    204420.41   -23315.081    1710.0299   -25025.111   -884.16479    262.48671    95.094058    14.512059    27.950321 
   27800    244.67104   -519.36099    204420.41   -23199.833    1775.8891   -24975.722    -1298.747    265.63818    95.095183    14.512419    27.943672 
   28000    237.69032   -415.97238    204420.41   -23317.632    1725.2211   -25042.853   -934.68209    266.29378    95.094721     14.51318    27.937925 
   28200    234.95157   -329.11756    204420.41   -23290.178    1705.3425   -24995.521   -586.64636    265.76179    95.094999    14.510452    27.926843 
   28400    242.48079   -198.25799    204420.41   -23280.809    1759.9916   -25040.801   -171.55712    265.89153    95.095868    14.507509    27.932827 
   28600    242.97136   -341.78966    204420.41   -23292.376    1763.5523   -25055.928   -663.18856    267.49414    95.096439     14.50649    27.917745 
   28800    241.18056   -514.96147    204420.41   -23289.708    1750.5542   -25040.262   -1228.4964    269.22694    95.095703    14.505157    27.907678 
   29000    237.19984   -122.17146    204420.41   -23250.026    1721.6611   -24971.687    83.230108    272.25786    95.094573    14.503901    27.904936 
   29200     241.3259   -260.09701    204420.41   -23225.638    1751.6091   -24977.248   -364.91392    274.19573    95.094396    14.501137    27.913361 
   29400    241.93779   -376.22203    204420.41   -23255.183    1756.0504   -25011.233   -800.13719    275.94361    95.095364    14.505965    27.899977 
   29600    238.49101   -358.49212    204420.41   -23271.058    1731.0327    -25002.09    -707.3573    275.52032    95.096727    14.508652    27.897523 
   29800     234.4223   -458.76038    204420.41    -23361.81    1701.5009   -25063.311   -1077.7728    276.52814    95.096563     14.50881    27.886968 
   30000    233.50125   -336.80379    204420.41   -23356.182    1694.8157   -25050.997   -707.97491    278.90613    95.097082    14.509611    27.900151 
   30200    242.38676   -376.26387    204420.41   -23300.813    1759.3091   -25060.122   -743.33615    280.77609    95.097178    14.508248    27.907535 
   30400    236.93942   -256.85954    204420.41   -23288.324    1719.7708   -25008.095   -351.99358    282.08785    95.099117    14.508516    27.894792 
   30600    236.12513   -412.37774    204420.41   -23366.546    1713.8605   -25080.406   -880.16516    283.56962    95.098585    14.506884    27.883844 
   30800    241.19608   -358.54589    204420.41   -23332.913    1750.6669    -25083.58   -745.24393    281.99637    95.097855    14.505542    27.871922 
   31000    241.52222    -354.6564    204420.41   -23287.282    1753.0341   -25040.316    -751.8649    282.73355    95.097359    14.503518    27.899091 
   31200    244.60158   -220.33839    204420.41   -23254.716    1775.3849     -25030.1   -193.20745    285.14377    95.097688    14.504609    27.909582 
   31400    238.58573   -375.78035    204420.41   -23214.386    1731.7203   -24946.106   -773.82141    286.35966    95.096679    14.505805    27.913645 
   31600    239.36569   -147.14404    204420.41   -23296.464    1737.3814   -25033.845    25.326366    284.48697     95.09685    14.506011    27.927166 
   31800    241.77355   -314.59464    204420.41    -23234.75    1754.8583   -24989.608   -544.86786    286.90842    95.098199    14.507932    27.922945 
   32000    237.98821   -289.28788    204420.41    -23274.77    1727.3832   -25002.154   -515.14775     289.9662    95.099032    14.509834    27.930523 
   32200    234.23794    -339.5917    204420.41   -23265.899    1700.1628   -24966.062   -667.08939    294.69401    95.101698    14.506577    27.922551 
   32400    242.27459   -339.15831    204420.41   -23292.979     1758.495   -25051.474   -657.18066    297.52558    95.103325     14.50468    27.906266 
   32600    243.06504   -462.25129    204420.41   -23249.005    1764.2323   -25013.238   -1090.0886    298.17424    95.104655    14.501212    27.902737 
   32800    242.82483   -161.07533    204420.41   -23274.536    1762.4888   -25037.024    29.595468     298.0503    95.105072    14.500435    27.871059 
   33000    238.53497   -472.12545    204420.41   -23236.979    1731.3518   -24968.331   -1074.8469    301.16829    95.106664    14.499186    27.872533 
   33200    239.92307   -329.00634    204420.41    -23281.53     1741.427   -25022.957   -650.19417     302.8412    95.106525    14.498342    27.882577 
   33400     236.7872    -392.7604    204420.41   -23325.479     1718.666   -25044.145   -833.36981    305.22916     95.10707    14.498888    27.870286 
   33600    238.26627   -299.33733    204420.41   -23331.624    1729.4015   -25061.026   -538.58621    307.95847     95.10904     14.49936    27.862809 
   33800    246.10356   -471.30451    204420.41   -23147.378    1786.2867   -24933.665   -1128.1997     312.7015    95.110188    14.498878    27.858846 
   34000    236.10532   -252.51244    204420.41   -23247.099    1713.7167   -24960.816   -370.42691    316.07713    95.110271    14.498346    27.856638 
   34200    242.88901   -593.54213    204420.41   -23246.479    1762.9546   -25009.433   -1491.7538    318.72369    95.109906    14.494598    27.852293 
   34400    232.14844   -454.72814    204420.41   -23311.683    1684.9967    -24996.68   -1082.5008    320.62418    95.107888    14.493964    27.853334 
   34600    248.80254   -423.33515    204420.41   -23204.128    1805.8766   -25010.004   -946.75234    322.87197    95.108271    14.493027     27.85492 
   34800     238.0221    -310.6303    204420.41   -23304.537    1727.6293   -25032.166   -591.14503    325.24624    95.108804    14.495377     27.84416 
   35000    235.59809   -464.52803    204420.41   -23322.192    1710.0351   -25032.227   -1106.6696    324.60971    95.110071    14.495677     27.86083 
   35200    242.62985   -463.03945    204420.41   -23247.619    1761.0736   -25008.692    -1137.536    324.71355    95.110901    14.495877    27.880073 
   35400    246.07237   -385.17768    204420.41   -23237.797    1786.0603   -25023.857   -831.90554    325.12638    95.112115    14.499646     27.89482 
   35600    240.61753   -419.03377    204420.41   -23242.769    1746.4676   -24989.237   -964.67793    326.00966    95.112726    14.497431    27.888723 
   35800    245.21996   -494.80039    204420.41   -23145.336    1779.8733   -24925.209   -1210.8984    329.07627    95.114771    14.496604    27.889104 
   36000    237.58557   -288.55656    204420.41   -23275.851    1724.4608   -25000.312   -465.30182    330.04952    95.115683    14.495167    27.895265 
   36200    243.21244   -120.15077    204420.41   -23304.867    1765.3021   -25070.169    105.18749    330.20148    95.116861    14.494768    27.884632 
   36400    241.84651   -208.78944    204420.41   -23267.168    1755.3878   -25022.555   -220.20745    330.32276    95.116989    14.493033    27.891976 
   36600    238.33574   -500.70455    204420.41   -23235.095    1729.9057   -24965.001   -1195.0428    328.68237    95.116173    14.493074    27.906697 
   36800    237.27524   -261.93103    204420.41   -23298.923    1722.2083   -25021.131   -390.59091    328.34491    95.114021    14.490555    27.915855 
   37000    238.19795   -270.04942    204420.41   -23283.995    1728.9057   -25012.901   -447.45076    329.73137    95.112492    14.491486    27.930081 
   37200    236.69801   -327.95814    204420.41    -23276.78    1718.0187   -24994.799   -637.11903    329.82628    95.112311    14.492765    27.922993 
   37400    239.73591   -307.22908    204420.41   -23310.913    1740.0686   -25050.982   -531.90655    329.22005    95.111188    14.492541    27.918035 
   37600    232.60909   -525.74286    204420.41   -23349.576    1688.3401   -25037.916   -1277.9121    332.11296    95.110439    14.492469     27.91417 
   37800    235.72651   -218.01241    204420.41   -23376.433    1710.9672     -25087.4   -284.46824     333.6065    95.110838    14.490064    27.904033 
   38000    238.05879   -198.39468    204420.41   -23257.134    1727.8956    -24985.03    -181.0727    334.62938    95.111985    14.491695    27.893216 
   38200    234.92627   -383.40723    204420.41   -23240.215    1705.1589   -24945.374   -802.60967    335.63126    95.112972    14.491439    27.913637 
   38400    243.53413   -374.92966    204420.41   -23186.906     1767.637   -24954.543   -777.70149    336.61783    95.114548    14.492271     27.93299 
   38600    237.19934   -303.78226    204420.41   -23243.704    1721.6574   -24965.362   -494.12538    335.39645    95.116896    14.492711    27.949322 
   38800    234.51472   -277.70566    204420.41   -23254.542    1702.1717   -24956.714    -447.1435    335.03283    95.117909    14.490713    27.937682 
   39000    241.01551   -100.88556    204420.41   -23223.151    1749.3562   -24972.507    172.64058    335.01778    95.118714    14.489035    27.920608 
   39200    232.54071   -548.86703    204420.41   -23308.445    1687.8438   -24996.289   -1420.5663    337.90358    95.119482     14.49093    27.913232 
   39400    239.27369   -385.09595    204420.41   -23251.033    1736.7136   -24987.747   -814.66654    339.17126    95.120874    14.491586    27.916085 
   39600    238.25584    -345.2438    204420.41   -23199.978    1729.3258   -24929.304   -650.10894    341.30906     95.12017    14.494858    27.944267 
   39800    239.04622   -308.75185    204420.41    -23264.54    1735.0626   -24999.603   -531.36758    340.68245    95.121119    14.491836    27.913444 
   40000    239.14213   -296.30521    204420.41     -23206.3    1735.7587   -24942.059   -497.95691    342.77755    95.121215    14.490553    27.922277 
   40200    240.76742   -286.29334    204420.41   -23215.066    1747.5555   -24962.621   -474.23286    345.37157    95.120178    14.489263    27.907809 
   40400    234.50585   -332.15331    204420.41   -23274.696    1702.1074   -24976.803     -602.617    345.56877    95.119188    14.489245    27.904271 
   40600    242.80965   -302.32802    204420.41   -23197.829    1762.3786   -24960.208   -541.56051     343.2992    95.118411     14.48731    27.918733 
   40800    237.93863   -534.28498    204420.41   -23252.713    1727.0234   -24979.736   -1321.2989    341.33224    95.118077     14.48689    27.916104 
   41000    236.38054   -312.54096    204420.41   -23229.972    1715.7144   -24945.687   -563.73954    342.14547    95.117003    14.483536    27.893369 
   41200    241.71911   -319.74405    204420.41   -23085.193    1754.4632   -24839.656   -611.50679    342.66107    95.115831    14.479731    27.888602 
   41400    242.91857   -212.61296    204420.41   -23160.005    1763.1691   -24923.174   -207.24041    342.58191    95.115405    14.479286    27.872265 
   41600    239.29666   -401.78743    204420.41   -23142.263    1736.8804   -24879.143   -858.70794    342.33367    95.115457    14.477824    27.869583 
   41800     239.5434   -419.87625    204420.41   -23165.362    1738.6712   -24904.033   -948.18338    342.91802    95.114608    14.478206    27.846943 
   42000    237.48795   -307.69007    204420.41   -23204.571    1723.7522   -24928.323   -556.92126    342.94029    95.114873    14.478665    27.867754 
   42200    238.83799   -323.25403    204420.41   -23290.686    1733.5512   -25024.237   -570.18301      344.092    95.114757     14.47791    27.880203 
   42400    240.41045   -120.55432    204420.41   -23236.492    1744.9645   -24981.456    104.74287    347.15755     95.11624    14.476334    27.886377 
   42600    239.74662    -307.7179    204420.41   -23246.496    1740.1463   -24986.643   -511.77634    349.53718    95.117607    14.476046    27.898737 
   42800    240.65398   -359.36766    204420.41   -23230.437    1746.7322    -24977.17    -746.7101    353.60106    95.116362    14.474573     27.91901 
   43000     233.9509    -328.6571    204420.41   -23263.073    1698.0794   -24961.152   -606.01575    355.56395    95.117827    14.472649    27.884002 
   43200    237.18169   -387.44377    204420.41   -23253.672    1721.5294   -24975.201   -875.80236    358.31505    95.115433    14.471823    27.895811 
   43400    237.92983   -274.59813    204420.41   -23229.857    1726.9595   -24956.816   -444.10307      359.207    95.114713    14.472795    27.900109 
   43600    233.05289   -343.87421    204420.41   -23251.743    1691.5614   -24943.305   -704.09076    359.70763    95.115537    14.473685    27.902046 
   43800    236.22571    -289.2027    204420.41   -23294.589    1714.5906   -25009.179   -477.94232    361.23335    95.115521     14.47301    27.899891 
   44000    233.98815   -323.83609    204420.41   -23356.425    1698.3497   -25054.775   -603.83092    360.24762    95.115178    14.469336    27.902545 
   44200    244.20311   -550.57752    204420.41   -23285.684    1772.4927   -25058.176   -1400.2798    361.45503    95.117888    14.471889    27.888907 
   44400    239.71736    -244.9212    204420.41   -23294.481    1739.9339   -25034.415   -343.12499    361.72616    95.118362    14.474921    27.886494 
   44600    240.62927   -299.95129    204420.41   -23354.609    1746.5528   -25101.162   -516.51513    363.56124    95.117745    14.478883    27.911118 
   44800    243.88448   -131.78243    204420.41    -23354.72      1770.18     -25124.9     66.44148    365.79871    95.117653     14.48288    27.899971 
   45000    240.37851   -334.72293    204420.41   -23300.687    1744.7328    -25045.42   -635.16879    364.91911    95.117438    14.488914    27.891426 
   45200    234.10754   -473.29645    204420.41   -23258.705    1699.2163   -24957.921   -1124.3921    365.91713     95.11731    14.491156    27.906315 
   45400    235.25945   -209.22936    204420.41   -23313.871    1707.5772   -25021.448   -202.05551    365.87981    95.118238    14.492672    27.892069 
   45600    241.85665   -373.91758    204420.41    -23199.59    1755.4615   -24955.052   -773.03304    369.31866    95.118441    14.491719    27.907919 
   45800    238.84144   -234.82696    204420.41   -23233.591    1733.5762   -24967.168   -319.94277    372.60461     95.11639    14.493554    27.905885 
   46000    238.24527   -457.29033    204420.41   -23158.541    1729.2491    -24887.79   -1058.3796    374.91767    95.116211    14.495386    27.910225 
   46200    245.35743   -277.29684    204420.41   -23154.099    1780.8711    -24934.97   -479.69733     375.5331    95.114798    14.496541    27.885869 
   46400    235.08719   -496.64738    204420.41   -23217.395    1706.3269   -24923.722   -1188.0749    375.18877    95.116366    14.498062    27.891045 
   46600    239.59425   -334.24171    204420.41   -23223.094    1739.0403   -24962.135   -637.72512    376.41325    95.116547    14.498776    27.886278 
   46800    239.49128    -341.2935    204420.41   -23179.189     1738.293   -24917.482   -693.60044    374.43564    95.116052    14.499338    27.890655 
   47000    238.41799   -260.72349    204420.41   -23180.272    1730.5027   -24910.774   -389.07928    375.62414    95.117358    14.498668    27.893022 
   47200    241.30487   -272.09888    204420.41   -23264.963    1751.4565    -25016.42   -414.17673    375.13669     95.11656    14.498691     27.90896 
   47400     244.4159   -386.55382    204420.41   -23208.427    1774.0372   -24982.464   -859.83723    376.54702    95.117131    14.497542    27.907138 
   47600    242.88458   -223.20234    204420.41   -23234.991    1762.9225   -24997.913   -249.39797    378.55353    95.116834     14.49662    27.905683 
   47800    237.84788   -483.02125    204420.41   -23274.676    1726.3647    -25001.04   -1172.2018    381.17543    95.117604    14.495241    27.904998 
   48000    241.17842   -332.65883    204420.41   -23285.591    1750.5387    -25036.13   -636.75263    382.29067    95.118746    14.498153    27.895778 
   48200    239.74549   -293.68014    204420.41   -23251.422    1740.1381    -24991.56   -509.18273    386.38506     95.11854    14.501231    27.891726 
   48400    241.60478   -536.56323    204420.41   -23299.476    1753.6333    -25053.11   -1361.3254    388.07222    95.117477    14.500844    27.899267 
   48600    232.86023   -333.88981    204420.41   -23396.322     1690.163   -25086.485   -642.52864    386.38989    95.115931    14.502934    27.925357 
   48800    241.40341   -295.21842    204420.41   -23355.038    1752.1717    -25107.21   -505.77981     386.6612    95.114383    14.500145    27.930517 
   49000    233.85443   -464.46929    204420.41   -23308.851    1697.3791   -25006.231   -1133.9663    390.48357    95.114277    14.499859    27.938111 
   49200      237.576   -452.51615    204420.41   -23189.144    1724.3914   -24913.535    -1081.561     393.0668     95.11438    14.497943    27.938493 
   49400    239.96784   -292.07584    204420.41   -23271.262     1741.752   -25013.014   -503.05707    393.58365    95.112978    14.497473    27.953553 
   49600    238.17889   -404.05321    204420.41   -23255.975    1728.7673   -24984.743   -926.15638    396.56938     95.11266    14.494885    27.939437 
   49800    237.04096   -303.95071    204420.41   -23269.537    1720.5079   -24990.045   -511.84579    395.52365    95.112317    14.494601    27.920739 
   50000    236.54278    -350.5027    204420.41   -23251.303     1716.892   -24968.195   -692.37005    393.45814    95.112823    14.494998    27.923955 
   50200    245.01724     -290.541    204420.41    -23188.99    1778.4019   -24967.392   -488.64416    394.87243    95.113656     14.49398    27.902063 
   50400    240.91669   -249.26935    204420.41   -23224.686     1748.639   -24973.325    -347.7042    394.15127    95.114576    14.491628    27.915079 
   50600    244.59635   -277.02286    204420.41   -23115.418     1775.347   -24890.765   -443.70335    393.13913    95.113573    14.492535    27.931084 
   50800    234.42884   -273.07176    204420.41   -23303.663    1701.5484   -25005.211   -433.80945    393.55768    95.115117    14.490153    27.921202 
   51000    236.75692   -311.15318    204420.41   -23232.252    1718.4462   -24950.698   -598.45222    394.16025    95.113047    14.487132    27.919927 
   51200    239.90893   -575.75372    204420.41   -23229.968    1741.3244   -24971.292   -1489.7341    396.54642    95.113692    14.487391    27.918672 
   51400    241.33337   -357.80533    204420.41   -23240.533    1751.6633   -24992.196   -755.87777    396.81066     95.11271    14.489718    27.941615 
   51600    233.88639   -331.92228    204420.41   -23288.747    1697.6112   -24986.358   -641.17963    396.94083    95.112025    14.492066    27.953996 
   51800    239.05134   -527.82202    204420.41   -23261.021    1735.0998   -24996.121   -1317.6625    399.83666    95.110071       14.496    27.954582 
   52000    234.15273   -321.03758    204420.41   -23343.126    1699.5443    -25042.67    -574.2945    399.54094    95.107487    14.494994    27.980419 
   52200    233.67948    -334.3079    204420.41   -23348.032    1696.1094   -25044.141   -647.20238     399.1861    95.104889    14.495007    27.981311 
   52400    231.08483   -186.98358    204420.41   -23404.462    1677.2766   -25081.739   -90.896253    397.59128    95.104799     14.49742     27.96172 
   52600    233.99174   -342.76541    204420.41   -23212.538    1698.3758   -24910.913   -684.90904    397.83502     95.10412    14.494762    27.954463 
   52800    246.26255   -88.186702    204420.41   -23140.484    1787.4407   -24927.924    219.89617    397.88883     95.10113    14.494748    27.968789 
   53000    245.01138   -426.06668    204420.41   -23145.917    1778.3594   -24924.276   -941.94317    397.52743    95.100888    14.494814    27.980186 
   53200    236.51294   -208.71153    204420.41   -23252.312    1716.6754   -24968.987    -188.2201    397.98698    95.100704    14.495332    27.976296 
   53400    238.05417   -334.34748    204420.41   -23222.308    1727.8621    -24950.17   -617.58145    399.25968    95.101674    14.497816    27.961241 
   53600    234.12513    -272.4517    204420.41   -23326.241     1699.344   -25025.585   -425.47675    400.95311    95.103133    14.493997    27.950593 
   53800    235.77121   -590.06863    204420.41   -23267.797    1711.2917   -24979.088   -1556.4902    401.35127    95.102921    14.493304    27.957459 
   54000    237.58661    -451.6481    204420.41    -23231.97    1724.4684   -24956.439   -1022.4264    400.93094    95.102538    14.492817    27.949244 
   54200    243.94736   -173.35634    204420.41   -23186.012    1770.6364   -24956.648   -78.777311    404.45937    95.103711    14.493809    27.936054 
   54400    246.43793    -356.4913    204420.41   -23147.369    1788.7137   -24936.083   -732.51505    405.94948    95.103551    14.492134    27.944574 
   54600     238.0449   -427.88752    204420.41   -23202.375    1727.7947    -24930.17   -997.19477    406.82179    95.101803     14.49126     27.95008 
   54800    244.50948   -450.55978    204420.41   -23189.178    1774.7164   -24963.895   -1085.4415    408.44544    95.099129    14.493324    27.957125 
   55000    246.04794    -307.2318    204420.41    -23182.13     1785.883   -24968.013   -607.23983    410.23623    95.098965    14.495807    27.964625 
   55200    235.67493   -332.05125    204420.41   -23317.105    1710.5929   -25027.698   -658.01683    411.60518    95.098568    14.495437    27.958462 
   55400    237.35752   -447.78934    204420.41   -23230.678    1722.8055   -24953.484   -1038.2429    411.69527    95.098314    14.499469    27.950334 
   55600    242.80432   -291.58691    204420.41   -23210.327    1762.3399   -24972.667   -507.81612    411.90654    95.097244     14.49764    27.922364 
   55800    248.46638   -406.82696    204420.41   -23106.844    1803.4367    -24910.28   -914.39427    412.02662    95.097459    14.499059    27.912406 
   56000    240.84519   -278.87585    204420.41   -23165.287      1748.12   -24913.407   -464.85135    412.38653    95.098134    14.499569    27.910771 
   56200    243.57546   -335.29062    204420.41   -23183.636    1767.9371   -24951.573   -668.10663    411.37849     95.10003    14.497917    27.909012 
   56400    236.11093   -404.21283    204420.41   -23282.428    1713.7575   -24996.185   -895.49115    413.04152    95.100411     14.49884    27.912095 
   56600    231.08951    -499.1635    204420.41    -23350.95    1677.3106   -25028.261   -1236.4218     417.2323    95.100342    14.502364    27.919095 
   56800    236.74199   -57.253223    204420.41   -23232.311    1718.3379   -24950.649    338.26992      418.915    95.099933    14.504514     27.91304 
   57000    234.67701   -251.22578    204420.41   -23294.907    1703.3497   -24998.257   -359.59888    419.13512     95.10218    14.504843    27.910066 
   57200    241.67227   -352.33838    204420.41   -23193.803    1754.1232   -24947.926   -693.40567    417.83283    95.101858    14.501091    27.894555 
   57400    237.67735   -241.03463    204420.41   -23270.377     1725.127   -24995.504   -295.10201    417.88799     95.10325    14.499425    27.873609 
   57600    234.50372   -201.72618    204420.41   -23302.374    1702.0919   -25004.466   -186.73582    417.27393    95.102993    14.499633    27.868211 
   57800    241.44716   -257.15672    204420.41    -23232.61    1752.4893     -24985.1   -407.45791    419.68699     95.10338    14.499796    27.881279 
   58000    237.61903    -454.4595    204420.41   -23264.584    1724.7037   -24989.288   -1019.4598    419.65196    95.103277    14.497704    27.877295 
   58200    242.57561   -403.23297    204420.41   -23236.109    1760.6799   -24996.789   -881.50701    420.65602    95.104354    14.493914    27.886027 
   58400    237.54282    -307.2805    204420.41   -23266.339    1724.1505    -24990.49   -552.22054    421.79914    95.105578    14.491958    27.884028 
   58600     232.3361   -319.83715    204420.41   -23284.553    1686.3587   -24970.912   -581.29717    427.59317    95.106038    14.493255    27.888369 
   58800    239.90631   -236.52363    204420.41   -23246.384    1741.3054    -24987.69   -330.80064    431.07048    95.105812    14.494727    27.894315 
   59000     241.6283   -572.37519    204420.41   -23163.896     1753.804     -24917.7   -1478.1198    433.67109    95.104458    14.493318    27.874232 
   59200    244.69121   -287.71637    204420.41   -23197.927    1776.0355   -24973.963   -482.59019    433.22237    95.103272    14.493588    27.873779 
   59400    239.52096   -109.28954    204420.41   -23226.114    1738.5084   -24964.623    94.131751    434.90303    95.102489     14.49754    27.862742 
   59600    237.28799   -428.59889    204420.41   -23265.776    1722.3009   -24988.077   -951.85147    437.01522    95.100757    14.495328    27.864171 
   59800    235.07724   -277.95761    204420.41   -23210.382    1706.2547   -24916.637   -482.00868    440.11536    95.100357    14.495285    27.847992 
   60000    242.80097   -357.08737    204420.41   -23172.338    1762.3156   -24934.654   -726.88503    440.76075    95.100116    14.494379    27.851865 
   60200    239.68106   -456.70829    204420.41    -23217.61    1739.6704    -24957.28   -1049.2734    440.69535    95.099691    14.496523    27.868132 
   60400    240.45706   -183.06399    204420.41   -23180.753    1745.3028   -24926.056   -116.12253    441.53479     95.10085    14.492782    27.865971 
   60600    243.13711    -347.7152    204420.41   -23226.282    1764.7554   -24991.037   -690.71019    444.39307    95.101701    14.494233    27.868374 
   60800    244.79755    -214.3204    204420.41    -23128.08    1776.8073   -24904.887   -212.33159    445.16712     95.10202    14.497118    27.880332 
   61000    236.19701    -284.9042    204420.41   -23190.254    1714.3822   -24904.636   -486.52367    442.46213    95.101407    14.499795    27.887289 
   61200    241.64996   -247.64129    204420.41   -23131.334    1753.9613   -24885.295   -309.89894    442.36654    95.101899    14.500355    27.890415 
   61400    244.26334   -276.30412    204420.41   -23128.736    1772.9299   -24901.666   -416.90389    444.95544       95.102    14.502383    27.868188 
   61600    240.67769   -384.68316    204420.41   -23185.003    1746.9043   -24931.907   -828.03362    446.06854    95.099634    14.503805    27.853636 
   61800    239.12615   -222.08943    204420.41   -23229.415    1735.6427   -24965.058   -225.52436    447.12678    95.100757    14.508011    27.871983 
   62000    246.24949   -154.66949    204420.41   -23200.391    1787.3459   -24987.737    -17.44084    449.15291    95.102998    14.508694    27.858664 
   62200    236.94143   -462.20154    204420.41   -23198.008    1719.7854   -24917.793   -1086.7091    452.73421    95.104611    14.508795    27.840057 
   62400    242.74219   -226.19296    204420.41   -23208.646    1761.8889   -24970.535   -273.07599    454.34083      95.1047    14.507958    27.864848 
   62600    235.62783   -118.72554    204420.41   -23225.453     1710.251   -24935.704    104.63465    455.71229    95.105562    14.509206    27.872866 
   62800    233.31578   -394.83436    204420.41   -23288.354    1693.4695   -24981.824   -864.83307    457.52015    95.107099     14.51193    27.874419 
   63000    243.93002   -320.57371    204420.41   -23204.585    1770.5105   -24975.095   -601.41246    458.86551    95.108985    14.513128    27.892954 
   63200    239.78076   -302.43757    204420.41    -23250.57    1740.3941   -24990.964   -523.59897    458.08814    95.109268    14.513685    27.897996 
   63400    237.25456   -218.64125    204420.41   -23286.611    1722.0582   -25008.669   -254.33482    456.70689      95.1096    14.511289    27.918153 
   63600     230.9328   -558.13286    204420.41   -23294.862    1676.1732   -24971.035    -1443.691    457.24698    95.109426    14.509496    27.915356 
   63800    233.33064   -426.87628    204420.41   -23287.901    1693.5774   -24981.479    -970.6583    458.28125    95.108395    14.508988    27.917144 
   64000    245.22074    -277.4492    204420.41   -23166.054    1779.8789   -24945.933   -421.78603    459.17166    95.106775    14.508764    27.913283 
   64200     236.5036   -391.94024    204420.41   -23226.304    1716.6076   -24942.912   -851.81434    458.89654    95.105449    14.508188    27.920057 
   64400     242.8039   -201.64868    204420.41   -23279.861    1762.3369   -25042.198   -178.64001     459.6399    95.105545    14.508961     27.93106 
   64600    239.62694   -266.08656    204420.41   -23308.523    1739.2776   -25047.801   -424.97983    459.62513    95.107071    14.509296    27.926407 
   64800    241.45027   -523.17391    204420.41   -23313.228    1752.5119    -25065.74   -1312.2626    460.11053    95.107244    14.505869    27.929825 
   65000    236.61077   -256.18291    204420.41   -23215.995    1717.3854   -24933.381   -364.91244    461.75794    95.107915    14.505229    27.924152 
   65200     242.7424   -358.46745    204420.41   -23264.081    1761.8905   -25025.971   -776.06434    463.51274    95.109668    14.505898     27.94535 
   65400    237.99736   -312.90059    204420.41    -23289.03    1727.4497    -25016.48   -600.09458    464.78045    95.110708    14.503172     27.94069 
   65600    237.77943   -448.93363    204420.41   -23214.536    1725.8679   -24940.404   -1073.8981    467.73132    95.110534    14.503031    27.947471 
   65800    241.55206   -439.84082    204420.41   -23227.223    1753.2507   -24980.474   -1029.3235    468.65815    95.109724    14.502303    27.958078 
   66000    234.82544   -443.98323    204420.41   -23218.401    1704.4271   -24922.828   -1041.3825    470.72477     95.10974     14.50045    27.967742 
   66200    234.82687   -519.77785    204420.41   -23213.817    1704.4374   -24918.255   -1303.9556    472.78305    95.109628      14.5003    27.965036 
   66400    244.52599   -118.38219    204420.41   -23245.014    1774.8363    -25019.85    103.95259    472.31687    95.108308    14.502715    27.954057 
   66600    232.37635   -229.42227    204420.41   -23312.393    1686.6508   -24999.044   -287.37184    474.95217    95.108338    14.503589    27.964683 
   66800    237.42643   -329.13741    204420.41   -23269.031    1723.3058   -24992.337   -627.24954    476.08813    95.110143    14.506167    27.979567 
   67000    233.52498   -316.83579    204420.41   -23337.976    1694.9879   -25032.964   -590.76928     478.0556    95.110034    14.506331    27.985728 
   67200    238.39009   -404.46781    204420.41   -23255.159    1730.3002   -24985.459   -873.01023    478.78135    95.109152     14.50477    27.977617 
   67400    235.40078   -488.43965    204420.41   -23237.659     1708.603   -24946.262   -1164.3373    479.30843    95.107822    14.503703    27.983937 
   67600    246.11746   -170.61236    204420.41   -23148.897    1786.3876   -24935.284   -88.503706    479.30182     95.10906    14.501668    27.974233 
   67800    236.65239   -413.60024    204420.41   -23163.574    1717.6875   -24881.262   -913.66975    481.59299    95.108335    14.498228    27.969824 
   68000    239.61668   -479.21882    204420.41    -23219.99    1739.2031   -24959.193   -1108.1857    485.69977    95.110096    14.495791    27.949289 
   68200    236.46794    -164.7004    204420.41   -23212.223    1716.3488   -24928.571    -67.00286    488.68633    95.110696    14.494462    27.956082 
   68400    244.21792    -217.1436    204420.41   -23194.369    1772.6002   -24966.969    -254.2894    489.96721    95.109652    14.494299    27.962164 
   68600    238.12003   -161.44332    204420.41   -23244.372      1728.34   -24972.712   -21.749792    491.13102    95.108079      14.4926    27.972444 
   68800    247.65728   -350.11564    204420.41   -23191.168    1797.5641   -24988.732   -717.91086    492.36172     95.10922     14.49219    27.971959 
   69000     235.6068   -317.18417    204420.41   -23207.487    1710.0984   -24917.586   -558.63948    491.81519    95.109544    14.489741    27.978194 
   69200    239.90361   -239.02938    204420.41   -23318.061    1741.2858   -25059.347    -311.0676     492.4738    95.110407    14.487164    27.963311 
   69400    231.98118   -388.57159    204420.41   -23313.833    1683.7826   -24997.615   -869.31602    492.11264    95.111091    14.485816    27.973575 
   69600    244.06238   -233.10635    204420.41   -23204.701    1771.4713   -24976.172   -265.27176    491.02275    95.109781    14.484162    27.972043 
   69800     237.9292   -262.05547    204420.41   -23216.277     1726.955   -24943.232   -399.66378    490.45381    95.109239    14.484179    27.958985 
   70000     241.7856   -372.51014    204420.41   -23260.219    1754.9458   -25015.165   -747.13721    490.07685    95.108066    14.485689    27.964019 
   70200    246.17257   -369.00629    204420.41    -23172.72    1786.7876   -24959.508   -753.19553    491.13411     95.10634    14.486635    27.972133 
   70400    235.84552   -223.29498    204420.41   -23209.978     1711.831   -24921.809   -247.36583    490.50799    95.107014    14.488405     27.97771 
   70600    236.13492    -292.9804    204420.41   -23230.735    1713.9316   -24944.667   -483.47966    490.10488    95.106822    14.488349    27.975442 
   70800    243.24545   -302.10942    204420.41   -23212.367    1765.5418   -24977.909   -515.99389     492.3998    95.108025    14.487118    27.999548 
   71000    242.84142   -277.99536    204420.41   -23244.179    1762.6092   -25006.788   -454.79506    495.53956    95.111496    14.486385    28.006424 
   71200    237.22939   -298.30534    204420.41    -23270.74    1721.8756   -24992.616   -520.16043     497.0296    95.110717    14.486772    27.982719 
   71400    238.91424   -291.11752    204420.41   -23285.257    1734.1046   -25019.361   -518.23381    495.44996     95.11231    14.486344    27.972194 
   71600      243.276    -205.6148    204420.41   -23193.271    1765.7635   -24959.034   -173.49964    495.67091    95.110208    14.483576    27.984066 
   71800    231.82186   -202.75595    204420.41   -23276.638    1682.6262   -24959.264   -166.21794    498.25862    95.112208    14.480644    27.956856 
   72000    241.27093   -227.72111    204420.41     -23323.6    1751.2102    -25074.81   -265.70683    500.70322    95.112322    14.478562    27.949391 
   72200    248.76451   -384.44639    204420.41   -23211.417    1805.6006   -25017.018   -794.55215    502.29125    95.111952    14.479268    27.949458 
   72400    234.38419   -358.52164    204420.41   -23258.919    1701.2243   -24960.143   -722.94356    503.71751    95.110665    14.481346    27.941756 
   72600    239.67043   -189.52067    204420.41   -23243.384    1739.5933   -24982.977     -142.222    507.95378    95.109882    14.483135    27.935041 
   72800    238.52141   -250.87119    204420.41   -23248.061    1731.2534   -24979.315   -347.75172    512.58039     95.10934    14.485763    27.943496 
   73000    240.56694   -377.74043    204420.41   -23291.403    1746.1004   -25037.503   -783.17437    516.28726    95.109184    14.484988    27.927217 
   73200    240.14366   -390.62187    204420.41   -23250.705    1743.0281   -24993.733   -898.72244    517.11902    95.109855    14.487704    27.929198 
   73400    238.87664   -439.99103    204420.41    -23209.38    1733.8317   -24943.212   -1014.5749    516.29449    95.109386    14.489185    27.928643 
   73600    243.65844   -280.58603    204420.41   -23223.214    1768.5393   -24991.754   -448.15973    515.46431    95.109322    14.490812    27.901801 
   73800    233.11203   -411.63562    204420.41   -23335.791    1691.9906   -25027.782   -898.81516     515.0975    95.109493    14.492676    27.888444 
   74000    234.91552   -251.30709    204420.41   -23310.227    1705.0808   -25015.307   -352.29725    516.16531    95.111263     14.49605     27.91842 
   74200    233.32272   -348.50859    204420.41   -23149.324    1693.5199   -24842.844   -683.13242    519.58143    95.110105    14.496056    27.918495 
   74400    239.25715   -289.30137    204420.41   -23165.116    1736.5936   -24901.709   -531.46072     524.5324     95.10961    14.493907    27.920426 
   74600    239.47482   -447.00418    204420.41   -23177.299    1738.1735   -24915.472   -1043.3339    528.11984    95.110131    14.494777    27.922543 
   74800    237.80897   -259.47573    204420.41   -23204.621    1726.0823   -24930.703   -394.82422    528.11318    95.110657    14.495031     27.91816 
   75000    238.16898   -391.74744    204420.41   -23206.161    1728.6954   -24934.857   -841.49514    530.59715    95.110252    14.497191    27.913088 
   75200    243.82328   -295.72176    204420.41   -23128.548    1769.7358   -24898.284   -511.68118    536.47186    95.110981     14.50081    27.899193 
   75400     241.7791   -494.26031    204420.41   -23188.142    1754.8986   -24943.041   -1190.3752    541.63376    95.112404    14.501983    27.881208 
   75600    245.70476   -202.29029    204420.41   -23177.395    1783.3921   -24960.787   -188.09685    543.11728     95.11267    14.501563     27.87822 
   75800    240.51754   -204.05577    204420.41    -23137.44    1745.7418   -24883.182   -164.63954     545.7402    95.113313    14.500548    27.887988 
   76000    243.62865   -376.99164    204420.41   -23099.299    1768.3231   -24867.622   -806.71649    545.00833    95.112391     14.49593    27.888978 
   76200    238.10574   -281.68393    204420.41   -23237.543    1728.2363   -24965.779   -474.18838    546.99804     95.11444    14.494196    27.883655 
   76400     238.4441   -202.69247    204420.41   -23208.167    1730.6923   -24938.859   -237.18396    548.83973    95.117379    14.494873     27.88408 
   76600    235.31115   -370.10081    204420.41   -23189.091    1707.9524   -24897.044   -760.29608    554.42752    95.116381    14.494438    27.899958 
   76800    241.47409   -472.23203    204420.41   -23206.373    1752.6848   -24959.058   -1095.3871    556.51244    95.115858    14.495604    27.891707 
   77000    238.57242   -378.41888    204420.41   -23222.211    1731.6237   -24953.835   -787.78315    558.51131    95.116832     14.49465    27.900691 
   77200    244.85004   -422.41676    204420.41   -23189.415    1777.1883   -24966.603   -962.83423    559.61347    95.115903    14.496595    27.876841 
   77400    239.89702   -355.14911    204420.41   -23189.802     1741.238    -24931.04   -743.54044    558.30658    95.115856    14.497272    27.900483 
   77600     239.6394   -337.91203    204420.41   -23241.055    1739.3681   -24980.424   -676.13829     560.7578    95.114643    14.495394     27.89047 
   77800     241.6871   -289.80591    204420.41   -23254.315    1754.2308   -25008.546   -518.55546    560.94073    95.112694    14.495558    27.897102 
   78000    236.31899   -287.31606    204420.41   -23255.531    1715.2676   -24970.799   -487.89543    559.15456    95.112123    14.495353    27.882709 
   78200    240.54702   -274.58209    204420.41   -23252.149    1745.9558   -24998.105   -463.62097     558.0749    95.111527    14.492691    27.880754 
   78400    239.26638   -585.77316    204420.41   -23209.116    1736.6606   -24945.777   -1522.7939    558.11765    95.110829    14.495002    27.895116 
   78600    235.57289   -199.16565    204420.41   -23236.082    1709.8522   -24945.934   -180.62716    557.43219    95.110394    14.496091    27.899005 
   78800    240.87474   -432.32089    204420.41   -23172.336    1748.3345    -24920.67   -913.34835    559.76962    95.111788    14.492944    27.896667 
   79000     241.7871   -46.519166    204420.41   -23214.447    1754.9566   -24969.403    351.36354    559.63273    95.113294    14.494547    27.926261 
   79200    241.48734   -282.05805    204420.41   -23165.859    1752.7809    -24918.64    -470.8648    562.94151    95.114071    14.497881    27.920403 
   79400    244.49152   -343.85937    204420.41   -23167.539    1774.5861   -24942.125   -682.07444    564.43093    95.115228    14.499808    27.911607 
   79600    238.27302   -319.69679    204420.41   -23286.084    1729.4505   -25015.535    -596.4479    566.92156    95.114656    14.495863     27.91322 
   79800    233.92766   -251.23311    204420.41   -23284.851    1697.9107   -24982.762   -342.15779    565.98448    95.115983    14.496132      27.9025 
   80000    240.10216   -471.94905    204420.41    -23299.24    1742.7269   -25041.967   -1105.8181     565.5406    95.117439    14.495143    27.882714 
   80200    244.14037   -208.97161    204420.41   -23321.605    1772.0373   -25093.642   -165.79881    562.02914    95.118694    14.496413     27.86809 
   80400    236.30915   -564.14851    204420.41   -23311.994    1715.1962    -25027.19   -1468.9081    560.84989      95.1201    14.497768     27.84246 
   80600    234.48427   -330.91861    204420.41   -23306.867    1701.9507   -25008.817   -640.00797    559.87158    95.120806    14.500393    27.858124 
   80800    243.68038   -343.82924    204420.41   -23260.997    1768.6986   -25029.696   -681.39407    560.27463    95.122101    14.501768    27.828444 
   81000    235.37454   -382.29261    204420.41   -23294.284    1708.4125   -25002.696   -859.58909    559.33534    95.124096    14.506081    27.826293 
   81200    235.63808   -455.05597    204420.41   -23243.176    1710.3254   -24953.501   -1104.7342      557.869     95.12511    14.511819    27.820248 
   81400    237.22821    -229.3905    204420.41   -23211.398     1721.867   -24933.266   -300.01233    560.39266    95.124674    14.515748    27.822954 
   81600    235.72861   -470.29366    204420.41   -23287.535    1710.9825   -24998.517   -1128.8474    565.58211    95.124916    14.517673    27.831747 
   81800    234.72067   -453.43004    204420.41   -23319.936    1703.6665   -25023.602   -1068.2017    565.60273    95.125854    14.519677    27.855266 
   82000    247.07686   -198.52834    204420.41   -23275.415    1793.3511   -25068.766   -197.39279    563.39768    95.126921     14.52069    27.860484 
   82200    240.10354   -146.46492    204420.41   -23229.012    1742.7369   -24971.749    33.502575    563.45858    95.125213    14.519209    27.865978 
   82400     236.7436   -307.98788    204420.41   -23262.814    1718.3495   -24981.163   -565.66836    564.18243    95.126775    14.521733    27.864485 
   82600    242.42886   -313.07496    204420.41   -23145.781    1759.6147   -24905.396   -558.28622    563.41569    95.125627    14.521706    27.873197 
   82800    235.20917   -139.45979    204420.41   -23260.421    1707.2123   -24967.634    40.780051    563.29301    95.125499    14.523435    27.880044 
   83000    245.03621   -265.11228    204420.41   -23148.646    1778.5395   -24927.186   -416.36257    565.29123    95.124713    14.523402    27.863169 
   83200    239.22497    -393.0251    204420.41    -23188.96      1736.36    -24925.32   -850.05821    567.94783    95.124157    14.523924    27.853145 
   83400    243.17463   -191.75707    204420.41   -23170.149    1765.0277   -24935.176   -171.27071    567.78382      95.1229    14.525212    27.851803 
   83600    231.74423   -265.90686    204420.41   -23282.248    1682.0628   -24964.311   -428.29667    570.13446    95.121311    14.523577    27.864676 
   83800    237.68004   -627.26009    204420.41   -23238.369    1725.1465   -24963.515   -1650.6662    573.53176     95.11851    14.524243    27.863775 
   84000     236.2841   -420.38145    204420.41   -23222.154    1715.0143   -24937.169   -926.50192    575.85802    95.121452    14.524045    27.863609 
   84200     243.1536   -171.20316    204420.41   -23180.959    1764.8751   -24945.834   -71.249224    575.92689    95.121836    14.524178    27.883465 
   84400    240.12627   -380.28244    204420.41   -23233.686    1742.9019   -24976.588   -782.17615     577.8957    95.122041    14.525715    27.905243 
   84600    235.83902   -380.46305    204420.41   -23200.414    1711.7839   -24912.198   -827.35438     578.5447    95.123063    14.526918    27.898159 
   84800    242.82676    -331.9579    204420.41    -23238.76    1762.5028   -25001.263   -664.17795     577.4016      95.1239    14.527722    27.896889 
   85000    240.96901   -303.23175    204420.41   -23208.056    1749.0187   -24957.075   -522.87932    576.16043    95.125394    14.525035    27.920166 
   85200    239.81009    -365.3377    204420.41   -23209.434    1740.6069   -24950.041   -738.67348    575.64953    95.125549    14.524821    27.944394 
   85400    238.16933   -257.78017    204420.41   -23278.713    1728.6979    -25007.41   -365.82142    575.65866    95.127056    14.524991    27.966112 
   85600    238.72634   -367.64205    204420.41   -23238.848    1732.7408   -24971.589   -791.75619    577.17978    95.125138    14.527951    27.963267 
   85800    232.27975   -462.57732    204420.41   -23242.414    1685.9497   -24928.364   -1040.1859     578.4662    95.126076    14.527251    27.956323 
   86000    235.78309   -306.46846    204420.41   -23182.625    1711.3779   -24894.003   -575.37877    580.44221    95.128045    14.528316    27.969958 
   86200    242.42579   -499.62413    204420.41   -23155.974    1759.5924   -24915.566   -1227.2194    584.06042    95.129892    14.527429    27.965988 
   86400    232.67237   -381.27742    204420.41   -23239.221    1688.7995    -24928.02   -816.19644    588.82629    95.131421    14.527005    27.965326 
   86600    237.41418   -292.93891    204420.41   -23150.513    1723.2168    -24873.73   -547.62799    589.98192    95.131542    14.526263    27.973455 
   86800    231.18274   -490.14766    204420.41   -23214.357    1677.9873   -24892.344    -1189.359    593.26796     95.13133     14.52558    27.963376 
   87000    246.27036   -420.68591    204420.41   -23171.158    1787.4974   -24958.656   -963.35043     596.8804    95.133221    14.525055    27.955847 
   87200     247.2413   -204.65518    204420.41   -23168.364    1794.5447   -24962.908   -230.18049    596.18938    95.134134    14.526502    27.980021 
   87400    240.36959   -292.75143    204420.41   -23301.592     1744.668    -25046.26   -501.60236    597.07392    95.134387     14.52895    27.966328 
   87600    240.79747   -157.90391    204420.41    -23158.85    1747.7736   -24906.624   -61.927833    599.27691    95.133872     14.53053    27.979038 
   87800    243.22516   -61.977891    204420.41   -23209.114    1765.3945   -24974.509    274.23523    599.02033    95.134155     14.52977     27.97336 
   88000    238.62753   -259.39104    204420.41   -23231.326    1732.0236    -24963.35   -413.44096    600.12439    95.133281    14.529435    27.955164 
   88200    237.91989   -318.01511    204420.41   -23247.959    1726.8874   -24974.846   -612.14615    601.23185    95.133801    14.530537    27.968406 
   88400    241.37698   -70.603486    204420.41   -23175.094    1751.9799   -24927.074    249.78728    602.59068    95.133382    14.528877    27.958884 
   88600    242.95153   -410.09653    204420.41   -23199.497    1763.4084   -24962.905   -925.58715    602.59453    95.133311    14.528242    27.959872 
   88800    238.41076   -371.77615    204420.41    -23231.97    1730.4503   -24962.421   -730.00375    603.15363    95.132161    14.533109    27.949434 
   89000    242.22926   -249.03366    204420.41   -23210.117     1758.166   -24968.283    -342.6718    602.85045    95.131718    14.532855    27.953677 
   89200    244.37069   -482.48495    204420.41   -23228.234    1773.7091   -25001.943   -1155.6042    605.93805    95.132279    14.534948    27.948289 
   89400    248.82586   -202.31089    204420.41   -23244.413    1806.0459   -25050.459   -189.65279    606.30287    95.133449    14.531749    27.933114 
   89600    231.32554   -320.40097    204420.41   -23399.244    1679.0238   -25078.267   -609.33855    607.46901    95.131999    14.532013     27.95408 
   89800    237.93307   -274.99772    204420.41   -23264.375     1726.983   -24991.358   -408.67351    610.87118    95.130037    14.535064    27.956932 
   90000     241.3767   -218.36445    204420.41   -23231.512    1751.9779    -24983.49   -251.54217    613.38975    95.130985    14.535588    27.941722 
   90200    236.04603   -408.97996    204420.41   -23282.212    1713.2864   -24995.498   -894.34481    615.91111    95.130395    14.536475    27.937523 
   90400    241.53488   -230.50881    204420.41   -23262.603     1753.126   -25015.729   -262.19915    616.31368    95.132086     14.53984    27.942133 
   90600    238.31787   -254.26877    204420.41   -23290.652     1729.776   -25020.428   -383.38461    615.93268     95.13094    14.541592    27.947757 
   90800    238.37567   -86.176315    204420.41   -23278.947    1730.1956   -25009.142    191.71924    614.10047    95.130638    14.544505    27.959823 
   91000    233.24367   -386.86174    204420.41   -23315.951    1692.9461   -25008.897   -837.69976    613.55651    95.132106    14.547337     27.95441 
   91200    239.61058   -241.28657    204420.41   -23377.136    1739.1589   -25116.295   -304.55659    615.21573    95.133665    14.548524    27.937581 
   91400    236.71051   -274.11065    204420.41   -23301.043    1718.1094   -25019.153     -476.874    615.71325    95.134204     14.54689    27.929922 
   91600    245.93104   -350.18341    204420.41   -23164.802    1785.0345   -24949.836   -716.85312    616.41872    95.136417    14.546429    27.936801 
   91800    244.84781   -235.43351    204420.41   -23173.897    1777.1721   -24951.069   -300.39637    620.66535    95.137275    14.548027    27.928145 
   92000     238.4831   -436.90775    204420.41   -23171.173    1730.9754   -24902.148   -1027.8832    624.78575    95.136836    14.546768     27.95863 
   92200    243.39032   -326.94883    204420.41   -23175.664    1766.5933   -24942.257     -627.001    630.83702    95.137111    14.548975    27.982746 
   92400    238.95284   -346.08446    204420.41   -23180.167    1734.3848   -24914.552   -716.69669    631.24838     95.13762    14.550676    28.004378 
   92600    243.35024   -496.19222    204420.41   -23167.192    1766.3024   -24933.494   -1246.1039    631.10116      95.1369    14.552449    28.010844 
   92800    237.35602   -271.03079    204420.41   -23274.794    1722.7947   -24997.588   -471.68856    631.51416    95.136435    14.551414    28.015338 
   93000    237.03777   -425.54248    204420.41   -23333.682    1720.4847   -25054.167   -949.64249    632.84699    95.133598    14.551457    28.024778 
   93200     238.9542   -512.20418    204420.41   -23277.965    1734.3947   -25012.359    -1259.304    634.05706    95.132015    14.550172    28.013048 
   93400    234.87396   -324.75447    204420.41   -23309.221    1704.7792       -25014   -588.92631    632.02229    95.131816    14.549833    28.012586 
   93600    239.60065   -214.62091    204420.41    -23256.13    1739.0868   -24995.217   -203.66977    630.40812    95.131785    14.551271    28.018366 
   93800    236.10897   -346.14758    204420.41   -23285.799    1713.7432   -24999.543     -674.028    632.11045    95.130564    14.553939    28.009772 
   94000    237.55407   -302.38087    204420.41   -23300.895    1724.2322   -25025.127   -513.72337    634.13394    95.131277    14.554374    28.016118 
   94200    247.15906   -519.24456    204420.41   -23200.153    1793.9478   -24994.101    -1286.291    636.22079    95.131817    14.553625    28.043191 
   94400     233.3913   -367.41765    204420.41   -23247.723    1694.0176    -24941.74   -758.50371    638.34673    95.130009     14.55306    28.040848 
   94600    242.86992    -244.6151    204420.41    -23277.47    1762.8161   -25040.286    -345.2922    637.91285    95.131155    14.550348    28.047792 
   94800    236.50109   -279.17122    204420.41   -23284.221    1716.5894    -25000.81   -446.05936    640.70216    95.129202    14.552363    28.048502 
   95000    239.57613   -177.61769    204420.41   -23324.516    1738.9088   -25063.425   -70.876577    642.23779    95.130107     14.55145    28.055774 
   95200     237.7678   -384.56876    204420.41   -23292.179    1725.7835   -25017.962   -817.06617    646.20626    95.128488    14.549885    28.058409 
   95400    243.72885   -239.09141    204420.41   -23216.157    1769.0504   -24985.208   -332.61712     648.7403    95.129135     14.55072    28.047794 
   95600    240.06157   -327.99282    204420.41   -23235.629    1742.4323   -24978.061   -566.68303    648.76609     95.12915    14.551235    28.043016 
   95800    237.95886   -325.24083    204420.41   -23231.242    1727.1702   -24958.412   -576.55824    648.13234      95.1275    14.552974    28.033883 
   96000    238.20144   -338.53765    204420.41   -23202.843    1728.9309   -24931.774   -677.19878    649.07491    95.126389    14.555457    28.021622 
   96200    247.86303   -462.84344    204420.41   -23139.446    1799.0574   -24938.504   -1063.0677    647.47624    95.126512    14.557547     28.02075 
   96400     237.7028   -228.60869    204420.41   -23248.977    1725.3117   -24974.288    -245.3668    646.24534    95.126067    14.561426    27.981064 
   96600     237.7158    -362.1022    204420.41   -23257.745    1725.4061   -24983.151   -699.51453    648.07099    95.127713    14.564484    27.998114 
   96800      242.432   -480.08565    204420.41   -23222.046    1759.6375   -24981.683   -1170.4491    647.75529    95.124986    14.565135    27.999669 
   97000    235.96072   -345.06523    204420.41   -23287.294    1712.6672   -24999.961   -616.60744    648.13848    95.123206    14.561755    28.004213 
   97200    239.69272   -437.89525    204420.41   -23283.156    1739.7551   -25022.911    -978.3447    650.98064    95.121501    14.561928    28.017783 
   97400     236.5291   -440.06378    204420.41   -23284.709    1716.7926   -25001.501   -985.62534    651.12398    95.119983    14.561681    28.027597 
   97600    241.33962   -405.99646    204420.41   -23215.456    1751.7087   -24967.165   -855.42327    651.82161    95.119682    14.565085    28.019465 
   97800    246.51312    -212.8963    204420.41   -23214.076    1789.2594   -25003.335   -219.20093    652.95864    95.119424    14.563269    28.008551 
   98000    236.72175    -323.2737    204420.41   -23241.119    1718.1909    -24959.31   -580.53535    652.41978    95.120322     14.56331    28.005618 
   98200    235.86902   -314.41592    204420.41   -23252.527    1712.0016   -24964.529   -620.40792    652.48501    95.121716    14.562928    28.010824 
   98400    240.77093   -266.88394    204420.41   -23194.261     1747.581   -24941.842    -424.7709    655.63381    95.122148    14.561156    28.023651 
   98600    242.51753   -343.09149    204420.41   -23258.763    1760.2583   -25019.021   -663.20383    654.89028     95.12127     14.55913    28.026565 
   98800    241.35975   -241.64223    204420.41   -23226.039    1751.8548   -24977.894     -303.377    654.52605    95.121362    14.557318    28.017284 
   99000    239.11909   -262.05913    204420.41   -23300.644    1735.5915   -25036.236   -391.15444    657.22045    95.120058    14.555243    28.009884 
   99200    238.10024     -453.129    204420.41    -23251.89    1728.1964   -24980.087   -1052.5542    660.04928    95.120406     14.55551    28.005206 
   99400    245.32984   -448.75483    204420.41   -23244.064    1780.6708   -25024.735    -1088.578    660.52683    95.121541    14.554489    28.022105 
   99600    241.72036   -357.48698    204420.41   -23238.277    1754.4722   -24992.749   -715.77619    662.67191    95.122819    14.554136    28.011255 
   99800    244.05917   -216.49269    204420.41   -23227.961     1771.448   -24999.409    -188.0203    663.84606    95.120946     14.55071     28.01173 
  100000    238.97953   -295.41508    204420.41   -23270.118    1734.5786   -25004.697   -538.58075    666.84463    95.120782    14.548792    28.021727 
  100200    237.23553   -567.84953    204420.41   -23305.902    1721.9201   -25027.822     -1423.16    669.54672    95.121658    14.547497    28.026487 
  100400    243.22128   -166.90976    204420.41   -23257.858    1765.3663   -25023.224   -52.993805    669.82937    95.122263    14.546322     28.03009 
  100600     242.1366   -369.80683    204420.41   -23256.724    1757.4934   -25014.217   -755.82082    669.30759    95.123287    14.546529    28.029038 
  100800    230.82592   -431.76271    204420.41   -23306.139    1675.3974   -24981.537   -981.70447    669.44075    95.121478     14.54871    28.018167 
[...]
 5175800    218.15769   -218.34153    204420.41   -25667.962     1583.448    -27251.41   -14.084634    8031.7982    95.330637    12.147909    25.204943 
 5176000    225.96708   -197.43184    204420.41   -25684.693    1640.1306   -27324.824    30.740519    8041.2949    95.330934     12.14849    25.199307 
 5176200    227.74386   -247.24176    204420.41   -25710.136     1653.027   -27363.163   -93.982915    8022.3812    95.330659    12.147561    25.206788 
 5176400    221.70577   -153.89482    204420.41   -25644.791    1609.2009   -27253.992     207.6599    8013.2658    95.330044    12.146691    25.209479 
 5176600    232.85247   -193.25396    204420.41   -25580.045    1690.1067   -27270.152    41.267263    8000.7586     95.33017    12.146562    25.199264 
 5176800    226.31178   -63.047462    204420.41   -25628.391    1642.6326   -27271.024    512.20142    7997.4392    95.330568    12.148241    25.197895 
 5177000    227.75732   -245.47094    204420.41   -25612.011    1653.1247   -27265.136    -117.2602    7989.5718    95.330596    12.149579    25.199273 
 5177200    233.84574   -118.57083    204420.41    -25586.91    1697.3161   -27284.226    289.90763    7976.5217    95.331391    12.149353    25.199492 
 5177400    231.66787   -119.13318    204420.41   -25552.943    1681.5085   -27234.451    315.90777    7972.7214    95.332551    12.152242    25.198728 
 5177600    225.91621   -110.59051    204420.41   -25640.345    1639.7614   -27280.107    375.47285    7963.8766    95.332795    12.153088    25.201444 
 5177800    227.26311    -148.6807    204420.41   -25672.266    1649.5376   -27321.803    258.06603    7973.3073     95.33362    12.152992    25.200255 
 5178000    228.86805   -141.55838    204420.41   -25662.528    1661.1867   -27323.715    233.33728     7979.896    95.332866    12.154476    25.201599 
 5178200    228.53278   -248.18927    204420.41   -25660.303    1658.7532   -27319.056   -96.336977    7981.9236    95.332364    12.156591    25.206205 
 5178400    224.19031   -64.350717    204420.41   -25670.108    1627.2343   -27297.343    518.30555    7966.8345    95.332724    12.157989    25.203797 
 5178600    223.64373   -146.77539    204420.41   -25638.998    1623.2671   -27262.265     240.1735    7969.4024    95.332186    12.158135    25.197659 
 5178800    228.54362   -102.43607    204420.41   -25644.381    1658.8319   -27303.213    378.64663    7964.1282    95.333159    12.159316    25.194432 
 5179000    219.35527   -300.68501    204420.41   -25672.587    1592.1403   -27264.727   -306.88029    7989.2428    95.333718     12.15927    25.201085 
 5179200    231.57752   -130.73432    204420.41   -25678.751    1680.8528   -27359.604    306.02825     7985.846    95.334169    12.160383    25.199763 
 5179400    232.03156   -103.46703    204420.41   -25603.654    1684.1483   -27287.802    361.00193     7976.016    95.335532    12.159596    25.204263 
 5179600     223.7414   -247.91848    204420.41   -25664.358    1623.9761   -27288.334   -99.604731    7971.9064      95.3349    12.160817    25.202322 
 5179800    227.88301   -345.61133    204420.41   -25653.406     1654.037   -27307.443   -432.45113    7974.3309    95.335381    12.162547    25.199946 
 5180000    221.10693   -155.57497    204420.41   -25749.312    1604.8543   -27354.166    198.21452    7981.5091    95.335302    12.163212     25.19651 
 5180200    219.03263   -99.006135    204420.41   -25724.621    1589.7985    -27314.42    422.53375    7978.9091    95.336166    12.163225    25.200683 
 5180400    227.67783   -199.99312    204420.41   -25647.135    1652.5477   -27299.683    25.456286    7985.2183    95.336924    12.162656    25.198708 
 5180600    228.21196   -155.13505    204420.41   -25650.031    1656.4246   -27306.456    217.60476    7987.2838    95.336972    12.163219    25.198584 
 5180800    229.60097   -192.08804    204420.41   -25674.299    1666.5064   -27340.806    82.562752    7995.0212    95.336073    12.164928    25.196705 
 5181000    225.04829   -222.10472    204420.41   -25716.097    1633.4618   -27349.559   -10.381324    7995.7204    95.334788    12.166962    25.198016 
 5181200    227.22468   -106.85415    204420.41   -25691.412    1649.2586   -27340.671    387.18189    7992.9307    95.334221    12.169159     25.19802 
 5181400    233.63672   -95.691598    204420.41   -25609.967     1695.799   -27305.766    429.17465    7995.0506     95.33479     12.17029    25.198228 
 5181600    220.10045    -168.3603    204420.41   -25733.759    1597.5491   -27331.308    151.42461    8005.8895     95.33431    12.169952    25.195497 
 5181800    222.75742    -135.4603    204420.41   -25618.148    1616.8341   -27234.982    249.75783    8001.3688    95.333836    12.170916    25.190515 
 5182000    226.86321   -112.69257    204420.41   -25635.844     1646.635   -27282.479    393.31854    8013.0353    95.333876    12.171563    25.206238 
 5182200    231.22381   -50.267498    204420.41   -25613.997    1678.2854   -27292.283    574.17539     7998.174    95.333817    12.171528    25.200562 
 5182400    224.16245   -295.19718    204420.41   -25689.465    1627.0322   -27316.498   -255.31794    8011.6472    95.333382    12.173217    25.200628 
 5182600    226.35187   -149.96618    204420.41   -25654.487    1642.9235    -27297.41    248.53284    8002.8227    95.333849    12.173552    25.201157 
 5182800    226.37795   -204.88354    204420.41   -25634.126    1643.1128   -27277.239    12.601715    7996.1959    95.333751    12.174391    25.195978 
 5183000    232.88386   -205.34594    204420.41    -25607.23    1690.3345   -27297.564    11.759164    7988.6115    95.334178    12.172857     25.19707 
 5183200     231.4621   -189.93009    204420.41   -25626.023     1680.015   -27306.038    75.884796    7974.3534    95.334491     12.17322    25.190518 
 5183400    219.64417   -106.82667    204420.41   -25749.693    1594.2372    -27343.93    356.85381    7988.0839    95.335067     12.17524    25.195526 
 5183600    223.27649   -203.87646    204420.41   -25724.355    1620.6016   -27344.956    46.986079    7975.4637    95.334403    12.176118    25.194306 
 5183800    223.39122    -175.4802    204420.41   -25699.203    1621.4344   -27320.637    163.85035    7965.6368    95.334353    12.178242    25.194214 
 5184000    229.73027   -141.01953    204420.41   -25618.588    1667.4449   -27286.032    209.43069    7970.0262     95.33479    12.178973    25.192675 
 5184200    230.26452   -60.727409    204420.41   -25640.229    1671.3226   -27311.552     535.4976    7977.7586    95.335023    12.179227    25.199987 
 5184400    226.43614   -151.16894    204420.41     -25630.4    1643.5352   -27273.935    238.31194    7984.7311    95.335385     12.17954    25.197305 
 5184600    225.94904   -51.875522    204420.41   -25683.376    1639.9997   -27323.376    554.45603    7985.4597    95.334549    12.180204     25.19262 
 5184800    230.15878   -231.17776    204420.41    -25648.64    1670.5551   -27319.195   -30.025552    7992.3222    95.334387    12.182139     25.19704 
 5185000    228.51315   -124.44225    204420.41   -25653.783    1658.6107   -27312.394    287.02253     7993.215    95.334555     12.18485    25.189405 
 5185200    225.87223   -157.60146    204420.41   -25711.448    1639.4422    -27350.89    179.55733    8001.9895    95.334492    12.186002    25.192678 
 5185400    226.51988   -136.12635    204420.41   -25646.079     1644.143   -27290.222    304.14183    7982.7714    95.335793    12.187072    25.193194 
 5185600     225.3797   -199.75046    204420.41   -25651.519    1635.8673   -27287.387    48.745163    7976.2591     95.33534     12.18777    25.192191 
 5185800     228.0251   -128.59336    204420.41   -25630.868    1655.0683   -27285.936    300.53149    7972.3324    95.335851    12.188738    25.201181 
 5186000    228.31094   -104.78432    204420.41   -25645.905     1657.143   -27303.048    349.22988    7986.6485    95.335573    12.190714    25.196573 
 5186200    229.24323   -174.11124    204420.41   -25614.065    1663.9098   -27277.975    134.12145     7995.422    95.335716    12.191613    25.197615 
 5186400    230.05879   -119.84593    204420.41   -25659.712    1669.8294   -27329.541    314.17364    7979.1397    95.335732    12.194352    25.188685 
 5186600    230.01502   -209.15101    204420.41   -25640.624    1669.5117   -27310.135    18.606672    7987.8176    95.336902    12.195815    25.189209 
 5186800    228.65153   -53.432052    204420.41   -25651.392    1659.6151   -27311.007    575.37199    7988.5312    95.338257    12.197731    25.194894 
 5187000    227.84902   -341.74693    204420.41   -25621.163    1653.7903   -27274.953   -388.92665    8006.9771    95.337721    12.199405     25.19862 
 5187200    226.04967   -119.37852    204420.41    -25670.31    1640.7301    -27311.04    320.60763    8006.8731    95.337534    12.201233    25.200814 
 5187400     220.9167   -157.43396    204420.41   -25696.718    1603.4736   -27300.192    191.49249    8019.8174    95.338371     12.20243    25.202628 
 5187600    231.28045   -155.76461    204420.41   -25607.849    1678.6965   -27286.546    205.61087    8023.3608    95.338206    12.201488    25.209588 
 5187800    223.87265    -68.59003    204420.41   -25654.751    1624.9287   -27279.679     516.6069    8030.0087    95.338415    12.200632     25.19491 
 5188000    233.25611   -276.77178    204420.41   -25599.966    1693.0364   -27293.002   -261.68478    8029.0953    95.338435    12.200071    25.204763 
 5188200    225.46907    -79.61583    204420.41   -25634.859    1636.5159   -27271.375    436.85677    8013.0044    95.337836    12.200663     25.19282 
 5188400    233.04356   -140.85563    204420.41   -25637.528    1691.4936   -27329.021    287.22957    8011.6351    95.337357    12.202199    25.192977 
 5188600    225.85549   -144.85179    204420.41   -25672.639    1639.3207   -27311.959    247.30601    8003.4556     95.33751    12.202434    25.187959 
 5188800    221.56693   -218.80779    204420.41   -25706.558    1608.1931   -27314.751   -28.986107    8015.5217    95.337589    12.202723    25.200803 
 5189000    228.64766   -129.47512    204420.41   -25656.431     1659.587   -27316.018    325.16429    8026.3686     95.33699    12.203209    25.199943 
 5189200    223.08284   -248.18705    204420.41   -25762.819     1619.196   -27382.015    -92.65997    8023.0167    95.337402    12.203232    25.199913 
 5189400    220.30187   -182.63415    204420.41   -25710.237     1599.011   -27309.248    67.237452    8013.3406    95.336721    12.203423    25.197182 
 5189600    221.95962   -202.74361    204420.41   -25628.784    1611.0434   -27239.827    48.343923    8028.9063    95.337373    12.204702    25.195549 
 5189800    228.22136   -199.45361    204420.41    -25668.41    1656.4928   -27324.903    60.307434     8025.028    95.337283    12.206141    25.203266 
 5190000    224.31419   -186.35727    204420.41   -25657.114    1628.1335   -27285.248    49.211696    8031.9224    95.336739    12.207767    25.191505 
 5190200    219.23958   -308.29124    204420.41   -25679.393    1591.3006   -27270.693   -375.63985    8029.1126    95.336939    12.208493    25.200324 
 5190400    233.18967   -149.84716    204420.41   -25586.172    1692.5541   -27278.726    208.03557    8014.9384    95.336395    12.208651    25.190023 
 5190600    226.89974     -158.437    204420.41   -25662.931    1646.9001   -27309.832    213.58401    8013.2336    95.336728    12.209056    25.197654 
 5190800    230.16823   -265.85373    204420.41   -25638.288    1670.6238   -27308.912   -169.20168    8008.1435    95.337147    12.208001    25.189306 
 5191000    230.61865   -200.82738    204420.41   -25669.334     1673.893   -27343.227    52.589043    8006.7893    95.335999    12.208179    25.192126 
 5191200    227.37744   -238.32291    204420.41   -25661.481    1650.3674   -27311.848   -94.668378    8003.7757    95.335757    12.209526    25.190802 
 5191400    228.60466   -91.515302    204420.41   -25642.813    1659.2749   -27302.088    436.28454    7993.2423     95.33584    12.208894    25.192558 
 5191600    230.98571   -297.12437    204420.41   -25667.801    1676.5572   -27344.358   -272.75974    8007.1432    95.336441    12.210704    25.197865 
 5191800    234.21905    -133.8214    204420.41    -25615.68    1700.0257   -27315.706    280.14718    8013.1293    95.336986     12.21114    25.190042 
 5192000    234.09464   -197.31192    204420.41    -25601.07    1699.1227   -27300.193    32.772175    8037.7628    95.337008    12.211188    25.198016 
 5192200    228.52044   -117.88595    204420.41   -25652.607    1658.6636    -27311.27    360.00029    8036.7283    95.337666    12.209409    25.195041 
 5192400    227.91317   -117.25153    204420.41   -25659.038    1654.2559   -27313.294    359.43739     8022.311    95.337863    12.208045    25.192005 
 5192600    225.26241   -274.23184    204420.41   -25690.937    1635.0159   -27325.953   -201.55896    8016.7057    95.338256     12.20895    25.198709 
 5192800    228.55689   -139.30539    204420.41   -25641.417    1658.9282   -27300.345    279.47454    8002.5299    95.338707    12.208065    25.199385 
 5193000    224.23277   -185.26769    204420.41   -25701.281    1627.5425   -27328.824    25.901336    8004.9501    95.338677    12.209444    25.195024 
 5193200    225.62129   -136.25898    204420.41   -25638.916    1637.6208   -27276.536    286.82271    7999.3042    95.338508    12.210356    25.199312 
 5193400    227.61918   -205.68405    204420.41   -25637.419     1652.122   -27289.541    18.451744    7997.7635    95.338887     12.21009    25.201654 
 5193600    229.52542   -176.86337    204420.41   -25622.248     1665.958   -27288.206    146.63692    8007.5027    95.339177    12.211254    25.194077 
 5193800    223.30969   -95.726912    204420.41    -25646.91    1620.8426   -27267.752    418.64075    8023.9234    95.340931    12.211387    25.196391 
 5194000    220.95849    -181.0265    204420.41   -25768.882    1603.7769   -27372.659    148.38955    8016.9209    95.341978    12.211819    25.190401 
 5194200    221.44339   -310.07703    204420.41   -25695.718    1607.2965   -27303.015   -302.40349    8009.3427    95.342884    12.212061    25.197923 
 5194400    231.53468    -202.9434    204420.41    -25650.68    1680.5418   -27331.222    59.098982    8003.4619    95.343771    12.209653    25.194358 
 5194600    227.39344   -182.90958    204420.41    -25615.14    1650.4836   -27265.623    133.74574    7996.5405    95.343715    12.209603    25.198476 
 5194800    228.72061   -111.84715    204420.41   -25642.584    1660.1165   -27302.701     339.4475    7998.1589    95.342858    12.209431    25.198086 
 5195000    224.47632   -166.38589    204420.41   -25639.622    1629.3103   -27268.932    179.86288    7996.0885    95.343133    12.209991    25.187317 
 5195200    232.30693   -157.98926    204420.41   -25634.173     1686.147    -27320.32    186.30798    7998.5344    95.342434    12.211875    25.203417 
 5195400    226.39314   -104.20699    204420.41   -25649.402    1643.2231   -27292.625    364.89298    8011.8855     95.34271    12.210809    25.198513 
 5195600    225.77719   -261.31695    204420.41   -25690.551    1638.7524   -27329.303   -194.91811     8030.197    95.343524    12.209417    25.193703 
 5195800    231.71221   -120.33326    204420.41   -25579.569    1681.8304     -27261.4    336.75952    8032.3792    95.344141    12.209958    25.197984 
 5196000     223.1151   -190.43167    204420.41   -25648.652    1619.4302   -27268.082    94.221876    8028.9705    95.344132    12.210168    25.197782 
 5196200    228.83883    -133.0039    204420.41   -25658.839    1660.9746   -27319.814    255.71149    8027.3514    95.344296    12.209241    25.195709 
 5196400    227.84407   -204.08102    204420.41   -25647.243    1653.7543   -27300.998   -30.138336    8022.2573    95.343536    12.208847    25.191188 
 5196600    234.46821   -43.908837    204420.41    -25629.46    1701.8341   -27331.294    583.29655    8017.5411    95.344322    12.208471    25.205602 
 5196800    227.01462   -212.37808    204420.41   -25616.442     1647.734   -27264.176   -16.395976    8014.8512    95.344734     12.20761    25.189116 
 5197000    234.17784   -112.19725    204420.41     -25581.7    1699.7266   -27281.427    325.36181     8020.497     95.34431    12.206265    25.195461 
 5197200    229.26697   -148.18445    204420.41    -25664.31    1664.0822   -27328.392    228.92898    8015.4733    95.344809    12.207042    25.193419 
 5197400    228.52457    -156.9469    204420.41   -25664.561    1658.6936   -27323.255    192.51331    8019.9107    95.344072    12.207394    25.204193 
 5197600    220.88936   -157.44263    204420.41   -25695.295    1603.2752    -27298.57    209.11511    8003.2738    95.343017    12.207684     25.19023 
 5197800    222.45404   -215.19212    204420.41   -25734.911     1614.632   -27349.543    -25.47169    7990.2954     95.34303    12.207375    25.195784 
 5198000      231.561   -27.174739    204420.41   -25606.685    1680.7329   -27287.418    646.90798    7986.0466    95.342292    12.207483    25.194077 
 5198200    228.36072   -160.55064    204420.41   -25622.266    1657.5043    -27279.77     203.5852     7992.463    95.342058    12.206764     25.19559 
 5198400     226.5789   -198.77721    204420.41   -25687.171    1644.5714   -27331.743    88.595513    7984.2068    95.342914    12.209735    25.192155 
 5198600    222.01226   -162.15886    204420.41   -25728.198    1611.4255   -27339.624    210.00863     7993.673    95.342452    12.210963    25.192458 
 5198800    227.00494   -65.938819    204420.41   -25657.173    1647.6637   -27304.836    517.88458    7992.6784    95.342193    12.211999     25.19102 
 5199000    229.29529   -133.54976    204420.41   -25608.297    1664.2877   -27272.584    298.05393    7998.4521    95.341998     12.21369    25.196666 
 5199200    226.28795   -156.93998    204420.41   -25665.069    1642.4596   -27307.529    254.15611    7993.3368    95.342286    12.214749    25.196475 
 5199400    228.39049   -100.65085    204420.41   -25653.754    1657.7204   -27311.474    403.06416    7997.8158    95.342934    12.214362    25.193023 
 5199600    227.94402    -105.0494    204420.41   -25633.847    1654.4798   -27288.327    367.20346    7983.5886    95.343321    12.216038    25.197172 
 5199800    233.01727   -128.33959    204420.41   -25661.878    1691.3028   -27353.181    301.25039    7984.3792    95.344397    12.215957    25.200223 
 5200000    230.82063   -143.87903    204420.41   -25611.806     1675.359   -27287.165    227.42726    7998.8888    95.344086    12.216432    25.198023 
Loop time of 8099.02 on 120 procs for 5200000 steps with 8482 atoms

Performance: 554.734 ns/day, 0.043 hours/ns, 642.053 timesteps/s
98.3% CPU use with 120 MPI tasks x no OpenMP threads

MPI task timing breakdown:
Section |  min time  |  avg time  |  max time  |%varavg| %total
---------------------------------------------------------------
Pair    | 0.27112    | 2647.6     | 6524.9     |4546.7 | 32.69
Neigh   | 0.70963    | 122.76     | 435.13     |1302.1 |  1.52
Comm    | 55.56      | 2341.2     | 6453.5     |4301.0 | 28.91
Output  | 123.35     | 123.68     | 125.42     |   5.7 |  1.53
Modify  | 331.66     | 2761.9     | 7819.7     |5100.8 | 34.10
Other   |            | 101.9      |            |       |  1.26

Nlocal:    70.6833 ave 226 max 0 min
Histogram: 36 27 27 0 0 0 0 0 12 18
Nghost:    612.967 ave 982 max 68 min
Histogram: 16 4 2 2 6 14 26 18 17 15
Neighs:    0 ave 0 max 0 min
Histogram: 120 0 0 0 0 0 0 0 0 0
FullNghs:  7290 ave 28513 max 0 min
Histogram: 78 12 0 0 0 0 0 4 15 11

Total # of neighbors = 874800
Ave neighs/atom = 103.136
Neighbor list builds = 551099
Dangerous builds = 0
write_data 		${DIR}/data.${NAME}_run
write_data 		run_30/data.${NAME}_run
write_data 		run_30/data.ibeam_cooling_30_run
Total wall time: 2:15:16
