
### Dimensions ###


### IMPORT ATOMS ###
read_data ../Box_Setup/data.Ibeam_240K
  orthogonal box = (0 0 0) to (189.989 26.9999 39.8504)
  15 by 2 by 4 MPI processor grid
  reading atoms ...
  8482 atoms
  reading velocities ...
  8482 velocities
group water type 2
2436 atoms in group water
group graphite type 1
6046 atoms in group graphite


# Define potential
#
pair_style          sw
pair_coeff * * MLC_e.sw C mW

# Add velocity/set timestep
#

fix		1 graphite setforce 0.0 0.0 0.0
velocity 	graphite set 0.0 0.0 0.0
velocity            water create ${START_TEMP} ${SEED} rot yes dist gaussian
velocity            water create 240 ${SEED} rot yes dist gaussian
velocity            water create 240 30729 rot yes dist gaussian
timestep            5.0

# Define output
#
compute 1 water msd
compute 2 water temp


thermo	            100
thermo_style custom step c_2 press vol etotal ke pe c_1[4] density

# Neighbor lists
#
neigh_modify        delay 0 every 1 check yes


# Set fixes
#
fix                 2 water momentum 10 linear 1 1 1 rescale
fix                 3 all nve
fix                 4 water temp/csvr ${START_TEMP} ${START_TEMP} 500.0 928347
fix                 4 water temp/csvr 240 ${START_TEMP} 500.0 928347
fix                 4 water temp/csvr 240 240 500.0 928347

# Run 0.05 ns equilibration
#
dump                1 all custom 100 ${DIR}/eq.${NAME}.dump id type x y z vx vy vz
dump                1 all custom 100 run_30/eq.${NAME}.dump id type x y z vx vy vz
dump                1 all custom 100 run_30/eq.ibeam_cooling_30.dump id type x y z vx vy vz
run                 10000
Neighbor list info ...
  update every 1 steps, delay 0 steps, check yes
  max neighbors/atom: 2000, page size: 100000
  master list distance cutoff = 6.67472
  ghost atom cutoff = 6.67472
  binsize = 3.33736, bins = 57 9 12
  1 neighbor lists, perpetual/occasional/extra = 1 0 0
  (1) pair sw, perpetual
      attributes: full, newton on
      pair build: full/bin/atomonly
      stencil: full/bin/3d
      bin: standard
Per MPI rank memory allocation (min/avg/max) = 0.4705 | 3.837 | 4.747 Mbytes
Step c_2 Press Volume TotEng KinEng PotEng c_1[4] Density 
       0          240   -262.64038    204420.41   -23347.773    1741.9854   -25089.758            0   0.94632332 
     100    242.39666   -259.77903    204420.41   -23359.371     1759.381   -25118.752      0.85538   0.94632332 
     200     238.8375   -381.31761    204420.41   -23383.263    1733.5477   -25116.811    1.3204621   0.94632332 
     300    238.01737   -283.30967    204420.41   -23372.804    1727.5949   -25100.399    1.7114911   0.94632332 
     400    235.50573   -365.93449    204420.41   -23353.157    1709.3648   -25062.522    2.1142561   0.94632332 
     500    243.97996   -231.44908    204420.41   -23328.533     1770.873   -25099.406    2.4577668   0.94632332 
     600    251.61926   -248.64686    204420.41    -23271.13    1826.3211   -25097.452    2.8765388   0.94632332 
     700    241.38911   -360.48593    204420.41   -23275.806    1752.0679   -25027.873    3.3338859   0.94632332 
     800    239.38908   -220.47815    204420.41   -23260.687    1737.5512   -24998.238    3.6492382   0.94632332 
     900    243.66318   -165.29245    204420.41   -23277.753    1768.5737   -25046.327    3.9472925   0.94632332 
    1000    241.58923   -426.02454    204420.41   -23314.557    1753.5204   -25068.077    4.2803618   0.94632332 
    1100    244.21892   -405.12025    204420.41   -23287.234    1772.6075   -25059.842    4.5984711   0.94632332 
    1200    242.81741   -341.56787    204420.41   -23285.429    1762.4349   -25047.864    5.0806256   0.94632332 
    1300    243.73189    -430.7919    204420.41   -23235.624    1769.0725   -25004.697    5.4762492   0.94632332 
    1400    245.06572   -470.67444    204420.41   -23266.345    1778.7537   -25045.099     5.828973   0.94632332 
    1500    237.00864   -280.32738    204420.41   -23291.529    1720.2733   -25011.802     6.149612   0.94632332 
    1600    240.46386   -305.99341    204420.41   -23271.662    1745.3522   -25017.015    6.4471166   0.94632332 
    1700    243.06222   -423.29778    204420.41    -23274.56    1764.2118   -25038.772    6.7463299   0.94632332 
    1800    245.70955   -81.126367    204420.41   -23252.695    1783.4269   -25036.122    7.1729935   0.94632332 
    1900    246.75626   -293.47523    204420.41   -23227.178    1791.0241   -25018.202    7.5347836   0.94632332 
    2000    251.25797   -417.60979    204420.41   -23216.911    1823.6988    -25040.61    8.0277468   0.94632332 
    2100     231.8814   -264.42637    204420.41   -23305.454    1683.0584   -24988.512    8.2693947   0.94632332 
    2200    246.69524   -295.16291    204420.41   -23261.145    1790.5813   -25051.726    8.6648301   0.94632332 
    2300    240.00887   -392.94844    204420.41   -23238.543    1742.0498   -24980.592    9.1481492   0.94632332 
    2400    245.64032   -472.64966    204420.41   -23230.403    1782.9244   -25013.327    9.5799469   0.94632332 
    2500    237.84308   -289.11653    204420.41    -23251.31    1726.3299    -24977.64    10.056363   0.94632332 
    2600    242.09213   -392.38019    204420.41   -23249.458    1757.1706   -25006.629    10.636888   0.94632332 
    2700    243.47879   -497.36572    204420.41   -23251.097    1767.2354   -25018.333    10.998064   0.94632332 
    2800    238.68526   -476.81617    204420.41   -23201.765    1732.4427   -24934.208    11.267679   0.94632332 
    2900    240.90582   -562.83088    204420.41   -23209.287    1748.5601   -24957.847    11.673931   0.94632332 
    3000    241.33137   -382.45324    204420.41   -23224.743    1751.6488   -24976.392    11.972822   0.94632332 
    3100    241.46629   -346.23751    204420.41   -23219.665    1752.6281   -24972.293      12.4476   0.94632332 
    3200    242.94586   -318.33473    204420.41   -23290.217    1763.3673   -25053.584    12.916463   0.94632332 
    3300    237.38755   -448.18597    204420.41   -23373.929    1723.0236   -25096.952    13.147876   0.94632332 
    3400    241.81944   -228.18874    204420.41   -23341.605    1755.1914   -25096.796    13.494108   0.94632332 
    3500      240.904   -219.06697    204420.41   -23339.227    1748.5469   -25087.774    13.753281   0.94632332 
    3600    243.19504    -232.8205    204420.41    -23334.21    1765.1759   -25099.386    14.085896   0.94632332 
    3700    238.15027   -223.17838    204420.41   -23286.691    1728.5596    -25015.25    14.649203   0.94632332 
    3800    237.37071   -283.96943    204420.41   -23262.983    1722.9013   -24985.884    14.908086   0.94632332 
    3900    233.71473   -254.88049    204420.41   -23260.992    1696.3652   -24957.357    15.471826   0.94632332 
    4000    239.90521   -289.68948    204420.41   -23291.823    1741.2974    -25033.12    16.057372   0.94632332 
    4100    243.56287   -256.43705    204420.41   -23266.516    1767.8456   -25034.361    16.430697   0.94632332 
    4200    240.62524   -502.96262    204420.41   -23225.542    1746.5235   -24972.066    16.893468   0.94632332 
    4300    239.18726   -485.99794    204420.41   -23295.419    1736.0863   -25031.505    17.580717   0.94632332 
    4400    237.81969   -711.97224    204420.41   -23258.854    1726.1601   -24985.014    18.084837   0.94632332 
    4500     233.7236   -447.73622    204420.41   -23298.344    1696.4296   -24994.773    18.326903   0.94632332 
    4600    233.99884    -332.2936    204420.41   -23355.653    1698.4273    -25054.08    18.387972   0.94632332 
    4700    249.13064   -223.19847    204420.41   -23303.863    1808.2581   -25112.121    18.802452   0.94632332 
    4800    239.95876   -287.02489    204420.41   -23272.146    1741.6861   -25013.832    19.116682   0.94632332 
    4900     243.8309   -361.01545    204420.41    -23230.22    1769.7911   -25000.011    19.211198   0.94632332 
    5000    236.15278   -284.20947    204420.41   -23280.136    1714.0612   -24994.197    19.535941   0.94632332 
    5100    244.42737   -416.43494    204420.41   -23239.373    1774.1205   -25013.493    20.015254   0.94632332 
    5200     233.6035   -494.78285    204420.41   -23272.904    1695.5579   -24968.462    20.228124   0.94632332 
    5300    240.64535    -289.8631    204420.41   -23332.287    1746.6695   -25078.956     20.31613   0.94632332 
    5400    243.82162   -225.14157    204420.41   -23327.483    1769.7237   -25097.207    20.286313   0.94632332 
    5500    238.54639   -355.69315    204420.41    -23313.53    1731.4347   -25044.965    20.730273   0.94632332 
    5600     236.6084   -264.66377    204420.41   -23338.966    1717.3682   -25056.334     20.94953   0.94632332 
    5700    235.12886   -325.88636    204420.41   -23312.775    1706.6294   -25019.404    21.327274   0.94632332 
    5800    239.48222   -171.97492    204420.41   -23292.179    1738.2272   -25030.406    21.527849   0.94632332 
    5900     236.7891   -208.91519    204420.41    -23315.14    1718.6798    -25033.82    21.923242   0.94632332 
    6000    238.88125   -359.14222    204420.41   -23325.217    1733.8652   -25059.083    21.856172   0.94632332 
    6100    236.60164   -437.09511    204420.41   -23321.684    1717.3191   -25039.004    22.049593   0.94632332 
    6200    235.58622   -481.13502    204420.41   -23329.555     1709.949   -25039.504    22.272879   0.94632332 
    6300    241.40959   -301.91347    204420.41    -23265.37    1752.2166   -25017.587    22.459479   0.94632332 
    6400    233.40583   -358.26641    204420.41   -23306.373    1694.1231   -25000.496    22.774146   0.94632332 
    6500    241.80202   -194.39184    204420.41   -23324.122    1755.0649   -25079.187    23.132677   0.94632332 
    6600    236.72247   -138.87305    204420.41    -23342.48    1718.1962   -25060.676    23.002362   0.94632332 
    6700    235.22198   -270.99109    204420.41   -23370.551    1707.3052   -25077.857    23.308884   0.94632332 
    6800    234.01813   -340.74529    204420.41   -23347.958    1698.5673   -25046.526     23.84657   0.94632332 
    6900    243.46968    -358.8244    204420.41   -23298.697    1767.1693   -25065.866    24.081066   0.94632332 
    7000      236.549   -286.81789    204420.41   -23309.482    1716.9371   -25026.419    24.481931   0.94632332 
    7100    241.74301     -418.289    204420.41   -23334.719    1754.6366   -25089.356    25.001326   0.94632332 
    7200    232.40591   -220.42565    204420.41   -23392.017    1686.8654   -25078.882    25.530293   0.94632332 
    7300    239.19325   -293.07249    204420.41   -23424.793    1736.1298   -25160.923    25.933862   0.94632332 
    7400    240.60972   -258.76435    204420.41   -23396.388    1746.4109   -25142.799    26.243847   0.94632332 
    7500    247.02578   -295.90239    204420.41   -23368.251    1792.9804   -25161.231    26.652368   0.94632332 
    7600    241.04403    -151.9786    204420.41   -23340.055    1749.5632   -25089.618    26.952106   0.94632332 
    7700    235.24819   -356.17004    204420.41   -23359.632    1707.4954   -25067.127     27.35926   0.94632332 
    7800    236.34563   -422.63183    204420.41   -23416.165     1715.461   -25131.626    27.584668   0.94632332 
    7900    237.97521    -336.8805    204420.41   -23375.125    1727.2889   -25102.414    27.883472   0.94632332 
    8000    244.45097   -173.80685    204420.41   -23313.864    1774.2917   -25088.155    28.081364   0.94632332 
    8100    239.94033   -389.73642    204420.41   -23279.339    1741.5523   -25020.892    28.343284   0.94632332 
    8200    233.93625   -205.52864    204420.41   -23287.718     1697.973   -24985.691    28.672091   0.94632332 
    8300    237.71709   -292.07691    204420.41   -23240.071    1725.4154   -24965.487    29.391959   0.94632332 
    8400     242.3638   -287.74844    204420.41   -23234.046    1759.1425   -24993.189     29.54768   0.94632332 
    8500    238.00599    -482.4467    204420.41   -23276.492    1727.5123   -25004.005    29.906806   0.94632332 
    8600    243.88968   -364.18162    204420.41    -23286.89    1770.2178   -25057.107    29.884718   0.94632332 
    8700    235.52407   -475.01037    204420.41   -23289.114    1709.4978   -24998.612    30.108296   0.94632332 
    8800    236.37066   -401.63824    204420.41   -23274.284    1715.6426   -24989.927    30.223454   0.94632332 
    8900    239.47231   -342.52793    204420.41   -23294.449    1738.1553   -25032.604    30.605467   0.94632332 
    9000    236.64528   -320.80939    204420.41   -23265.118    1717.6359   -24982.754    31.281238   0.94632332 
    9100    237.19134   -341.89988    204420.41   -23284.135    1721.5994   -25005.734    31.771804   0.94632332 
    9200    241.46638   -468.18067    204420.41   -23225.014    1752.6288   -24977.643    32.462929   0.94632332 
    9300    234.68451    -356.9955    204420.41   -23291.209    1703.4042   -24994.613     32.88744   0.94632332 
    9400    238.81838   -325.92004    204420.41   -23266.181    1733.4088    -24999.59    33.370497   0.94632332 
    9500    232.88571   -264.87182    204420.41   -23303.221     1690.348   -24993.569    33.778086   0.94632332 
    9600    238.46322   -227.50462    204420.41   -23297.617     1730.831   -25028.448    33.974224   0.94632332 
    9700    238.30936   -292.64244    204420.41   -23248.836    1729.7143    -24978.55    34.357363   0.94632332 
    9800    242.59889    -572.0685    204420.41   -23182.402    1760.8489   -24943.251    34.664406   0.94632332 
    9900    237.18392   -374.11934    204420.41   -23200.311    1721.5455   -24921.857    34.760464   0.94632332 
   10000    242.62052   -415.18254    204420.41   -23211.419    1761.0058   -24972.425    35.472745   0.94632332 
Loop time of 17.3063 on 120 procs for 10000 steps with 8482 atoms

Performance: 249.620 ns/day, 0.096 hours/ns, 577.824 timesteps/s
97.9% CPU use with 120 MPI tasks x no OpenMP threads

MPI task timing breakdown:
Section |  min time  |  avg time  |  max time  |%varavg| %total
---------------------------------------------------------------
Pair    | 0.00045156 | 4.3709     | 14.429     | 251.1 | 25.26
Neigh   | 0.00036597 | 0.12573    | 0.46076    |  41.5 |  0.73
Comm    | 0.011799   | 4.5974     | 13.238     | 236.2 | 26.56
Output  | 0.15889    | 0.15907    | 0.16592    |   0.2 |  0.92
Modify  | 0.69393    | 7.8659     | 16.968     | 258.3 | 45.45
Other   |            | 0.1873     |            |       |  1.08

Nlocal:    70.6833 ave 226 max 0 min
Histogram: 48 1 41 0 0 0 0 0 12 18
Nghost:    609.675 ave 1008 max 0 min
Histogram: 12 4 0 4 8 27 20 9 23 13
Neighs:    0 ave 0 max 0 min
Histogram: 120 0 0 0 0 0 0 0 0 0
FullNghs:  7063.57 ave 28400 max 0 min
Histogram: 66 24 0 0 0 0 0 5 14 11

Total # of neighbors = 847628
Ave neighs/atom = 99.9326
Neighbor list builds = 577
Dangerous builds = 0
write_data 	    ${DIR}/data.${NAME}_eq
write_data 	    run_30/data.${NAME}_eq
write_data 	    run_30/data.ibeam_cooling_30_eq

undump              1
unfix               4



################################################
#######         Run Simulation         #########
################################################

reset_timestep      0
timestep	    10.0
log                 ${DIR}/log.run_${NAME}
log                 run_30/log.run_${NAME}
log                 run_30/log.run_ibeam_cooling_30
