
### Dimensions ###
variable Z_G equal 10.062000000000001
variable Z_W equal 23.803019087

variable	XDIM string 78.752
variable 	YDIM string 80.86108639999017


### IMPORT ATOMS ###
read_data ../Box_Setup/data.Ibeam_240K
Reading data file ...
  orthogonal box = (0.0000000 0.0000000 0.0000000) to (78.752000 80.861086 33.944269)
  4 by 8 by 2 MPI processor grid
  reading atoms ...
  9422 atoms
  reading velocities ...
  9422 velocities
  read_data CPU = 0.023 seconds
group water type 2
2126 atoms in group water
group graphite type 1
7296 atoms in group graphite


# Define potential
#
pair_style          sw
pair_coeff * * MLC_e.sw C mW

# Add velocity/set timestep
#

fix		1 graphite setforce 0.0 0.0 0.0
velocity 	graphite set 0.0 0.0 0.0
velocity            water create ${START_TEMP} ${SEED} rot yes dist gaussian
velocity            water create 235 ${SEED} rot yes dist gaussian
velocity            water create 235 18750 rot yes dist gaussian
timestep            5.0

# Define output
#
compute 1 water msd
compute 2 water temp


thermo	            100
thermo_style custom step c_2 press vol etotal ke pe c_1[4] density

# Neighbor lists
#
neigh_modify        delay 0 every 1 check yes


# Set fixes
#
fix                 2 water momentum 10 linear 1 1 1 rescale
fix                 3 all nve
fix                 4 water temp/csvr ${START_TEMP} ${START_TEMP} 500.0 928347
fix                 4 water temp/csvr 235 ${START_TEMP} 500.0 928347
fix                 4 water temp/csvr 235 235 500.0 928347

# Run 0.05 ns equilibration
#
dump                1 all custom 100 ${DIR}/eq.${NAME}.dump id type x y z vx vy vz
dump                1 all custom 100 run_9/eq.${NAME}.dump id type x y z vx vy vz
dump                1 all custom 100 run_9/eq.ibeam_cooling_9.dump id type x y z vx vy vz
run                 10000
Neighbor list info ...
  update every 1 steps, delay 0 steps, check yes
  max neighbors/atom: 2000, page size: 100000
  master list distance cutoff = 6.6747184
  ghost atom cutoff = 6.6747184
  binsize = 3.3373592, bins = 24 25 11
  1 neighbor lists, perpetual/occasional/extra = 1 0 0
  (1) pair sw, perpetual
      attributes: full, newton on
      pair build: full/bin/atomonly
      stencil: full/bin/3d
      bin: standard
Per MPI rank memory allocation (min/avg/max) = 3.640 | 4.495 | 4.761 Mbytes
Step c_2 Press Volume TotEng KinEng PotEng c_1[4] Density 
       0          235   -349.74665    216156.16   -20108.674     1488.542   -21597.216            0   0.96737059 
     100    233.98785   -420.38877    216156.16   -20121.801    1482.1308   -21603.931   0.90344007   0.96737059 
     200    236.16937   -272.69299    216156.16   -20164.458    1495.9491   -21660.408    1.3485234   0.96737059 
     300    234.22736    -245.0247    216156.16   -20170.603     1483.648   -21654.251    1.8800637   0.96737059 
     400    234.19865   -477.34361    216156.16   -20184.527    1483.4661   -21667.993    2.3164429   0.96737059 
     500     236.3223   -365.79067    216156.16   -20164.665    1496.9177   -21661.582    2.5338419   0.96737059 
     600    239.21596   -311.71165    216156.16   -20103.164    1515.2468    -21618.41    2.8747495   0.96737059 
     700    238.19712    -353.5058    216156.16   -20113.432    1508.7933   -21622.225    3.2703462   0.96737059 
     800    241.34397   -335.30998    216156.16   -20108.732    1528.7261   -21637.458    3.7157527   0.96737059 
     900    242.95807   -325.71795    216156.16   -20149.802    1538.9502   -21688.752    3.9847196   0.96737059 
    1000    240.17859   -393.57168    216156.16   -20214.477    1521.3443   -21735.821    4.4702475   0.96737059 
    1100    238.52659   -441.33437    216156.16   -20204.068    1510.8802   -21714.948    4.8886943   0.96737059 
    1200    232.10617    -360.5502    216156.16   -20204.129    1470.2119   -21674.341    5.2823728   0.96737059 
    1300    238.54584    -350.8464    216156.16   -20152.491    1511.0021   -21663.493     5.526598   0.96737059 
    1400    235.78068   -280.07892    216156.16   -20183.094     1493.487   -21676.581    5.8555531   0.96737059 
    1500     230.0398   -322.29842    216156.16   -20210.201     1457.123   -21667.324    6.1134313   0.96737059 
    1600    235.61374   -418.62484    216156.16   -20182.215    1492.4296   -21674.644     6.285608   0.96737059 
    1700    230.96093   -423.49558    216156.16   -20196.447    1462.9576   -21659.405    6.5798032   0.96737059 
    1800    233.32055   -344.94904    216156.16    -20164.21     1477.904   -21642.114    6.9807623   0.96737059 
    1900    237.91637   -303.54303    216156.16    -20122.83    1507.0149   -21629.845    7.2835585   0.96737059 
    2000    236.00262   -427.20261    216156.16   -20097.613    1494.8928   -21592.506    7.6307539   0.96737059 
    2100    234.50465   -556.84597    216156.16   -20187.029    1485.4044   -21672.433    7.8677887   0.96737059 
    2200    241.50684   -152.29589    216156.16   -20169.962    1529.7578    -21699.72    8.1089858   0.96737059 
    2300     238.5022    -409.6137    216156.16   -20166.288    1510.7258   -21677.014    8.4555944   0.96737059 
    2400    233.20015   -436.73966    216156.16   -20170.569    1477.1413   -21647.711    8.8794434   0.96737059 
    2500    237.63149   -319.53959    216156.16   -20193.358    1505.2104   -21698.568     8.946826   0.96737059 
    2600    233.71308   -369.89796    216156.16     -20219.8    1480.3904   -21700.191    9.2051999   0.96737059 
    2700    238.52521    -260.7863    216156.16   -20207.707    1510.8715   -21718.578    9.6836082   0.96737059 
    2800     238.5287   -449.66575    216156.16   -20145.678    1510.8936   -21656.571    10.200343   0.96737059 
    2900    243.05305    -578.6325    216156.16   -20150.092    1539.5518   -21689.644    10.443667   0.96737059 
    3000    240.11742   -264.69142    216156.16   -20152.967    1520.9569   -21673.924    10.654726   0.96737059 
    3100    238.81552   -282.36464    216156.16   -20139.298    1512.7104   -21652.008    10.822925   0.96737059 
    3200    233.57451   -333.61958    216156.16   -20194.708    1479.5126   -21674.221    11.002658   0.96737059 
    3300    230.28251   -618.50025    216156.16   -20259.564    1458.6604   -21718.224    11.390631   0.96737059 
    3400    234.37081   -416.20263    216156.16   -20202.069    1484.5566   -21686.626    11.736904   0.96737059 
    3500    238.29055   -384.05217    216156.16   -20191.385    1509.3851    -21700.77    12.170621   0.96737059 
    3600    238.41653   -435.47518    216156.16    -20194.42    1510.1831   -21704.603    12.577914   0.96737059 
    3700    233.68947   -280.58516    216156.16   -20160.427    1480.2409   -21640.668    12.883507   0.96737059 
    3800    242.03205   -202.11237    216156.16   -20157.899    1533.0846   -21690.983    13.424845   0.96737059 
    3900    238.65808   -321.21107    216156.16   -20172.468    1511.7131   -21684.181     13.79407   0.96737059 
    4000    232.93016   -292.87292    216156.16   -20189.897    1475.4312   -21665.328    14.500437   0.96737059 
    4100    237.04618    -453.5022    216156.16    -20171.18     1501.503   -21672.683    14.933999   0.96737059 
    4200    239.30447   -312.62297    216156.16   -20173.725    1515.8075   -21689.533    15.303534   0.96737059 
    4300     231.3316   -339.30034    216156.16   -20243.647    1465.3056   -21708.953    15.510422   0.96737059 
    4400    228.71467   -386.99251    216156.16   -20194.463    1448.7293   -21643.192    16.085777   0.96737059 
    4500    233.08005   -379.72021    216156.16   -20222.775    1476.3806   -21699.156    16.573242   0.96737059 
    4600     231.2643   -300.89971    216156.16   -20255.277    1464.8793   -21720.156    16.950352   0.96737059 
    4700    236.41965   -404.11925    216156.16    -20196.67    1497.5344   -21694.205    17.429782   0.96737059 
    4800    236.14824   -557.32503    216156.16   -20165.705    1495.8152   -21661.521    18.029479   0.96737059 
    4900    247.75122   -410.29283    216156.16   -20123.988    1569.3111   -21693.299    18.204548   0.96737059 
    5000    229.99402   -350.55709    216156.16   -20180.182    1456.8331   -21637.015    18.536905   0.96737059 
    5100     240.9001   -445.66773    216156.16   -20142.873    1525.9146   -21668.788    18.943352   0.96737059 
    5200    234.74393   -335.26076    216156.16   -20179.618      1486.92   -21666.538    19.152128   0.96737059 
    5300    232.80447   -291.34468    216156.16   -20234.645     1474.635    -21709.28    19.449068   0.96737059 
    5400    234.43555   -342.71496    216156.16   -20228.739    1484.9667   -21713.706    19.795335   0.96737059 
    5500    234.16796   -340.43974    216156.16   -20228.137    1483.2717   -21711.409    19.848942   0.96737059 
    5600     234.1431   -443.20386    216156.16   -20247.279    1483.1142   -21730.394    20.124989   0.96737059 
    5700    232.98707    -461.8143    216156.16   -20234.659    1475.7917    -21710.45     20.43731   0.96737059 
    5800    232.67015   -324.20615    216156.16   -20226.258    1473.7842   -21700.042    20.800023   0.96737059 
    5900    236.52314   -205.86433    216156.16   -20262.951    1498.1899   -21761.141    20.934435   0.96737059 
    6000    236.58621   -506.10527    216156.16   -20288.773    1498.5894   -21787.363    21.288338   0.96737059 
    6100    232.57402   -491.27684    216156.16   -20310.951    1473.1753   -21784.126    21.471929   0.96737059 
    6200    231.39997   -208.50337    216156.16   -20308.434    1465.7386   -21774.172    21.925066   0.96737059 
    6300    238.57725   -449.40955    216156.16   -20248.205    1511.2011   -21759.406    22.170656   0.96737059 
    6400    231.14479   -430.50347    216156.16   -20279.506    1464.1223   -21743.628    22.412277   0.96737059 
    6500    236.60577   -465.20973    216156.16   -20294.549    1498.7133   -21793.263     22.82802   0.96737059 
    6600    231.82696   -379.17591    216156.16   -20290.561    1468.4433   -21759.005    22.855242   0.96737059 
    6700    230.34007   -383.37644    216156.16   -20299.814     1459.025   -21758.839    23.135414   0.96737059 
    6800    238.56604   -294.52398    216156.16    -20278.98    1511.1301    -21790.11    23.248967   0.96737059 
    6900    236.09814    -364.1233    216156.16   -20229.295    1495.4979   -21724.793    23.687762   0.96737059 
    7000    235.89758   -400.27988    216156.16   -20228.145    1494.2275   -21722.373    24.188483   0.96737059 
    7100    234.00425   -382.54017    216156.16   -20237.892    1482.2347   -21720.127    24.502063   0.96737059 
    7200    228.38409   -354.58995    216156.16   -20296.444    1446.6354   -21743.079    24.774061   0.96737059 
    7300    230.54202   -355.64893    216156.16   -20325.309    1460.3042   -21785.613    25.173528   0.96737059 
    7400    226.95483   -412.54064    216156.16   -20297.579    1437.5821   -21735.161     25.49482   0.96737059 
    7500    234.11357   -224.28978    216156.16   -20260.719    1482.9272   -21743.646    25.407125   0.96737059 
    7600    228.89661   -425.61664    216156.16   -20203.743    1449.8818   -21653.625    25.562682   0.96737059 
    7700    229.52779   -391.57374    216156.16   -20223.669    1453.8798   -21677.549    25.773078   0.96737059 
    7800    225.04652    -278.0733    216156.16    -20269.32    1425.4945   -21694.814    26.348013   0.96737059 
    7900    234.54349   -554.05988    216156.16    -20217.36    1485.6504   -21703.011    26.553748   0.96737059 
    8000     237.0053   -375.95014    216156.16   -20161.996     1501.244    -21663.24    27.240572   0.96737059 
    8100    238.30173   -207.30151    216156.16   -20139.793    1509.4559   -21649.249    28.014477   0.96737059 
    8200    233.94971   -493.91834    216156.16   -20167.421    1481.8893    -21649.31    28.672347   0.96737059 
    8300    242.09557   -445.74727    216156.16   -20144.597    1533.4869   -21678.084    28.931019   0.96737059 
    8400    238.39601   -353.64638    216156.16   -20147.006    1510.0531   -21657.059    28.997534   0.96737059 
    8500    241.79273   -438.11775    216156.16   -20203.921    1531.5687    -21735.49    29.010656   0.96737059 
    8600    233.36006   -356.85964    216156.16   -20214.031    1478.1543   -21692.186    28.817012   0.96737059 
    8700    238.40704   -357.39718    216156.16   -20245.267    1510.1229    -21755.39    29.008545   0.96737059 
    8800    236.00389   -410.24768    216156.16   -20245.156    1494.9009   -21740.057    29.143169   0.96737059 
    8900    235.44829   -516.57124    216156.16   -20253.765    1491.3816   -21745.146    29.188261   0.96737059 
    9000    241.99352   -360.94201    216156.16       -20228    1532.8405   -21760.841    29.424687   0.96737059 
    9100    231.55781   -318.58547    216156.16   -20245.637    1466.7384   -21712.376    29.767555   0.96737059 
    9200    233.82982   -343.26901    216156.16   -20186.436    1481.1298   -21667.566    29.919498   0.96737059 
    9300    235.17612   -310.82122    216156.16   -20248.567    1489.6576   -21738.225    30.345786   0.96737059 
    9400     233.1394   -395.82142    216156.16   -20235.229    1476.7566   -21711.986    30.632132   0.96737059 
    9500    232.67191   -388.96525    216156.16    -20261.63    1473.7954   -21735.426    31.001629   0.96737059 
    9600    240.89925   -441.12513    216156.16   -20270.352    1525.9092   -21796.261    31.283461   0.96737059 
    9700    235.26711   -350.41879    216156.16    -20239.93    1490.2339   -21730.164    31.386282   0.96737059 
    9800    236.98104   -168.96252    216156.16   -20212.804    1501.0903   -21713.895    31.627918   0.96737059 
    9900     242.5633   -382.91504    216156.16   -20226.987    1536.4496   -21763.436    31.983235   0.96737059 
   10000     230.5118   -489.65769    216156.16    -20242.45    1460.1128   -21702.563    32.278379   0.96737059 
Loop time of 14.3617 on 64 procs for 10000 steps with 9422 atoms

Performance: 300.801 ns/day, 0.080 hours/ns, 696.298 timesteps/s
98.9% CPU use with 64 MPI tasks x no OpenMP threads

MPI task timing breakdown:
Section |  min time  |  avg time  |  max time  |%varavg| %total
---------------------------------------------------------------
Pair    | 0.0017176  | 4.8899     | 10.689     | 191.3 | 34.05
Neigh   | 0.0057433  | 0.28623    | 0.60743    |  41.3 |  1.99
Comm    | 1.5761     | 5.2933     | 10.82      | 145.7 | 36.86
Output  | 0.19357    | 0.19483    | 0.19692    |   0.2 |  1.36
Modify  | 0.80709    | 3.4261     | 11.547     | 210.2 | 23.86
Other   |            | 0.2713     |            |       |  1.89

Nlocal:        147.219 ave         288 max           0 min
Histogram: 16 0 5 11 0 0 0 7 12 13
Nghost:        825.844 ave        1049 max         613 min
Histogram: 8 13 9 2 0 0 4 10 12 6
Neighs:         0.00000 ave           0 max           0 min
Histogram: 64 0 0 0 0 0 0 0 0 0
FullNghs:      14998.0 ave       31891 max           0 min
Histogram: 17 15 0 0 0 0 0 7 12 13

Total # of neighbors = 959870
Ave neighs/atom = 101.87540
Neighbor list builds = 570
Dangerous builds = 0
write_data 	    ${DIR}/data.${NAME}_eq
write_data 	    run_9/data.${NAME}_eq
write_data 	    run_9/data.ibeam_cooling_9_eq
System init for write_data ...

undump              1
unfix               4



################################################
#######         Run Simulation         #########
################################################

reset_timestep      0
timestep	    10.0
log                 ${DIR}/log.run_${NAME}
log                 run_9/log.run_${NAME}
log                 run_9/log.run_ibeam_cooling_9
