
# Set production fixes - Nose/Hoover
#
fix                 4 water temp/csvr ${START_TEMP} ${END_TEMP} 500.0 928347
fix                 4 water temp/csvr 235 ${END_TEMP} 500.0 928347
fix                 4 water temp/csvr 235 225 500.0 928347


## divide "droplet" into core and surface
#region		core_reg cylinder z 135 135 44.6 20 INF units box
#region		surface_reg cylinder z 135 135 44.6 20 INF units box side out
#group		core dynamic all region core_reg
#group		surface dynamic all region surface_reg

## compute pressure core
#compute        peratom_core core stress/atom NULL
#compute        p_core core reduce sum c_peratom_core[1] c_peratom_core[2] c_peratom_core[3]
#variable       press_core equal -(c_p_core[1]+c_p_core[2]+c_p_core[3])/(3*1249982.5)


## compute pressure surface
#compute        peratom_surf surface stress/atom NULL
#compute        p_surf surface reduce sum c_peratom_surf[1] c_peratom_surf[2] #c_peratom_surf[3]
#variable       press_surf equal -(c_p_surf[1]+c_p_surf[2]+c_p_surf[3])/(3*42395)

## compute total pressure of drop
compute        peratom water stress/atom NULL
compute        p water reduce sum c_peratom[1] c_peratom[2] c_peratom[3]
variable       press equal -(c_p[1]+c_p[2]+c_p[3])/(3*50402)


# compute order parameter
compute        3 all orientorder/atom nnn NULL cutoff 3.5

# compute center of mass of bridge
compute 	4 water com

# Run simulation
thermo_style        custom step c_2 press vol etotal ke pe v_press c_1[4] c_4[*]
thermo              200
dump		     1 water custom 400 ${DIR}/prod.${NAME}.dump id type x y z vx vy vz c_3[*] c_peratom[*]
dump		     1 water custom 400 run_9/prod.${NAME}.dump id type x y z vx vy vz c_3[*] c_peratom[*]
dump		     1 water custom 400 run_9/prod.ibeam_cooling_9.dump id type x y z vx vy vz c_3[*] c_peratom[*]
run                 ${STEPS}
run                 4000000
Neighbor list info ...
  update every 1 steps, delay 0 steps, check yes
  max neighbors/atom: 2000, page size: 100000
  master list distance cutoff = 6.6747184
  ghost atom cutoff = 6.6747184
  binsize = 3.3373592, bins = 24 25 11
  2 neighbor lists, perpetual/occasional/extra = 1 1 0
  (1) pair sw, perpetual
      attributes: full, newton on
      pair build: full/bin/atomonly
      stencil: full/bin/3d
      bin: standard
  (2) compute orientorder/atom, occasional, copy from (1)
      attributes: full, newton on
      pair build: copy
      stencil: none
      bin: none
Per MPI rank memory allocation (min/avg/max) = 6.171 | 6.835 | 7.292 Mbytes
Step c_2 Press Volume TotEng KinEng PotEng v_press c_1[4] c_4[1] c_4[2] c_4[3] 
       0     230.5118   -489.65769    216156.16    -20242.45    1460.1128   -21702.563    -1477.152    32.278379    39.431224    39.229282    23.611744 
     200    224.93636   -341.77788    216156.16   -20243.379    1424.7967   -21668.176   -818.65012    33.305988    39.432508    39.229003    23.593163 
     400    235.12352   -379.36155    216156.16   -20237.363    1489.3244   -21726.687   -969.97315    33.997538     39.43563    39.229869    23.563608 
     600    241.53034   -308.92418    216156.16   -20111.757    1529.9067   -21641.663   -604.76012    34.702937    39.437107     39.23047    23.556172 
     800    237.69776   -369.56136    216156.16   -20111.196    1505.6302   -21616.826   -950.40459    35.589065     39.43744    39.229068    23.544576 
    1000    232.98987   -320.17322    216156.16   -20208.001    1475.8094    -21683.81   -654.93318     36.86733    39.439188    39.230467    23.534586 
    1200     233.9334    -198.2418    216156.16   -20174.227    1481.7859   -21656.013   -183.45884    37.990141    39.439808    39.232092    23.551869 
    1400    233.24021   -282.87462    216156.16   -20156.905    1477.3951     -21634.3   -524.24842    39.313989    39.440019    39.232101    23.574934 
    1600    235.64814    -154.7216    216156.16     -20178.1    1492.6475   -21670.748    28.365429    40.767689    39.441511    39.234376    23.604321 
    1800    244.00482   -400.83102    216156.16   -20158.018    1545.5805   -21703.599   -1060.1959    41.562027    39.441352    39.235368    23.614051 
    2000    238.10538    -289.9369    216156.16   -20078.093    1508.2122   -21586.305   -568.38695    42.842616    39.442616    39.236222    23.611364 
    2200    230.44818   -395.79396    216156.16    -20114.68    1459.7098    -21574.39   -1042.6792    44.599167    39.443598    39.235868     23.62764 
    2400    233.19179   -369.40941    216156.16   -20105.807    1477.0884   -21582.895    -967.6668    45.201876    39.441387    39.236383    23.640045 
    2600     237.6336   -344.28844    216156.16   -20162.282    1505.2238   -21667.506   -852.44838    47.291931    39.440312    39.237315    23.641964 
    2800    236.77979   -495.92922    216156.16   -20061.518    1499.8156   -21561.333   -1467.6672    48.769657    39.440014    39.236821    23.632036 
    3000    238.21135   -402.87036    216156.16   -20046.565    1508.8834   -21555.448    -1086.536     50.69886    39.439372    39.239607    23.631591 
    3200    230.92907   -421.23597    216156.16   -20108.854    1462.7558    -21571.61    -1121.128    52.491975    39.438502    39.241088    23.633288 
    3400    234.61438   -425.00636    216156.16   -20117.791    1486.0994    -21603.89    -1171.163    54.246598    39.438474    39.240988    23.630461 
    3600    236.02332   -570.76891    216156.16   -20141.338    1495.0239   -21636.362   -1763.6007    55.631087    39.440561    39.242546    23.648206 
    3800    238.15119   -446.88192    216156.16   -20130.243    1508.5024   -21638.746   -1249.2961    57.425262    39.438804     39.24065    23.651649 
    4000    235.69721   -312.37188    216156.16   -20180.055    1492.9583   -21673.013   -654.10651    58.416933    39.439513    39.238595    23.647642 
    4200    234.45577   -384.87645    216156.16   -20129.951    1485.0948   -21615.046   -1003.5412    59.320927    39.439001     39.23849    23.611689 
    4400    228.69371   -420.26849    216156.16    -20147.32    1448.5966   -21595.917   -1088.0262     60.93446    39.439049    39.236034    23.618673 
    4600    232.56973   -418.65663    216156.16   -20198.608    1473.1482   -21671.756   -1130.5284     63.47058    39.441058    39.233646    23.615253 
    4800    233.35281   -520.33646    216156.16   -20084.146    1478.1084   -21562.254   -1527.4086    64.966268    39.439608    39.234909    23.594096 
    5000    234.69708   -347.34158    216156.16    -20154.97    1486.6232   -21641.593   -800.17757    65.796205    39.437029    39.234933     23.61583 
    5200    232.20022   -549.83455    216156.16   -20160.845    1470.8076   -21631.652   -1701.3144    67.300337    39.437955    39.235226    23.630743 
    5400    237.26331   -299.35005    216156.16   -20192.576    1502.8783   -21695.454   -643.95733    69.025118    39.436766    39.233443    23.667884 
    5600    229.02643   -397.42967    216156.16   -20231.897    1450.7041   -21682.601    -1030.953    70.686816    39.434095    39.231938     23.68303 
    5800    238.76258   -470.45184    216156.16   -20201.243     1512.375   -21713.618   -1378.4511    71.459151    39.434078    39.232555    23.677961 
    6000    232.93617   -527.25352    216156.16   -20229.369    1475.4693   -21704.839   -1555.0634    72.538392    39.432979    39.234057     23.67105 
    6200    233.87586    -445.6776    216156.16    -20225.73    1481.4215   -21707.152   -1191.8477    73.903587    39.431653     39.23371    23.648279 
    6400     234.0236   -455.92424    216156.16   -20253.452    1482.3573    -21735.81   -1259.1005    75.437453    39.431106    39.233377    23.648317 
    6600    232.05665   -384.09013    216156.16    -20252.24    1469.8982   -21722.138   -991.42893    75.452567     39.43056    39.235074     23.64698 
    6800    234.14832    -482.9556    216156.16   -20241.707    1483.1473   -21724.854   -1388.2029    77.318844    39.430349    39.234001    23.640527 
    7000     236.3554   -450.03076    216156.16   -20201.269    1497.1274   -21698.397   -1210.8381    78.841108     39.42628    39.232827    23.611823 
    7200    231.32472   -451.01094    216156.16   -20284.288     1465.262    -21749.55   -1238.0054    79.915231    39.426206    39.233081    23.623988 
    7400    233.81203   -465.11028    216156.16   -20278.955    1481.0172   -21759.972    -1324.793    80.884089    39.425076    39.235881    23.616737 
    7600    241.10753   -381.29097    216156.16   -20182.679    1527.2285   -21709.907   -991.45503    82.238145    39.425774    39.236258    23.590847 
    7800    231.71658   -375.16963    216156.16   -20293.227    1467.7441   -21760.971   -913.69059    84.164801    39.423713    39.233354    23.569054 
    8000    235.58027    -321.2433    216156.16   -20182.135    1492.2176   -21674.353   -682.85663    84.122529     39.42418    39.233131    23.568626 
    8200    235.13399   -495.28862    216156.16   -20214.527    1489.3908   -21703.918   -1407.9914    84.538232    39.425559    39.233456    23.601614 
    8400    238.50324   -358.95059    216156.16   -20169.781    1510.7323   -21680.513   -879.17896    84.285392    39.426809     39.23324    23.609403 
    8600    234.40431   -442.14277    216156.16   -20217.572    1484.7688   -21702.341   -1181.8726    85.465955    39.425968    39.231459    23.615372 
    8800    235.25092    -477.1411    216156.16   -20242.273    1490.1314   -21732.405   -1329.2326    85.939357    39.425096    39.229361      23.6091 
    9000    236.36611   -483.21978    216156.16   -20213.671    1497.1953   -21710.867    -1380.328    87.265069    39.423384    39.229745    23.595015 
    9200    241.81653   -421.20364    216156.16   -20129.271    1531.7194    -21660.99   -1101.9662    88.868421     39.42045    39.230693    23.583769 
    9400     229.8577    -521.6382    216156.16   -20175.287    1455.9696   -21631.256   -1501.8633    89.616033    39.420602    39.232405    23.590553 
    9600     237.2297   -553.05345    216156.16   -20209.795    1502.6654   -21712.461   -1649.9312    90.125075    39.419735    39.233758    23.571342 
    9800     230.5741    -392.0478    216156.16   -20131.437    1460.5074   -21591.944   -946.33373    92.319749    39.419815    39.233477    23.567421 
   10000    236.81819   -330.05583    216156.16   -20159.297    1500.0588   -21659.356   -750.00178    93.949504    39.419282    39.233184    23.565184 
   10200    235.81183   -316.45656    216156.16   -20077.864    1493.6843   -21571.549   -726.04929    94.754977    39.420511     39.23323     23.56711 
   10400    239.64396   -511.76579    216156.16   -20073.191    1517.9579   -21591.149   -1459.5228    94.914443    39.420779    39.231883    23.566486 
   10600    237.78395   -469.75464    216156.16     -20165.8    1506.1762   -21671.976   -1336.8897    94.952218    39.422408    39.230013    23.594153 
   10800    231.37807   -493.48291    216156.16   -20233.023    1465.5999   -21698.623   -1413.5842      96.3476    39.422792     39.22857    23.598962 
   11000    234.74193   -366.21957    216156.16   -20197.566    1486.9074   -21684.474   -891.55717    98.231982    39.423096    39.228242    23.602441 
   11200    235.05425   -301.95769    216156.16   -20193.382    1488.8857   -21682.267   -617.72548    98.420801    39.420826    39.227519    23.610289 
   11400     230.1243   -366.36287    216156.16    -20177.09    1457.6583   -21634.748   -905.21089    98.735349    39.419121    39.228816    23.609541 
   11600    243.37895   -423.47558    216156.16   -20086.768    1541.6161   -21628.384   -1129.9441    100.47389    39.417843    39.231098     23.61031 
   11800    240.62357   -319.87065    216156.16   -20111.113     1524.163   -21635.276   -722.02607    103.60753    39.417981    39.231601    23.616938 
   12000    235.30309   -475.45114    216156.16   -20085.685    1490.4618   -21576.147   -1323.9419    104.68125    39.417147    39.230322    23.646911 
   12200    239.36391   -445.92716    216156.16   -20095.443     1516.184   -21611.627   -1242.8503    106.08191    39.418846     39.23075    23.662362 
   12400    229.29665   -352.81288    216156.16   -20099.131    1452.4157   -21551.547   -855.57827    106.10846    39.419887    39.228541    23.676993 
   12600    236.94276    -465.2706    216156.16    -20057.97    1500.8479   -21558.818   -1287.6477    107.17618    39.421163    39.226531     23.66711 
   12800     238.8956   -429.91705    216156.16   -20118.577    1513.2176   -21631.794   -1160.1477    107.03179    39.420452    39.224921    23.660547 
   13000    232.28532   -437.86579    216156.16   -20134.319    1471.3466   -21605.665   -1219.9016    107.82663    39.420028    39.223115    23.654018 
   13200    234.27553   -428.03601    216156.16   -20158.138     1483.953   -21642.091   -1217.0238    109.57653    39.420335    39.223153    23.651409 
   13400      232.731   -481.81185    216156.16   -20250.446    1474.1697   -21724.615   -1403.6078    110.14695    39.421372    39.222503    23.632353 
   13600     232.8279    -515.4393    216156.16   -20229.966    1474.7834    -21704.75   -1551.4583    111.33353    39.422119    39.222194    23.638055 
   13800    242.87064    -425.1532    216156.16   -20177.481    1538.3964   -21715.878   -1150.5145    112.41086     39.42361    39.222551    23.629094 
   14000    237.60773   -254.27566    216156.16   -20110.713      1505.06   -21615.773   -414.11718     112.9904    39.423328    39.223728    23.631559 
   14200    234.91278   -457.95533    216156.16   -20154.819    1487.9896   -21642.808   -1296.9072    113.77999    39.423867    39.226388    23.644977 
   14400    236.84677   -314.46809    216156.16   -20218.457    1500.2399   -21718.697   -704.58452    113.78015    39.423672    39.227081    23.635113 
   14600    232.79841   -479.77079    216156.16   -20201.228    1474.5967   -21675.824   -1414.9256    115.45562    39.423412    39.227248    23.603335 
   14800    241.43669   -399.95975    216156.16    -20180.87    1529.3134   -21710.183   -1047.0248    115.17298    39.420889    39.226689    23.595743 
   15000    229.47953   -332.36061    216156.16   -20203.023    1453.5741   -21656.597   -765.87997    116.74034    39.421922    39.226281    23.604734 
   15200    242.68058   -229.26242    216156.16   -20181.163    1537.1925   -21718.355   -320.05207    118.78954     39.42464    39.225983    23.611617 
   15400    238.03966   -194.64905    216156.16   -20279.954    1507.7959    -21787.75   -187.36454    119.84641    39.425362    39.223808    23.615579 
   15600    241.77812    -436.0551    216156.16    -20105.04    1531.4762   -21636.516   -1174.1301    121.49079    39.423469    39.223343    23.594544 
   15800     238.5967   -468.92691    216156.16   -20133.982    1511.3243   -21645.306   -1302.2343     122.7092     39.42309    39.220833    23.607249 
   16000    240.22656   -375.53598    216156.16   -20160.227    1521.6482   -21681.875   -932.88072    123.84202    39.423767     39.22115    23.613643 
   16200    236.58288   -326.14486    216156.16   -20136.838    1498.5684   -21635.406   -745.64976    125.74862    39.423943    39.222013    23.617847 
   16400    234.51297   -429.73943    216156.16   -20178.741    1485.4571   -21664.198   -1154.2535    128.44929    39.421921    39.223327    23.599892 
   16600    240.11746   -309.48537    216156.16   -20090.145    1520.9572   -21611.102   -672.25639     130.5997    39.421427    39.220688    23.595701 
   16800    236.25547   -340.27159    216156.16   -20130.636    1496.4945    -21627.13   -780.10734    132.66233    39.424581    39.221754    23.602614 
   17000    238.91133   -389.93406    216156.16   -20147.509    1513.3172   -21660.826   -1041.8506    132.40948    39.426354    39.224593     23.60888 
   17200    233.97298   -329.15368    216156.16   -20149.392    1482.0366   -21631.428   -766.22349    131.68205    39.424436       39.223    23.594496 
   17400    229.64936   -336.09926    216156.16   -20209.254    1454.6498   -21663.904   -780.69894    132.16581    39.422205    39.221321    23.592375 
   17600    237.50181   -343.69103    216156.16   -20187.583     1504.389   -21691.972   -772.49673     133.6812    39.422979    39.222597    23.614415 
   17800    236.78383    -176.6591    216156.16   -20204.304    1499.8412   -21704.145   -93.438074    135.58487    39.420677    39.222221     23.62362 
   18000    242.49689   -318.29881    216156.16   -20162.357     1536.029   -21698.386   -688.33059    137.04072    39.421727    39.220763    23.628872 
   18200    238.88894   -365.92637    216156.16   -20189.122    1513.1754   -21702.297    -895.3085    137.13223    39.420238    39.218122    23.623494 
   18400    234.52988   -349.25463    216156.16   -20179.283    1485.5642   -21664.847   -855.92138    137.43033    39.420053    39.217803    23.651995 
   18600    240.02486   -242.70771    216156.16   -20154.548    1520.3706   -21674.919   -369.59532    137.27074    39.418495    39.216689    23.659789 
   18800    231.67393   -381.29016    216156.16   -20187.342     1467.474   -21654.816    -934.9793    138.68177      39.4167     39.21785    23.675027 
   19000    241.61922   -419.47502    216156.16    -20123.35    1530.4696    -21653.82   -1113.7834    140.07373    39.417886    39.219186    23.699907 
   19200    233.38819   -538.74746    216156.16   -20155.853    1478.3325   -21634.185   -1625.1689    142.24041    39.420307    39.223221    23.728502 
   19400    234.45439   -283.61084    216156.16     -20107.3     1485.086   -21592.386   -510.32665    144.25394    39.420284     39.22408    23.745472 
   19600    237.66105   -448.40992    216156.16   -20131.765    1505.3977   -21637.162   -1261.5165     144.4391    39.418788    39.224144    23.727458 
   19800    238.97752   -491.03473    216156.16   -20105.821    1513.7365   -21619.558   -1411.8264    145.02147    39.419012    39.224695    23.730938 
   20000    236.37189   -488.13514    216156.16   -20126.534    1497.2319   -21623.766   -1421.0414    146.17186    39.419059    39.225214    23.721947 
   20200    225.81784   -377.88147    216156.16   -20189.291    1430.3802   -21619.671   -934.20591    146.15297    39.417741    39.225259    23.713723 
   20400    238.53535   -326.30063    216156.16   -20113.593    1510.9357   -21624.529   -748.71631    147.39323     39.41819    39.223422    23.728924 
   20600     234.4913   -475.04966    216156.16   -20203.155    1485.3198   -21688.475   -1366.7646    147.61135    39.416866    39.221736      23.7331 
   20800    245.54358   -278.63106    216156.16   -20114.129    1555.3274   -21669.456   -447.66566    147.27281    39.414642    39.220538    23.712527 
   21000    234.29905   -326.44354    216156.16   -20156.198     1484.102     -21640.3    -749.5154    148.80921     39.41261    39.220131    23.727204 
   21200    238.98004   -371.53122    216156.16   -20122.398    1513.7525   -21636.151   -872.99461    149.63867    39.411943     39.22173    23.739148 
   21400    232.37838   -340.26355    216156.16    -20148.63    1471.9361   -21620.566   -785.94689    151.06609    39.411383    39.222206    23.735477 
   21600    242.10073    -443.2403    216156.16   -20055.045    1533.5196   -21588.565   -1256.6881     152.0384    39.411995    39.221789      23.7687 
   21800     234.8588   -183.88254    216156.16   -20151.379    1487.6477   -21639.026   -59.698775    151.44007    39.413818    39.220584    23.778044 
   22000    233.57687   -588.84403    216156.16   -20184.003    1479.5276   -21663.531   -1851.9493    151.38479    39.415553    39.219468    23.777993 
   22200     227.4332    -190.2193    216156.16   -20191.836    1440.6123   -21632.448   -162.32715     151.0932    39.417386    39.221564    23.769226 
   22400    231.43798    -466.3163    216156.16   -20094.881    1465.9794   -21560.861   -1376.3882    153.66608    39.418436    39.219495    23.754045 
   22600    233.40815   -345.79178    216156.16   -20113.401    1478.4589    -21591.86   -826.77163    154.01758    39.419428    39.217073    23.755927 
   22800    237.49832   -401.59581    216156.16    -20112.25    1504.3669   -21616.617    -1075.139    156.07887    39.418664    39.215854    23.753238 
   23000    235.12934   -400.97888    216156.16   -20198.218    1489.3613   -21687.579   -1027.0181    157.08891    39.418968    39.217163    23.741806 
   23200    238.75973   -440.80595    216156.16   -20148.546     1512.357   -21660.903   -1202.0341    157.50578    39.418835     39.21546    23.731545 
   23400    233.61495   -247.86784    216156.16   -20174.693    1479.7688   -21654.462   -438.48704    157.75413    39.420109    39.215218    23.730772 
   23600    236.08578   -353.28833    216156.16   -20111.114    1495.4196   -21606.534   -830.24938    158.75409    39.421773    39.214909    23.734422 
   23800     239.2722   -280.36325    216156.16   -20142.237    1515.6031    -21657.84   -561.25566    159.35893     39.41892    39.215004    23.731002 
   24000    230.49178    -232.4807    216156.16   -20193.206    1459.9859   -21653.191   -315.19549    161.14673    39.417329    39.214103    23.732938 
   24200    232.40825   -349.75166    216156.16     -20187.1    1472.1253   -21659.225   -879.19468    163.05389    39.417846    39.215871    23.733683 
   24400    237.50171   -526.20865    216156.16   -20218.978    1504.3884   -21723.367    -1622.509    165.49557    39.416932    39.213853    23.743487 
   24600    228.52451   -423.22783    216156.16    -20223.19    1447.5248   -21670.715   -1173.1261    166.74021     39.41611    39.212467    23.739768 
   24800    231.79908   -376.92463    216156.16   -20209.502    1468.2667   -21677.768   -958.44148    166.67629    39.416074    39.213494    23.740797 
   25000    234.20509   -463.00689    216156.16   -20223.605    1483.5069   -21707.112   -1294.2191     167.6732    39.416037     39.21568    23.733636 
   25200    224.97448   -428.34607    216156.16   -20313.139    1425.0381   -21738.178   -1168.9714    169.47338    39.416182    39.214498    23.745925 
   25400    233.65401   -430.91558    216156.16    -20201.42    1480.0162   -21681.436   -1233.8413    169.58578    39.417244    39.216729    23.725902 
   25600    247.04978   -238.06922    216156.16   -20070.657     1564.868   -21635.525   -366.52337    171.01464    39.418841    39.218848    23.729566 
   25800    235.44361   -313.32853    216156.16   -20100.166     1491.352   -21591.518   -687.93088    172.64904     39.41937    39.218087    23.736189 
   26000    233.84882   -409.37718    216156.16   -20162.954    1481.2502   -21644.204   -1107.4352    174.63286    39.421659    39.218513     23.73504 
   26200    233.61071   -456.19288    216156.16   -20169.739     1479.742   -21649.481   -1277.7003    176.08808    39.422715     39.21942    23.735182 
   26400    234.55686   -459.99006    216156.16   -20219.925    1485.7351    -21705.66   -1290.9408    177.38916    39.424493     39.22014    23.755582 
   26600    238.77471   -422.39227    216156.16   -20176.998    1512.4518    -21689.45   -1103.9972    178.20938     39.42701    39.221201    23.756661 
   26800    233.16133    -452.2183    216156.16   -20208.145    1476.8955    -21685.04   -1280.1395    179.73741    39.426076    39.221456    23.748204 
   27000    238.25858   -444.33123    216156.16   -20173.416    1509.1826   -21682.599    -1247.942    180.91801     39.42414    39.224705     23.75688 
   27200    237.14204   -360.26719    216156.16   -20183.942    1502.1102   -21686.052   -859.24769    181.04686    39.422713    39.225269    23.780396 
   27400    237.12629   -306.18931    216156.16   -20156.214    1502.0104   -21658.224   -640.97181    182.31954      39.4221    39.224812    23.779774 
   27600    231.00264   -425.19606    216156.16   -20283.621    1463.2218   -21746.843   -1167.9374      183.089    39.419986    39.226325    23.780385 
   27800    234.71607   -203.18389    216156.16   -20165.932    1486.7435   -21652.676   -180.11913    182.92695    39.419708    39.225096    23.769602 
   28000    227.36108    -437.2807    216156.16   -20244.883    1440.1554   -21685.038   -1246.4109    184.78216    39.418046    39.224366      23.7714 
   28200    230.06344    -433.0635    216156.16   -20219.496    1457.2727   -21676.769   -1236.1018    185.74728    39.417115      39.2261    23.741864 
   28400    232.83429   -539.64021    216156.16    -20210.47    1474.8239   -21685.294    -1628.088    187.40572    39.419103    39.226262    23.726014 
   28600    233.62547   -355.89972    216156.16   -20248.665    1479.8354   -21728.501   -843.68003     187.5103    39.418853    39.224264    23.735644 
   28800    231.60972   -378.26321    216156.16    -20220.72    1467.0672   -21687.787   -937.11402    189.57321    39.419571    39.223966    23.744634 
   29000    239.87931   -334.19184    216156.16   -20220.843    1519.4487   -21740.292    -793.3961    191.79752    39.416303    39.225137    23.738868 
   29200    238.55152   -365.13607    216156.16   -20132.071    1511.0381   -21643.109   -888.95821    192.63248    39.415885     39.22519    23.739832 
   29400    234.37484   -374.00492    216156.16   -20139.379    1484.5821   -21623.961   -872.85589    192.46339    39.416946    39.225028     23.72884 
   29600    236.52393   -381.76194    216156.16   -20134.761    1498.1949   -21632.956   -916.93686    192.78757    39.419379    39.225956    23.723532 
   29800    231.48419   -370.19591    216156.16   -20235.424    1466.2721   -21701.696   -954.37402    192.75347    39.421049    39.224909    23.695677 
   30000     229.0707   -401.78157    216156.16   -20287.436    1450.9845   -21738.421   -1074.9448    193.98332    39.422627    39.223353     23.72177 
   30200    232.75131   -445.79473    216156.16   -20256.813    1474.2983   -21731.112   -1247.9958    194.44594    39.424155     39.22208    23.722074 
   30400    231.01525   -333.65729    216156.16   -20237.415    1463.3017   -21700.717   -769.21844     194.6929    39.426124    39.223443    23.711351 
   30600    234.31376   -242.32699    216156.16   -20267.537    1484.1952   -21751.732   -366.56739    194.30955    39.428173     39.22487    23.708062 
   30800    237.76856   -284.11649    216156.16   -20233.468    1506.0787   -21739.546    -530.1461    193.78197    39.427647    39.224043    23.719932 
   31000    233.94684   -309.67013    216156.16   -20211.918    1481.8711   -21693.789   -667.93359    196.30685    39.427939    39.224785    23.716591 
   31200    234.15206   -402.19876    216156.16   -20167.784     1483.171   -21650.955   -1048.3306    197.62937    39.428542    39.225376    23.723897 
   31400    228.74779   -317.00621    216156.16    -20143.44    1448.9391   -21592.379   -683.16549     199.0319    39.428141    39.226583    23.726467 
   31600    232.96917   -342.27676    216156.16   -20168.785    1475.6783   -21644.464   -847.38307    198.93164    39.427053    39.227039    23.725361 
   31800    240.04876   -344.52834    216156.16   -20091.321     1520.522   -21611.843   -827.39631    200.28546    39.425844    39.230567    23.737055 
   32000     227.3339   -389.19018    216156.16   -20196.371    1439.9833   -21636.354   -977.07666    201.65567    39.426495    39.232939    23.748976 
   32200    232.85923   -415.17957    216156.16   -20205.282    1474.9819   -21680.264   -1097.5525    203.18081    39.427919    39.236704    23.750365 
   32400    225.02677   -543.00512    216156.16   -20226.346    1425.3694   -21651.716   -1649.6836     204.4446    39.428504    39.237486    23.755345 
   32600    232.27561   -64.815745    216156.16   -20133.766    1471.2851   -21605.051    341.54216    205.28385    39.428555    39.236819    23.761026 
   32800    241.99013   -347.73511    216156.16   -20130.031    1532.8191    -21662.85   -801.19687    205.37616    39.430593    39.236434     23.77689 
   33000    242.15542   -501.78665    216156.16   -20104.843    1533.8661   -21638.709   -1502.9791    206.29435    39.432093    39.235817    23.798172 
   33200    233.40602   -389.65444    216156.16   -20168.186    1478.4454   -21646.631   -1028.2115    206.46798    39.431958    39.234878    23.796669 
   33400    234.63752    -326.9792    216156.16   -20194.902     1486.246   -21681.148   -742.82202    206.25492    39.429043    39.235896    23.788086 
   33600    227.58403   -518.93939    216156.16   -20202.108    1441.5676   -21643.675   -1589.9757    205.63009    39.428111    39.235751    23.794531 
   33800    243.92281   -360.06498    216156.16   -20029.396    1545.0611   -21574.457   -798.70282    205.16109    39.428138    39.235109    23.800153 
   34000    227.05331   -504.34222    216156.16   -20141.416    1438.2059   -21579.622   -1530.5848    207.81453    39.428513    39.236968    23.793549 
   34200    240.96144   -380.58056    216156.16   -20155.562    1526.3031   -21681.865   -961.40345    209.01421    39.427549    39.238772    23.805064 
   34400    235.02138   -358.05478    216156.16   -20223.255    1488.6774   -21711.933   -914.88823    210.46105    39.426516    39.239488    23.796334 
   34600    238.93861   -345.98752    216156.16   -20072.642      1513.49   -21586.133   -783.89534    212.42927    39.425358    39.239609    23.824815 
   34800     235.3797   -253.77378    216156.16   -20140.519    1490.9471   -21631.466   -443.97474    212.85036    39.424216    39.240668    23.840671 
   35000    234.38745    -313.9062    216156.16   -20155.882     1484.662   -21640.544   -707.99709    213.79399     39.42194    39.238836    23.851527 
   35200    239.01721   -440.45151    216156.16   -20086.717    1513.9879   -21600.705   -1221.3745    214.21495    39.420931    39.236299    23.844512 
   35400    238.38654   -260.87757    216156.16   -20119.361    1509.9931   -21629.354   -480.31397    214.51831    39.421627    39.235864    23.820794 
   35600    235.76229   -284.67544    216156.16   -20123.302    1493.3705   -21616.673   -542.78979    216.07795    39.423976    39.236454    23.821958 
   35800    240.80927   -534.62198    216156.16   -20067.142    1525.3392   -21592.482   -1643.9856     217.2575    39.421211    39.235271    23.812017 
   36000    234.76601   -371.08853    216156.16   -20210.757    1487.0599   -21697.817   -934.98658    218.18839    39.419875     39.23315     23.80955 
   36200    231.09766   -517.72136    216156.16   -20215.671    1463.8238   -21679.495   -1529.6581    218.14433     39.42223    39.233237    23.797806 
   36400    237.78869   -423.19612    216156.16    -20161.47    1506.2062   -21667.676   -1124.3959    218.14123    39.423118    39.229807    23.777114 
   36600      235.721   -361.95362    216156.16   -20133.878     1493.109   -21626.987   -862.14405    219.41562    39.422401    39.229829    23.795958 
   36800    228.37357   -256.92558    216156.16    -20194.76    1446.5688   -21641.329    -428.5883    220.58972    39.423149    39.231145    23.807194 
   37000    231.44825   -255.72081    216156.16   -20190.595    1466.0445    -21656.64   -425.15016    222.19183     39.42574    39.232061    23.829442 
   37200    229.69515    -384.0823    216156.16   -20194.075    1454.9399   -21649.015   -979.10937    221.31744    39.427724     39.23113    23.823078 
   37400     232.6969   -414.60401    216156.16   -20234.265    1473.9537   -21708.219   -1067.5039    221.91217     39.42484    39.231753    23.815795 
   37600    228.70108    -202.4863    216156.16    -20234.57    1448.6432   -21683.213   -192.57265    223.22947    39.423185    39.233504    23.791907 
   37800    230.96978   -223.53778    216156.16   -20237.712    1463.0137   -21700.726   -315.77494    225.22448    39.425217    39.231383     23.79969 
   38000     236.8251    -258.3051    216156.16   -20154.009    1500.1026   -21654.111   -408.88885    226.42243    39.425687    39.231723    23.790902 
   38200    242.02293   -288.11823    216156.16   -20169.953    1533.0268    -21702.98   -574.23775     226.6204     39.42467    39.233392    23.819695 
   38400    241.73856   -464.48506    216156.16   -20133.749    1531.2255   -21664.975   -1348.2936    226.80093    39.426202    39.233213    23.798807 
   38600    235.09702    -467.1011    216156.16   -20189.532    1489.1566   -21678.689   -1315.2103    227.73409    39.425713    39.235809    23.791997 
   38800      238.116   -294.51413    216156.16   -20182.233    1508.2794   -21690.512   -602.89134    228.64112     39.42593    39.234362    23.792095 
   39000    236.44322   -468.80322    216156.16   -20127.137    1497.6837   -21624.821    -1312.182    230.83413    39.428107    39.232982    23.765433 
   39200    224.35724   -421.24209    216156.16   -20220.136    1421.1284   -21641.265   -1099.1783    232.28082    39.428587     39.23291    23.772327 
   39400    236.20782   -406.98902    216156.16   -20190.829    1496.1926   -21687.022   -1092.1169     234.1054    39.427126    39.231936    23.777636 
   39600     236.6409   -351.07237    216156.16   -20139.434    1498.9359    -21638.37   -872.13978    234.61486    39.426404     39.23224    23.794528 
   39800    232.98028   -388.71866    216156.16   -20185.889    1475.7487   -21661.637   -999.84156     236.2211    39.426734    39.230671    23.797178 
   40000    240.42636   -201.42002    216156.16   -20196.226    1522.9138    -21719.14   -218.26062    237.23427    39.427183    39.230281    23.785527 
   40200    234.82553   -388.19597    216156.16   -20230.193    1487.4369    -21717.63   -1005.6726    239.85849     39.42475    39.231094     23.80055 
   40400    229.53485   -518.99575    216156.16    -20270.26    1453.9245   -21724.185   -1582.0965    241.10487    39.422373    39.233948    23.767047 
   40600    231.11352    -283.1957    216156.16   -20186.124    1463.9242   -21650.048   -489.41867    241.43259    39.420809    39.232786    23.766059 
   40800    236.77121    -365.5869    216156.16   -20258.259    1499.7613   -21758.021   -891.33862    242.55578    39.422778    39.230232    23.742523 
   41000    229.93358   -462.57316    216156.16   -20237.366    1456.4502   -21693.816   -1277.5636    243.87915    39.426068    39.230438    23.746322 
   41200    234.96476   -362.02629    216156.16   -20134.092    1488.3188    -21622.41   -889.14835    244.14212    39.427366    39.231212    23.735742 
   41400    239.26713   -287.39836    216156.16   -20185.034     1515.571   -21700.605    -593.4465    244.16728    39.427265    39.232842    23.735186 
   41600    230.71235   -476.79789    216156.16   -20185.947    1461.3831    -21647.33   -1382.0111    247.02202    39.426219    39.233331    23.744915 
   41800    236.35761   -441.14343    216156.16   -20239.886    1497.1414   -21737.028   -1220.7231    246.48799    39.423889    39.233005    23.745497 
   42000    233.18769   -443.66397    216156.16   -20256.431    1477.0625   -21733.493   -1218.6371    246.04963    39.421138    39.231997    23.734423 
   42200    227.86565   -439.26746    216156.16   -20306.005    1443.3514   -21749.356     -1215.06    247.16079    39.422773    39.228995    23.730128 
   42400    232.66447   -494.65151    216156.16   -20272.834    1473.7482   -21746.582   -1465.1641    249.34272    39.422392    39.228332      23.7316 
   42600    230.25791   -497.98731    216156.16   -20296.574    1458.5046   -21755.079   -1452.3018    249.79739    39.423945    39.228304    23.730866 
   42800    234.78719   -399.13208    216156.16   -20232.478     1487.194   -21719.672   -1037.1558    249.58661    39.426133    39.227533    23.746093 
   43000    236.31085   -380.54405    216156.16   -20216.528    1496.8452   -21713.373   -986.95217    249.99161    39.427823    39.227262    23.753555 
   43200    234.38644   -317.40666    216156.16    -20259.81    1484.6556   -21744.466   -660.13196    252.51741    39.426523    39.227089     23.73782 
   43400    236.98475   -315.90037    216156.16   -20255.327    1501.1138   -21756.441   -650.50624    253.24374     39.42576    39.225612    23.728544 
   43600    232.35459   -338.70665    216156.16   -20280.798    1471.7854   -21752.583   -769.48233    253.55545    39.425716    39.223851    23.738456 
   43800    237.43576   -292.65549    216156.16   -20301.947    1503.9707   -21805.918   -617.28022    254.93424    39.424645    39.224054    23.735728 
   44000    227.74774   -349.61216    216156.16   -20322.422    1442.6046   -21765.027   -809.64835    255.33583    39.424903    39.223076    23.717054 
   44200    232.63549   -566.45827    216156.16   -20269.701    1473.5647   -21743.265   -1739.8151    256.11794    39.426547    39.225467    23.720649 
   44400     232.0558   -459.09498    216156.16   -20266.409    1469.8928   -21736.302   -1296.9484    256.02746    39.425664    39.227062    23.737228 
   44600    226.94982   -399.08452    216156.16   -20278.428    1437.5504   -21715.979   -1060.1906    256.27755    39.424536    39.226015    23.735213 
   44800    230.07597   -620.08113    216156.16   -20273.872    1457.3521   -21731.225   -1926.1871    257.93347    39.425153    39.223756    23.737996 
   45000    241.00106   -357.50399    216156.16   -20218.933     1526.554   -21745.487   -867.60577     259.0431     39.42598    39.226596    23.729289 
   45200    233.74255   -371.92225    216156.16   -20181.178     1480.577   -21661.755   -944.89627    260.36508    39.424339    39.227149    23.734826 
   45400    232.65677   -437.11747    216156.16   -20252.116    1473.6995   -21725.815   -1191.3549    261.16921    39.421267    39.226153    23.732369 
   45600      235.575   -445.67402    216156.16   -20176.179    1492.1842   -21668.363   -1252.1223    260.40501    39.420215    39.226459    23.748556 
   45800    236.89724   -565.57395    216156.16   -20222.346    1500.5596   -21722.905   -1763.9001     261.9659    39.419391    39.225921    23.738608 
   46000    243.68466    -261.4698    216156.16   -20175.061    1543.5526   -21718.614   -466.03743    262.56629    39.420414     39.22593    23.744258 
   46200    239.22859   -417.87736    216156.16   -20152.686    1515.3269   -21668.013   -1118.2965    261.59965    39.422516    39.226114    23.760557 
   46400    234.00609   -386.54649    216156.16   -20204.528    1482.2464   -21686.775   -1026.3696    262.05919    39.424499    39.225665    23.767258 
   46600    238.32929   -443.93251    216156.16   -20194.485    1509.6305   -21704.116   -1288.6873    262.96758    39.424183    39.227451    23.769597 
   46800    235.76299   -408.04376    216156.16   -20155.664     1493.375   -21649.039   -1063.2274    265.00158    39.422617    39.225961    23.746256 
   47000    233.20539   -326.22924    216156.16    -20116.07    1477.1745   -21593.245    -753.2227    264.29537    39.423082    39.226436    23.748115 
   47200    230.24309   -431.63038    216156.16    -20253.94    1458.4107   -21712.351   -1206.6238    264.47681    39.422363     39.22673    23.747314 
   47400    231.94201   -488.21998    216156.16   -20172.175     1469.172   -21641.347   -1446.6406    266.36888    39.423609    39.223726     23.72655 
   47600    235.39717   -304.90381    216156.16   -20183.832    1491.0578    -21674.89    -626.8601    267.91206    39.421742    39.222557    23.713792 
   47800    233.75801   -304.82007    216156.16   -20213.493     1480.675   -21694.168   -709.76218    268.85382    39.421489    39.220431    23.712226 
   48000    233.56251   -365.44706    216156.16   -20194.533    1479.4366    -21673.97   -919.26393    268.39879    39.419696    39.218763    23.704907 
   48200    233.77578    -422.9945    216156.16   -20185.276    1480.7876   -21666.063   -1168.3716    270.08508    39.420883    39.218232    23.712436 
   48400    238.29932   -223.55986    216156.16   -20172.582    1509.4407   -21682.023   -258.77404    270.15183    39.421036    39.218538    23.709874 
   48600     236.6717   -438.51986    216156.16   -20243.762     1499.131   -21742.893   -1225.0296    271.42077    39.421259    39.217749     23.70946 
   48800    237.55741   -481.70548    216156.16   -20228.476    1504.7412   -21733.217   -1361.9632    271.94673    39.421232    39.218932    23.714835 
   49000    232.56377   -339.78936    216156.16    -20222.11    1473.1104    -21695.22   -785.68356    273.32908    39.421363    39.217837    23.720929 
   49200    232.59812   -451.58916    216156.16   -20171.313     1473.328   -21644.641   -1299.2208     274.5399    39.421028    39.218107    23.731743 
   49400    229.41701   -577.59219    216156.16   -20232.467    1453.1781   -21685.645   -1823.4693    275.51995     39.42109    39.218703    23.716667 
   49600    234.07569   -423.74247    216156.16   -20220.043    1482.6872    -21702.73   -1166.2151    275.35804    39.420883     39.22143     23.73819 
   49800     234.7108   -160.23279    216156.16   -20184.891    1486.7102   -21671.601   -13.554585    277.23233    39.419109    39.222279    23.764624 
   50000    232.82707   -488.50708    216156.16    -20168.09    1474.7782   -21642.869   -1382.6946    277.71019    39.419587    39.219584    23.751445 
   50200     239.9564   -515.56473    216156.16   -20089.353    1519.9369    -21609.29   -1551.2895    278.20354    39.419947    39.220069    23.743485 
   50400    241.03031   -462.24944    216156.16   -20145.146    1526.7394   -21671.885     -1320.95    279.82203    39.420352    39.219978    23.732467 
   50600    238.46221   -443.95884    216156.16   -20080.207    1510.4724   -21590.679   -1236.0425    281.76054    39.419049    39.219851    23.741805 
   50800      226.747   -375.39759    216156.16   -20233.036    1436.2657   -21669.302   -951.60922    281.77767     39.41825    39.220214    23.764062 
   51000    236.24835   -387.83147    216156.16   -20206.023    1496.4494   -21702.472    -1037.946    282.31301    39.419373     39.22188      23.7574 
   51200    236.83243   -347.64128    216156.16   -20234.264    1500.1491   -21734.413   -828.87305    283.78084    39.422005    39.223306    23.771623 
   51400    241.12727   -268.32143    216156.16   -20267.217    1527.3535    -21794.57   -487.33307    285.11386     39.42227     39.22398    23.763875 
   51600    230.30247   -484.00951    216156.16   -20284.748    1458.7868   -21743.535   -1442.0989    285.51286    39.423265    39.224372    23.747353 
   51800    233.35513   -464.60034    216156.16    -20222.72     1478.123   -21700.843   -1354.9142     285.6787    39.421728    39.222929    23.772628 
   52000    238.86949   -347.51637    216156.16   -20281.524    1513.0522   -21794.576   -813.15883    286.41319    39.419605    39.222008    23.769331 
   52200    230.15919   -336.80309    216156.16   -20303.579    1457.8792   -21761.458   -762.75204    286.21965    39.418901     39.22258    23.765082 
   52400    229.57167   -362.75965    216156.16   -20301.164    1454.1578   -21755.322   -852.81518    286.55769    39.419093    39.222708    23.762848 
   52600    236.47864   -176.43881    216156.16     -20209.9    1497.9081   -21707.808    -57.52161    287.64171    39.418924    39.223456    23.770545 
   52800    239.40206   -437.81025    216156.16   -20136.267    1516.4256   -21652.692   -1200.6299    288.53493    39.418368      39.2251    23.769068 
   53000    241.59552   -448.31683    216156.16   -20134.564    1530.3195   -21664.884   -1274.6951    290.08828    39.422756    39.226214    23.762385 
   53200    237.23315   -308.28853    216156.16   -20234.129    1502.6873   -21736.817   -647.40647    290.16502    39.425572    39.227068    23.772564 
   53400    233.52614   -434.65216    216156.16   -20210.171    1479.2063   -21689.377   -1203.7203    291.30128    39.426566    39.227179    23.750238 
   53600    232.20632    -333.3514    216156.16   -20279.995    1470.8463   -21750.842   -764.67304    292.16442    39.426439    39.227146    23.737426 
   53800    234.29904   -305.84298    216156.16   -20237.415     1484.102   -21721.517   -631.37742    292.60566    39.427906     39.22719    23.748721 
   54000    235.02659   -221.66596    216156.16   -20227.708    1488.7104   -21716.419   -289.77698    293.48957    39.427935    39.227653    23.759101 
   54200    241.50339   -494.96856    216156.16   -20172.047    1529.7359   -21701.783   -1469.6483    294.89001    39.428132     39.22807    23.765319 
   54400    238.04282   -368.76215    216156.16   -20135.839    1507.8159   -21643.655   -885.06318    296.83633    39.429476    39.229715    23.745919 
   54600    237.24313   -432.44284    216156.16   -20187.042    1502.7505   -21689.793   -1168.8806    296.00376    39.429378     39.22958    23.731033 
   54800    235.84642   -499.73134    216156.16   -20168.712    1493.9034   -21662.615   -1481.9407    295.75482     39.42782    39.229505    23.751943 
   55000     242.1146   -347.48374    216156.16   -20129.114    1533.6075   -21662.721   -808.48674    296.90346     39.42648     39.22836    23.746221 
   55200    227.99562   -548.36624    216156.16    -20274.55    1444.1747   -21718.725    -1733.144    297.41118    39.426554    39.226778    23.748959 
   55400    229.59416   -499.20543    216156.16   -20218.937    1454.3002   -21673.237   -1542.9925    298.23966    39.428529    39.227417    23.763004 
   55600    232.12829    -312.2875    216156.16   -20210.029     1470.352   -21680.381   -667.67239    298.68991    39.429857    39.227833    23.749569 
   55800    232.81161   -267.86118    216156.16   -20094.518    1474.6803   -21569.198   -540.61376    298.50971    39.430044    39.224835    23.744486 
   56000    232.93023    -377.5742    216156.16   -20130.793    1475.4316   -21606.225   -983.94354     299.1783    39.431712     39.22241     23.73679 
   56200    243.12145   -511.16142    216156.16   -20134.309    1539.9851   -21674.295   -1506.0586    299.50477    39.430509    39.224032    23.739919 
   56400    231.29247   -442.64626    216156.16   -20268.855    1465.0577   -21733.913   -1249.1682    300.69421    39.431458     39.22329    23.732201 
   56600    227.83433   -491.67824    216156.16   -20322.587    1443.1531    -21765.74   -1446.4915    302.13539    39.429892    39.224275    23.740739 
   56800     236.8055   -303.76675    216156.16   -20235.325    1499.9785   -21735.304   -665.02797    303.27094     39.43033    39.223051    23.742343 
   57000    230.59816   -408.76402    216156.16   -20286.279    1460.6598   -21746.938   -1074.3301    305.03385    39.431486    39.221113    23.731973 
   57200    235.35931   -379.86062    216156.16   -20175.522     1490.818    -21666.34   -991.97742    304.86946    39.432523    39.222104    23.730867 
   57400    235.28783   -375.56143    216156.16   -20222.871    1490.3652   -21713.237    -952.1053    304.63869    39.429861    39.219606    23.734803 
   57600    222.77741    -366.8638    216156.16   -20232.072    1411.1214   -21643.194   -915.64909    308.42647    39.430316    39.218767    23.748982 
   57800    235.20159   -570.25042    216156.16   -20176.823     1489.819   -21666.642   -1785.0228    308.47529    39.430247    39.217504    23.730173 
   58000    238.60188   -373.68963    216156.16   -20181.736    1511.3572   -21693.093   -925.17487    308.72121    39.429425    39.216458    23.689902 
   58200    236.69305   -262.98439    216156.16   -20120.583    1499.2662   -21619.849   -520.73292      309.222    39.428295    39.216155    23.662687 
   58400    234.99428   -483.48706    216156.16   -20155.898    1488.5058   -21644.404   -1405.1311    309.89651    39.430486    39.217304    23.683163 
   58600    234.24894   -501.10413    216156.16   -20197.552    1483.7847   -21681.337   -1448.9419    309.94972    39.431925    39.218163    23.697633 
   58800    231.82692   -396.27139    216156.16   -20179.624     1468.443   -21648.067   -1029.6971    312.45554    39.431786    39.219799     23.69758 
   59000    241.77654   -190.23864    216156.16   -20133.344    1531.4661    -21664.81   -226.78148    313.35022    39.431037    39.220239    23.710692 
   59200    236.26186   -268.05424    216156.16   -20195.493    1496.5349   -21692.028   -497.36424    314.74523    39.431007     39.21944    23.705781 
   59400    233.58595   -293.39009    216156.16    -20174.22    1479.5851   -21653.805   -609.27342    315.86784     39.42971    39.217663    23.707351 
   59600    226.58751   -459.39204    216156.16   -20206.824    1435.2555    -21642.08   -1287.4401    316.77187     39.43022    39.219466    23.740248 
   59800    235.38309   -361.08653    216156.16   -20141.717    1490.9686   -21632.685   -893.36819    315.09132    39.431868    39.218422    23.749565 
   60000    239.80224   -348.56694    216156.16   -20108.016    1518.9604   -21626.976    -841.4039    316.87459    39.434535    39.217268    23.751085 
   60200    241.25001   -365.72949    216156.16   -20170.093     1528.131   -21698.224   -866.21023    318.71981    39.434998    39.218557    23.751856 
   60400     232.1565    -199.7575    216156.16   -20133.391    1470.5306   -21603.922   -213.31098    319.18022    39.435075    39.216502    23.740249 
   60600    241.25615   -371.97381    216156.16    -20121.32    1528.1699    -21649.49   -925.74479    320.90805    39.434391    39.216768    23.741892 
   60800    239.99046   -347.79558    216156.16   -20088.993    1520.1527   -21609.146   -803.70728    322.22064    39.434595    39.215175    23.757077 
   61000     229.1815   -255.58694    216156.16   -20171.791    1451.6864   -21623.478    -452.0544    323.11575    39.435203    39.213003    23.765213 
   61200    239.94502   -229.12853    216156.16   -20099.187    1519.8649   -21619.051   -317.57835    324.47049    39.436797     39.21318    23.767616 
   61400    233.99239   -232.21094    216156.16    -20115.93    1482.1596    -21598.09   -384.39629     324.8698     39.43844     39.21367    23.780423 
   61600    230.46864   -250.20043    216156.16   -20106.548    1459.8394   -21566.388   -440.48643    325.43791    39.439503    39.215208    23.779517 
   61800     229.8393    -473.6794    216156.16   -20171.894     1455.853   -21627.747   -1336.1965     327.5916    39.439804    39.216206    23.769994 
   62000    233.53163   -304.16908    216156.16   -20112.309    1479.2411    -21591.55   -613.76737    327.88904    39.440397     39.21545    23.739558 
   62200    238.45377   -331.09592    216156.16   -20088.224     1510.419   -21598.643   -738.66245    327.61141    39.441238    39.216974     23.74152 
   62400     244.3279    -404.2858    216156.16   -20087.392     1547.627   -21635.019   -1060.9898    329.35528    39.443851    39.219875    23.741478 
   62600    233.32086   -420.73464    216156.16   -20165.023     1477.906   -21642.929    -1130.459    330.76559     39.44273    39.220932     23.75861 
   62800      229.902   -236.34436    216156.16    -20255.27    1456.2501    -21711.52   -328.63879    331.45152    39.445055    39.219713    23.753859 
   63000    234.25182   -415.98035    216156.16   -20162.203    1483.8029   -21646.006   -1137.8091    331.20707    39.445992    39.219108    23.740037 
   63200    229.91202   -475.73355    216156.16   -20188.739    1456.3136   -21645.053   -1366.6804    331.08145     39.44766    39.220112    23.747369 
   63400    231.08346   -303.79754    216156.16   -20266.187    1463.7338   -21729.921   -605.20926    331.41239     39.44859    39.218792    23.718418 
   63600    233.06955   -193.25624    216156.16   -20226.108    1476.3141   -21702.422    -149.8647    332.04874    39.449168     39.21665    23.700857 
   63800    239.78476   -323.65263    216156.16   -20228.663    1518.8498   -21747.513   -701.46773    333.62734    39.452809    39.216305    23.674965 
   64000    236.72326   -451.88954    216156.16    -20142.63    1499.4575   -21642.088   -1285.5852    334.57886    39.452607    39.215498    23.673103 
   64200    234.62584   -378.32669    216156.16    -20131.16     1486.172   -21617.332   -963.01412     336.2005    39.452666    39.213332     23.67413 
   64400    231.62304   -335.19338    216156.16   -20144.416    1467.1516   -21611.568   -809.99404    337.94401    39.449556    39.212577    23.676419 
   64600    229.05934   -431.98265    216156.16   -20177.039    1450.9126   -21627.951   -1162.2554    339.62545    39.448025    39.212924    23.687169 
   64800    235.49534   -328.36916    216156.16   -20182.244    1491.6796   -21673.924    -759.1885    340.62049    39.447125    39.212195    23.673834 
   65000    235.62118   -431.28431    216156.16   -20133.211    1492.4767   -21625.688   -1193.1982    341.85368    39.445655     39.21213    23.671263 
   65200    240.55579   -414.84052    216156.16   -20166.367    1523.7336   -21690.101    -1087.051    343.47345    39.446585    39.213502    23.667552 
   65400    237.19092   -401.38988    216156.16   -20187.138    1502.4198   -21689.558   -1025.8861     342.9408    39.445713    39.211895    23.635195 
   65600    238.92178   -279.80409    216156.16   -20146.616    1513.3834       -21660   -562.01156    343.63152    39.446608    39.213922    23.641124 
   65800     236.2678    -466.1354    216156.16   -20163.558    1496.5726    -21660.13   -1323.0739    343.36488    39.448338    39.214411    23.629419 
   66000    234.73063   -250.80805    216156.16   -20164.876    1486.8357   -21651.711   -389.97445    342.67005    39.449392    39.213995    23.622823 
   66200    236.07176   -316.01269    216156.16   -20241.712    1495.3308   -21737.043   -680.94433    343.42824    39.446521    39.216934    23.622777 
   66400    230.98197   -376.04439    216156.16   -20248.051    1463.0909   -21711.142    -907.2891    345.20807    39.444227    39.217044    23.618274 
   66600    235.94399   -459.27032    216156.16   -20261.753    1494.5215   -21756.275   -1249.5916     349.0077    39.443408     39.21677    23.624451 
   66800    235.43937   -325.03363    216156.16   -20218.814    1491.3251   -21710.139   -672.01113    349.68089    39.441693    39.214766    23.615943 
   67000    227.92205   -292.54411    216156.16   -20284.515    1443.7087   -21728.224   -529.26677    350.30315    39.439706    39.214959    23.616122 
   67200    234.85069   -478.72789    216156.16   -20236.869    1487.5963   -21724.466   -1406.0513    350.23413    39.442327    39.212865    23.626099 
   67400    238.76937   -269.93278    216156.16   -20186.084     1512.418   -21698.502    -457.8567    350.35574    39.443057    39.212788    23.631133 
   67600    236.43127   -361.51743    216156.16   -20169.612     1497.608    -21667.22    -832.3073    350.76728    39.442469    39.214117    23.605835 
   67800    239.50664    -405.9283    216156.16   -20216.038    1517.0881   -21733.126   -1074.2097     350.5836    39.442494    39.214047    23.585408 
   68000    230.80594   -307.94256    216156.16   -20268.127    1461.9759   -21730.103   -661.98452    351.77626    39.446252    39.213345    23.577333 
   68200    237.24689   -415.06137    216156.16    -20252.02    1502.7743   -21754.795   -1144.5432    351.80745    39.446579    39.214721    23.560232 
   68400    242.27976   -329.49665    216156.16   -20209.918    1534.6536   -21744.572   -778.53522    351.19566    39.447197    39.211015    23.549093 
   68600    235.02591   -267.45314    216156.16    -20228.83    1488.7061   -21717.536   -479.93604    353.85087    39.447476    39.211827    23.561697 
   68800    235.46982   -366.66431    216156.16   -20199.801    1491.5179   -21691.319   -906.74808    355.55285    39.448648    39.211628    23.569134 
   69000    238.93962   -158.22694    216156.16   -20202.316    1513.4964   -21715.813   -22.906624    355.52234    39.447272    39.207841    23.580869 
   69200    232.44126   -356.97531    216156.16   -20261.654    1472.3344   -21733.988   -882.70565    356.37468    39.445835     39.20747    23.595167 
   69400    228.75393   -296.91849    216156.16   -20279.389     1448.978   -21728.367   -586.57908    356.34922    39.443561    39.208994    23.601468 
   69600    241.89157   -367.55357    216156.16   -20101.365    1532.1948    -21633.56   -884.63365    356.35378    39.443455    39.209504    23.611387 
   69800    231.70641   -359.82388    216156.16   -20232.356    1467.6797   -21700.036   -921.77911     357.7858    39.443461    39.208309    23.612817 
   70000    235.98164   -377.83215    216156.16   -20200.086      1494.76   -21694.846   -921.71015    358.18528    39.443772    39.205628    23.604973 
   70200    234.59044   -437.95368    216156.16   -20200.349    1485.9478   -21686.297   -1237.5563     361.3916    39.441927    39.202634    23.621779 
   70400    240.05475   -389.75675    216156.16   -20156.544    1520.5599   -21677.103   -1001.5998     362.9428    39.442281    39.203394    23.628581 
   70600    233.87477   -176.21188    216156.16   -20210.612    1481.4146   -21692.027   -102.20352    364.57106       39.441    39.203849    23.632808 
   70800    236.13359    -332.5346    216156.16   -20198.339    1495.7224   -21694.061    -739.5228    365.58651     39.44065    39.206327    23.643494 
   71000    229.92502   -410.88692    216156.16   -20210.127     1456.396   -21666.523    -1141.945    365.94096    39.439703    39.207006    23.676783 
   71200    236.33696   -535.79055    216156.16   -20210.915    1497.0106   -21707.925    -1580.583    366.09296     39.43985    39.205729    23.695278 
   71400    231.34527   -456.25749    216156.16   -20228.209    1465.3921   -21693.601   -1323.8793    365.83986    39.439505    39.205683    23.707338 
   71600    236.58099   -495.91656    216156.16   -20167.712    1498.5564   -21666.269   -1455.0297    366.55958    39.441175    39.205048    23.681361 
   71800    225.86339   -508.61643    216156.16   -20249.376    1430.6687   -21680.045   -1529.7284    366.99114    39.440725    39.204453    23.703824 
   72000    228.18677   -252.95358    216156.16   -20230.581    1445.3855   -21675.966   -416.10484    366.65169    39.441426    39.203843    23.712314 
   72200    240.93309    -387.1688    216156.16     -20068.1    1526.1235   -21594.223   -998.09401      366.917     39.44087    39.202468    23.714542 
   72400    236.43453   -383.25963    216156.16   -20174.813    1497.6286   -21672.441   -978.11493    368.45109    39.441899    39.204033    23.708101 
   72600     234.3267   -462.41938    216156.16   -20139.925    1484.2772   -21624.202   -1324.2897    370.20361    39.441837    39.204014     23.72358 
   72800    239.57912    -328.3555    216156.16   -20144.719    1517.5472   -21662.266   -736.46102     369.2918    39.444592    39.201271     23.71996 
   73000    236.16992   -458.40529    216156.16    -20175.88    1495.9526   -21671.832    -1299.869    371.31867    39.447457    39.201999    23.721855 
   73200    234.84183   -227.77141    216156.16    -20114.05    1487.5401   -21601.591   -278.97885    371.28039    39.446706    39.198973    23.721254 
   73400    226.31256   -445.48243    216156.16   -20102.328    1433.5139   -21535.842    -1234.847    371.49049    39.447427    39.197316    23.740052 
   73600    236.39931   -166.70463    216156.16   -20095.986    1497.4056   -21593.392   -111.84419    373.93114    39.448668    39.197012     23.73807 
   73800    230.97902   -420.45513    216156.16    -20215.03    1463.0723   -21678.102    -1132.555    375.47849    39.447493    39.196941    23.729508 
   74000    230.36763   -249.43504    216156.16   -20204.199    1459.1996   -21663.399   -427.98226    374.42417    39.446223    39.196925    23.719237 
   74200    235.53656   -373.72966    216156.16   -20121.257    1491.9407   -21613.198   -956.76008    376.59322    39.446375    39.196556    23.707403 
   74400    242.53911   -376.33807    216156.16   -20140.377    1536.2964   -21676.673     -970.139    377.77693    39.444484    39.197104    23.684789 
   74600    229.93894   -500.11872    216156.16   -20187.559    1456.4842   -21644.043   -1482.8809     378.0845      39.4407     39.19976    23.694793 
   74800     234.6691   -387.41611    216156.16   -20197.376     1486.446   -21683.822   -999.48318    377.96393    39.439893    39.199868     23.69698 
   75000      236.397   -434.72857    216156.16   -20226.059    1497.3909    -21723.45   -1149.7207    380.37083    39.442392    39.201575     23.68019 
   75200    238.20204   -308.52383    216156.16   -20184.084    1508.8244   -21692.908   -681.74227    380.88026    39.441968    39.204187    23.664452 
   75400    231.85974    -384.5898    216156.16   -20251.665    1468.6509   -21720.316   -987.94401    379.65142    39.442705    39.203539    23.647698 
   75600    228.35863    -356.3958    216156.16   -20204.207    1446.4741   -21650.681   -848.91682    381.47528    39.443457    39.205872    23.642381 
   75800    238.28731   -385.85613    216156.16   -20152.473    1509.3646   -21661.838    -963.3557    382.71161    39.444702    39.207192    23.650636 
   76000    236.61067   -430.71569    216156.16    -20157.93    1498.7444   -21656.674   -1167.3439    384.78973    39.443799     39.21089     23.65483 
   76200    224.82281   -455.54564    216156.16   -20235.762    1424.0775    -21659.84   -1297.1945    386.00607    39.445146    39.212665    23.673703 
   76400    235.89848   -354.89096    216156.16   -20191.986    1494.2332   -21686.219   -877.54473    385.23566    39.444895    39.215366    23.682997 
   76600    231.14678   -430.12445    216156.16   -20155.017    1464.1349   -21619.152    -1182.796    385.45925    39.444223     39.21388    23.703537 
   76800    234.45876   -286.32242    216156.16   -20157.397    1485.1137    -21642.51   -573.37958    387.08898    39.444629    39.215977    23.700624 
   77000    231.47577   -345.56357    216156.16   -20122.939    1466.2188   -21589.157   -787.31763     388.2919    39.444498    39.217259    23.700015 
   77200    235.40215   -425.64203    216156.16   -20145.752    1491.0893   -21636.842   -1155.9514    387.81849    39.444915     39.21823     23.69329 
   77400    238.34052   -342.35368    216156.16   -20150.205    1509.7016   -21659.907   -813.48057    388.30451    39.444608    39.220801    23.699648 
   77600    231.50483    -217.3424    216156.16   -20193.524    1466.4028   -21659.927   -288.14088    388.77966    39.444169    39.220118    23.703961 
   77800    234.04799   -522.03407    216156.16   -20182.634    1482.5118   -21665.145   -1577.4079    390.69788    39.443713    39.219706     23.69343 
   78000    231.15157   -571.79254    216156.16   -20213.966    1464.1652   -21678.131   -1796.2297    390.92612    39.444271    39.219328    23.697789 
   78200    241.62329   -260.16077    216156.16   -20150.006    1530.4954   -21680.502    -437.8377    391.08309    39.442904    39.218081    23.709728 
   78400    234.59571   -161.32889    216156.16   -20142.423    1485.9812   -21628.405    -69.18409    390.28663    39.441843    39.215663    23.716029 
   78600    241.64065   -445.35751    216156.16   -20175.648    1530.6054   -21706.253   -1279.4774    392.30729    39.440269    39.214305    23.730081 
   78800    238.43599   -533.82277    216156.16    -20157.59    1510.3064   -21667.896   -1601.9389    393.83679    39.440087    39.217145    23.725194 
   79000    238.96271   -485.84285    216156.16   -20117.772    1513.6427   -21631.415   -1456.2221    397.42609     39.43987    39.218207    23.747536 
   79200    238.41593   -258.17935    216156.16   -20143.315    1510.1793   -21653.494   -472.29182    397.57805    39.440174    39.217643     23.75533 
   79400    248.08884   -293.42918    216156.16   -20147.373    1571.4496   -21718.823   -616.38469    397.09626    39.441563     39.21923    23.746841 
   79600    230.64148   -367.22758    216156.16   -20275.585    1460.9342   -21736.519   -898.93178    396.27414    39.442201    39.221189    23.712968 
   79800    230.14961    -372.0078    216156.16     -20255.6    1457.8186   -21713.418   -942.84671    397.44738    39.440357    39.222753    23.713739 
   80000    233.03427   -320.67799    216156.16   -20294.608    1476.0907   -21770.699   -706.47361    396.19496    39.441103    39.221519    23.724116 
   80200     232.9737   -429.55841    216156.16   -20258.633     1475.707    -21734.34    -1198.164    396.38593    39.441372    39.223624    23.700362 
   80400     226.6006   -115.92276    216156.16   -20226.242    1435.3384    -21661.58    113.70052    396.10193     39.44249    39.224701    23.693862 
   80600    236.62116   -304.43016    216156.16   -20212.328    1498.8108   -21711.139   -661.23103    398.05992    39.441868     39.22536    23.693276 
   80800    237.42325   -297.56352    216156.16   -20213.134    1503.8914   -21717.026    -580.9023    399.08998    39.443123    39.224585    23.697024 
   81000    238.47461   -408.22096    216156.16   -20202.821     1510.551   -21713.372   -1106.0462    400.36562    39.443378    39.225336    23.687473 
   81200    231.17179   -503.78954    216156.16   -20197.753    1464.2933   -21662.046   -1514.9099    401.78084     39.44308    39.226555    23.677547 
   81400    233.99133   -366.11948    216156.16   -20180.885    1482.1529   -21663.038   -871.64992    401.95337    39.443359    39.226459    23.693951 
   81600    232.35827   -439.40238    216156.16   -20212.605    1471.8087   -21684.413   -1255.8788    402.22298    39.443269    39.224936    23.692232 
   81800    233.72605   -465.87908    216156.16   -20240.977    1480.4725    -21721.45   -1355.4448    402.42085    39.444122    39.224024    23.689497 
   82000    232.80635   -497.46587    216156.16   -20195.016     1474.647   -21669.663    -1508.485    402.03686    39.443404    39.222644    23.705537 
   82200    237.52539   -496.39283    216156.16   -20109.147    1504.5384   -21613.686   -1418.2224    405.44127     39.44126    39.221312    23.698695 
   82400    239.87807   -527.63349    216156.16   -20160.724    1519.4408   -21680.165   -1600.0604    405.61326    39.439235    39.220712    23.676278 
   82600    237.52263   -614.07986    216156.16   -20080.464    1504.5209   -21584.985   -1947.1272     404.6187    39.436726    39.220066    23.675179 
   82800     238.6139   -401.76081    216156.16   -20172.835    1511.4333   -21684.269    -1039.198    406.00394    39.435542    39.218488    23.680168 
   83000    233.03695   -385.11336    216156.16   -20101.199    1476.1076   -21577.307    -981.0718    406.88722    39.437337    39.219179    23.677171 
   83200    238.05689   -450.27102    216156.16   -20105.905    1507.9051    -21613.81   -1222.4256    407.77397    39.436743    39.218139    23.672754 
   83400    234.45039   -354.85176    216156.16   -20128.304    1485.0606   -21613.365   -880.25443    408.15819     39.43818    39.217208    23.675452 
   83600    237.61629    -344.9026    216156.16   -20233.341    1505.1142   -21738.455   -781.04059      410.226     39.44062     39.21357    23.676728 
   83800    231.20755    -525.9993    216156.16    -20190.17    1464.5198    -21654.69   -1560.3359    411.62875    39.442378    39.212157    23.687355 
   84000    238.92534   -487.00018    216156.16   -20169.839     1513.406   -21683.245   -1414.7738    412.12208    39.443544    39.210808    23.686593 
   84200    243.24569     -331.196    216156.16    -20178.11     1540.772   -21718.882   -750.78549    412.31047    39.442131    39.213552    23.678607 
   84400    238.94242   -367.80722    216156.16   -20237.085    1513.5142     -21750.6   -919.60544    414.28476    39.442511    39.212178    23.694995 
   84600    233.87513   -431.69066    216156.16    -20190.53    1481.4168   -21671.947   -1130.6156    413.87738    39.442879    39.212189    23.673907 
   84800    237.47035   -332.43486    216156.16   -20237.619    1504.1898   -21741.808   -794.01346    413.95793    39.443609    39.211226    23.672248 
   85000    233.80672   -408.87161    216156.16   -20187.627    1480.9835   -21668.611    -1071.587    414.51605    39.444123    39.212346    23.677164 
   85200    233.96991   -264.21904    216156.16   -20191.933    1482.0172    -21673.95   -441.91721    412.58778    39.444099    39.213643    23.669897 
   85400    233.59776   -160.93864    216156.16   -20234.808    1479.6599   -21714.468   -10.405532    413.04702    39.446863    39.213683    23.650209 
   85600    231.44268   -390.16914    216156.16   -20224.786    1466.0092   -21690.795    -1002.245    415.44071    39.447901    39.211102    23.630056 
   85800     233.0658   -200.02085    216156.16    -20164.63    1476.2904    -21640.92   -253.17766    418.21178    39.449167    39.210259    23.637641 
   86000    234.51308   -252.97813    216156.16   -20186.519    1485.4578   -21671.976   -474.91499     418.6806     39.44802     39.21187    23.641002 
   86200    236.51395   -390.18859    216156.16   -20155.707    1498.1317   -21653.839   -1020.9284    420.68531    39.449582    39.211584    23.669926 
   86400    230.73445    -359.3036    216156.16   -20185.832    1461.5231   -21647.355    -909.8741    420.59296    39.448241    39.208143    23.671564 
   86600    233.73108    -418.3647    216156.16   -20121.772    1480.5044   -21602.277   -1145.2318     420.7707    39.450997    39.206432    23.660504 
   86800    230.47862   -300.90518    216156.16   -20213.151    1459.9026   -21673.054   -632.21642    420.44284    39.450878    39.207183    23.630101 
   87000     239.0743   -483.63805    216156.16   -20153.043    1514.3496   -21667.393   -1379.2633    421.47952     39.45196    39.208155    23.633908 
   87200    236.12489   -413.00802    216156.16   -20151.073    1495.6674   -21646.741   -1103.1252    422.76321     39.45222    39.207344    23.641819 
   87400    229.65433   -354.02161    216156.16   -20254.991    1454.6814   -21709.672   -872.54834    423.96449    39.451014    39.207529       23.633 
   87600    230.53577   -233.56082    216156.16   -20175.664    1460.2646   -21635.929   -318.85074      421.662     39.45004    39.207743    23.640663 
   87800    231.42133   -275.20335    216156.16   -20191.015     1465.874   -21656.889   -541.94671    420.89131    39.452183    39.204431    23.624284 
   88000    234.74244   -223.52071    216156.16   -20194.539    1486.9105    -21681.45   -300.59759    422.75897    39.452759    39.202286    23.615324 
   88200    231.82453   -419.80426    216156.16   -20241.391    1468.4279   -21709.819   -1156.1138    423.35318    39.455101    39.201311    23.625373 
   88400    237.14367   -468.09948    216156.16   -20180.935    1502.1205   -21683.055   -1333.9393    423.82349    39.456305    39.203963    23.626231 
   88600    237.50597   -551.24913    216156.16   -20222.212    1504.4154   -21726.627   -1696.4885    425.43502     39.45905    39.206719    23.622846 
   88800    229.46902   -462.93788    216156.16    -20225.92    1453.5076   -21679.428   -1329.6312    424.82814    39.458668    39.207053    23.634727 
   89000    230.29664   -472.87984    216156.16   -20234.377    1458.7499   -21693.127   -1373.0017    424.79243    39.460097    39.205949     23.63339 
   89200    236.99252   -401.18772    216156.16   -20218.747    1501.1631   -21719.911   -1094.1558    423.26653    39.460093    39.203178    23.638733 
   89400    239.74212   -258.79756    216156.16   -20226.385    1518.5797   -21744.965   -456.68162    425.15561     39.46039    39.201667    23.662201 
   89600    227.72645   -401.24605    216156.16    -20351.29    1442.4698    -21793.76   -1050.5077    427.18633    39.460943    39.199844    23.680267 
   89800    237.46505   -356.58566    216156.16   -20246.545    1504.1562   -21750.702   -854.75776    426.85332    39.463009    39.198554    23.686772 
   90000    232.41889   -324.74318    216156.16   -20246.422    1472.1927   -21718.614   -740.96737    425.78483    39.462937    39.199266     23.67754 
   90200    232.61321   -508.87744    216156.16   -20233.146    1473.4235    -21706.57    -1508.322    425.28845     39.46197    39.200639    23.673206 
   90400    234.19143   -297.89518    216156.16   -20195.438    1483.4204   -21678.859   -647.87664    426.46295     39.46099    39.203687    23.662266 
   90600    232.87891    -379.0208    216156.16    -20213.41    1475.1066   -21688.517   -962.12016    427.75864    39.462815     39.20601    23.650341 
   90800    231.59314   -465.89334    216156.16   -20193.489    1466.9622   -21660.451   -1337.1022    429.09097    39.461967    39.206892    23.662357 
   91000    236.94432   -222.70659    216156.16   -20240.642    1500.8578     -21741.5   -273.91578    430.17375    39.461557    39.207376    23.658513 
   91200    231.09648   -382.78604    216156.16   -20304.225    1463.8162   -21768.041   -952.62656    431.10428    39.462643    39.206689    23.675458 
   91400    235.00283   -359.97996    216156.16   -20228.336    1488.5599   -21716.896   -857.25178    431.46486     39.46437    39.204936    23.683789 
   91600    238.10061   -380.81187    216156.16    -20152.39     1508.182   -21660.572   -935.46235      432.191      39.4667    39.203659    23.690966 
   91800    234.30586   -480.66904    216156.16   -20168.569    1484.1452   -21652.714   -1416.6433    433.40693     39.46614    39.207421     23.70032 
   92000    230.61871   -423.84035    216156.16    -20131.79      1460.79    -21592.58    -1184.453    432.58514    39.464643    39.208057    23.698906 
   92200    235.77641   -342.02071    216156.16   -20178.859      1493.46   -21672.319   -802.69022    431.63335    39.462772    39.207684    23.704475 
   92400    236.65646   -339.49023    216156.16   -20196.709    1499.0344   -21695.744   -833.59601    433.42672    39.464127    39.206595    23.684012 
   92600    240.20509   -381.11267    216156.16   -20156.833    1521.5122   -21678.345   -1017.1326    438.13481    39.464536    39.209139    23.652677 
   92800    238.76268   -423.02439    216156.16   -20246.851    1512.3757   -21759.227   -1123.9107    437.81662     39.46141    39.209715    23.630697 
   93000    229.25819   -590.49278    216156.16   -20250.044    1452.1721   -21702.216   -1869.6182    438.47384    39.459498    39.209942    23.640765 
   93200    236.05014   -548.33893    216156.16   -20207.126    1495.1938    -21702.32   -1619.3547    439.33262    39.457655    39.210149    23.652169 
   93400    229.96264    -225.4809    216156.16   -20261.917    1456.6343   -21718.552    -320.4898    439.11508     39.45695    39.209465    23.639378 
   93600    232.37149   -466.23195    216156.16   -20243.981    1471.8925   -21715.873   -1357.7221    438.71363    39.457659    39.208845    23.642855 
   93800     227.5111   -367.54907    216156.16    -20259.34    1441.1057   -21700.446   -905.99978    439.91279    39.458659    39.206071    23.614601 
   94000    232.94441   -462.47265    216156.16   -20265.026    1475.5215   -21740.547   -1365.8739    440.87078    39.460041     39.20749    23.627501 
   94200    238.94479    -377.2311    216156.16   -20177.098    1513.5292   -21690.628   -994.04102    440.83371    39.459693     39.20633    23.614602 
   94400    227.62346   -432.20171    216156.16   -20214.905    1441.8174   -21656.722   -1186.8989    441.06765    39.460983    39.203883    23.610063 
   94600    225.54234   -449.02229    216156.16   -20179.416    1428.6351   -21608.051   -1256.9008    442.43138    39.461465    39.204457    23.626121 
   94800    232.98255   -284.81577    216156.16   -20149.738     1475.763   -21625.501   -527.20514      444.057    39.464276    39.204432    23.605787 
   95000    231.73936   -477.33024    216156.16    -20222.53    1467.8884   -21690.419   -1332.8802    445.85264    39.462715    39.203704    23.604135 
   95200    225.94358   -384.14292    216156.16   -20227.456    1431.1766   -21658.632   -932.55995    446.12294    39.463595    39.203843     23.61846 
   95400    232.75336   -312.56336    216156.16   -20198.814    1474.3113   -21673.125   -679.42807    447.80652    39.463986     39.20499    23.607992 
   95600    240.07606   -439.48804    216156.16   -20168.053    1520.6949   -21688.748   -1152.0749    449.94493    39.461791    39.204467    23.604498 
   95800    236.64672   -460.96196    216156.16   -20167.673    1498.9727   -21666.646   -1313.1281    449.33272    39.461315    39.206313    23.578049 
   96000    237.60755   -434.46036    216156.16   -20189.506    1505.0588   -21694.565   -1191.7279    448.98456    39.458169    39.206238    23.593801 
   96200     241.1393    -434.5058    216156.16   -20167.743    1527.4297   -21695.173   -1170.8129    449.79758    39.457184     39.20477    23.581242 
   96400    231.13068    -282.7436    216156.16    -20227.81    1464.0329   -21691.843    -494.8906    449.94245    39.457547    39.203941    23.596256 
   96600    234.26308   -208.84956    216156.16   -20227.389    1483.8742   -21711.263   -239.62628    451.02023    39.457796    39.205295    23.585249 
   96800    240.13679   -367.05796    216156.16    -20138.09    1521.0796   -21659.169    -937.0344    452.81834    39.456801     39.20748    23.591162 
   97000    234.55921   -305.87712    216156.16   -20200.272    1485.7499   -21686.022   -646.33301    453.81054    39.454362    39.207206    23.614168 
   97200    237.43487   -469.91274    216156.16   -20205.142    1503.9651   -21709.107   -1297.6882    454.82732    39.455456    39.207737    23.628632 
   97400    239.41581   -484.34193    216156.16    -20179.95    1516.5127   -21696.463   -1390.1408     453.9135    39.457447    39.210465    23.608371 
   97600     240.9489   -430.00163    216156.16   -20140.787    1526.2237   -21667.011   -1207.4893     454.7264    39.457421    39.210975    23.614744 
   97800    236.38963   -308.16696    216156.16   -20166.528    1497.3442   -21663.872   -639.60416    454.90486    39.460972    39.210277    23.627322 
   98000    234.15865   -306.14178    216156.16   -20213.336    1483.2127   -21696.549   -658.07644    456.25656    39.463289    39.209975    23.640307 
   98200     233.7066   -437.94588    216156.16   -20227.241    1480.3494   -21707.591   -1209.4865    455.90561    39.467334    39.209112    23.644328 
   98400    232.36229   -492.80506    216156.16   -20198.969    1471.8342   -21670.803   -1450.9417    458.70123    39.467353    39.209514    23.654657 
   98600    233.26664   -358.24533    216156.16   -20183.819    1477.5625   -21661.381    -894.4932    459.33528    39.463613    39.210638    23.663617 
   98800    236.60864   -437.50728    216156.16   -20176.186    1498.7315   -21674.917   -1133.9354     458.0322    39.462026    39.214224    23.670431 
   99000      234.779   -631.29073    216156.16   -20232.164    1487.1422   -21719.306   -2046.0948    460.07505    39.459699    39.213638    23.680912 
   99200    236.53536   -350.07096    216156.16   -20196.927    1498.2673   -21695.195   -795.74017     461.3926    39.459306     39.21307    23.697212 
   99400    233.25547   -446.72019    216156.16   -20181.837    1477.4918   -21659.328   -1223.8749    462.97627    39.459135    39.212205     23.71123 
   99600    235.71234    -401.7895    216156.16   -20194.071    1493.0542   -21687.125   -1045.9662    462.30362     39.45869    39.211812    23.712677 
   99800    233.30109   -363.88545    216156.16   -20200.939    1477.7807   -21678.719   -893.61534    461.72315    39.458721    39.213715    23.704526 
  100000    237.79314   -354.29557    216156.16   -20214.567    1506.2344   -21720.802   -852.34116     461.8578    39.458216    39.209994    23.690775 
  100200    221.80202   -335.92609    216156.16   -20279.263    1404.9431   -21684.206    -769.6258    462.68736    39.458619    39.206867     23.68694 
  100400    237.73697   -229.70865    216156.16   -20190.476    1505.8786   -21696.354   -340.54742    462.44863    39.457747    39.209224    23.666003 
  100600    231.43709   -485.53449    216156.16   -20205.693    1465.9737   -21671.667   -1410.1363    463.08987    39.457446    39.209251    23.641268 
  100800    234.51406   -285.81303    216156.16   -20290.021     1485.464   -21775.485    -557.4527    465.25422    39.460475    39.209365    23.635004 
[...]
 3976000    225.61687   -509.80119    216156.16   -22196.666    1429.1072   -23625.773   -1459.1139    5502.5174    39.337607    39.514135    23.662019 
 3976200    228.89658   -492.65178    216156.16    -22209.31    1449.8816   -23659.192   -1403.2373    5503.2966    39.337001    39.514597     23.66327 
 3976400    225.19354   -501.26703    216156.16   -22214.839    1426.4257   -23641.265   -1426.3891    5502.9703    39.337095    39.515344    23.661234 
 3976600    222.46556   -468.86935    216156.16   -22216.844    1409.1461    -23625.99   -1281.4631    5501.5332    39.336773    39.515792    23.665388 
 3976800    228.96108   -462.79762    216156.16   -22159.865    1450.2902   -23610.155   -1278.9797    5502.1976    39.336175    39.516438    23.660672 
 3977000     217.9577   -428.71965    216156.16   -22244.778    1380.5923    -23625.37   -1131.0274    5502.7252    39.335559     39.51609     23.66456 
 3977200    224.54494   -554.07473    216156.16   -22156.236    1422.3174   -23578.553   -1681.4334     5502.611    39.335792    39.516103    23.660277 
 3977400    223.67007   -489.90317    216156.16   -22166.832    1416.7758   -23583.608    -1367.138    5503.5233    39.335802    39.515789    23.663741 
 3977600    223.11152   -438.88015    216156.16   -22186.827    1413.2377   -23600.065   -1130.1352    5501.2208    39.335912    39.515031    23.664935 
 3977800    217.52699   -326.24064    216156.16   -22197.747    1377.8641   -23575.611   -724.60165    5502.3563    39.335651    39.514913      23.6649 
 3978000     219.3873   -482.50729    216156.16   -22224.869    1389.6477   -23614.517   -1360.0799     5500.922    39.336415    39.514144     23.66321 
 3978200     226.5768   -502.99416    216156.16   -22160.055    1435.1876   -23595.243   -1397.8862    5503.1972    39.336568    39.514203    23.657787 
 3978400    222.31076   -537.54712    216156.16   -22219.626    1408.1656   -23627.791   -1609.7119     5503.397    39.337233    39.514223    23.659957 
 3978600    223.69768   -480.01945    216156.16    -22178.82    1416.9506   -23595.771   -1378.2214    5503.0451    39.337193    39.514284    23.660484 
 3978800    226.97729   -412.37729    216156.16   -22156.846    1437.7244    -23594.57   -1080.5781    5503.1068    39.337583    39.515099    23.657838 
 3979000    223.56621    -482.3178    216156.16   -22173.659    1416.1179   -23589.777   -1365.1249    5501.9913    39.338154    39.515247    23.662703 
 3979200    226.49276     -433.577    216156.16    -22208.79    1434.6553   -23643.445   -1146.7006    5502.0035    39.339361    39.516368    23.657737 
 3979400    220.72827   -471.47132    216156.16   -22162.232    1398.1417   -23560.374   -1286.6914    5501.3576    39.339284    39.516431    23.656011 
 3979600    218.15571   -481.26612    216156.16   -22178.954    1381.8465   -23560.801   -1330.9384    5502.0599    39.339664    39.515584    23.653678 
 3979800    227.05625   -382.65274    216156.16   -22177.817    1438.2246   -23616.042   -913.26848     5500.978     39.34045    39.515275    23.655759 
 3980000    221.52402   -444.81769    216156.16   -22183.038    1403.1821    -23586.22   -1182.5862    5502.8115    39.340099    39.515171    23.657422 
 3980200     225.7004   -495.37933    216156.16   -22178.364    1429.6363       -23608   -1367.2408    5502.8659    39.339601    39.515056    23.658165 
 3980400    229.71805   -529.56413    216156.16   -22142.693     1455.085   -23597.778   -1538.8077     5503.765    39.339128    39.515274    23.661835 
 3980600    228.66045   -374.66712    216156.16   -22091.574    1448.3859    -23539.96   -871.69903    5504.1387    39.338564    39.514912    23.662237 
 3980800    227.49286   -409.85211    216156.16   -22131.658    1440.9901   -23572.648   -1054.3142    5502.3339    39.338294    39.515064    23.655714 
 3981000    222.29045   -409.95578    216156.16   -22156.039    1408.0369   -23564.076   -1015.8715    5501.5986    39.337569    39.515388    23.659089 
 3981200    224.56954   -649.82561    216156.16   -22145.279    1422.4732   -23567.752   -2046.3557    5503.9783    39.337558    39.515181    23.658197 
 3981400    229.97564   -461.72475    216156.16   -22132.549    1456.7166   -23589.266   -1288.8248    5501.6224    39.336909    39.514528    23.654269 
 3981600    226.23234   -374.48669    216156.16   -22186.383    1433.0057   -23619.389   -920.69906    5502.1633    39.337306    39.514186    23.653821 
 3981800     224.1398   -380.61368    216156.16   -22167.764    1419.7511   -23587.515   -913.96229    5501.7422    39.338143    39.512721    23.658026 
 3982000    218.97832   -469.89924    216156.16   -22211.169    1387.0571   -23598.226   -1315.9758    5501.9825    39.338935    39.511832     23.65113 
 3982200      217.588   -485.27137    216156.16   -22256.929    1378.2505    -23635.18   -1344.6136    5503.1011    39.337601    39.509964    23.655706 
 3982400     220.9006   -483.51371    216156.16   -22170.759    1399.2333   -23569.993   -1348.8458    5501.4885    39.337476    39.510096     23.65243 
 3982600    220.09123    -585.2902    216156.16   -22179.515    1394.1065   -23573.622   -1810.7985    5501.9593    39.337016    39.510262    23.648976 
 3982800     225.0507   -507.33165    216156.16   -22127.873     1425.521   -23553.394   -1456.7564    5503.5165    39.335617    39.509519    23.650943 
 3983000    229.25694   -407.78141    216156.16   -22100.867    1452.1642   -23553.031   -1054.9871    5502.1385    39.335963    39.509299    23.650043 
 3983200    225.73194    -508.5398    216156.16   -22129.564    1429.8361     -23559.4   -1497.0091    5502.1315    39.335641    39.508166    23.653716 
 3983400    227.56861   -533.79276    216156.16   -22098.178      1441.47   -23539.648   -1605.2787    5503.0096    39.334658    39.507509    23.650906 
 3983600    224.42933   -529.47014    216156.16   -22167.204    1421.5851   -23588.789   -1556.7981    5503.7716    39.335548    39.507204    23.651324 
 3983800    227.37066   -524.74614    216156.16   -22155.876    1440.2161   -23596.092   -1563.1816    5504.0005    39.336546    39.506727    23.649602 
 3984000    228.71951   -460.12971    216156.16   -22153.069      1448.76   -23601.829   -1262.2151    5503.4734    39.338324    39.505892    23.650538 
 3984200    229.04304   -501.73035    216156.16   -22125.864    1450.8093   -23576.674   -1431.1876    5503.0343    39.338374    39.506022    23.648952 
 3984400    227.24614   -484.94817    216156.16   -22173.374    1439.4273   -23612.801   -1373.5756    5502.9608    39.338162    39.506175    23.636178 
 3984600    221.43677   -456.07226    216156.16   -22183.078    1402.6295   -23585.707   -1250.1074    5502.3057    39.338601     39.50682    23.642538 
 3984800    228.75068   -486.14938    216156.16   -22149.788    1448.9575   -23598.746   -1342.4522    5503.7744    39.339051    39.507292    23.650309 
 3985000    221.89929   -457.36715    216156.16   -22183.539    1405.5592   -23589.098   -1217.1144    5501.7966    39.338257    39.508166    23.656528 
 3985200    226.66683   -464.61539    216156.16   -22141.733    1435.7578   -23577.491   -1277.9609     5502.535    39.338539     39.50894    23.652781 
 3985400    226.71451   -482.24055    216156.16   -22152.807    1436.0599   -23588.867   -1367.6562    5502.0253    39.338342    39.509277    23.649455 
 3985600    222.57077   -472.55864    216156.16   -22103.617    1409.8125    -23513.43   -1337.6823    5502.5823    39.338744    39.509149    23.650436 
 3985800    230.25455   -545.93708    216156.16   -22124.763    1458.4833   -23583.246   -1604.1493    5503.2961    39.339192    39.508534    23.655529 
 3986000    234.06212   -516.36043    216156.16   -22058.356    1482.6013   -23540.957   -1472.5442    5502.2457    39.338727    39.508522    23.650967 
 3986200    235.62671   -361.10495    216156.16   -22091.904    1492.5118   -23584.415   -837.94391    5502.4015    39.339961    39.508563    23.655193 
 3986400    225.09547   -482.11008    216156.16   -22188.143    1425.8045   -23613.947   -1370.2518    5500.5874    39.339211    39.508627    23.650341 
 3986600    221.24397   -452.83886    216156.16   -22152.088    1401.4083   -23553.497   -1202.3015    5502.2134    39.340049     39.50871    23.649927 
 3986800    222.64536   -534.94062    216156.16   -22147.716     1410.285   -23558.001   -1589.7972    5501.3454    39.340346     39.50878    23.655121 
 3987000    224.79397   -503.29936    216156.16   -22118.223    1423.8948   -23542.118   -1457.9054    5503.0863    39.341712    39.508523     23.65589 
 3987200    219.57646   -478.88413    216156.16   -22217.452    1390.8459   -23608.298   -1345.3406    5500.0206    39.342765    39.508824    23.656954 
 3987400    221.07475   -442.91594    216156.16   -22176.456    1400.3364   -23576.792   -1220.6831     5502.226    39.343784    39.507249    23.655915 
 3987600    227.30062   -524.74606    216156.16   -22113.704    1439.7724   -23553.476   -1579.6272    5503.6188    39.344977    39.505865    23.651746 
 3987800    221.20528   -482.95275    216156.16   -22158.821    1401.1632   -23559.984   -1384.5965    5503.6462    39.345652    39.505903    23.651026 
 3988000    227.71761   -420.67888    216156.16   -22111.827    1442.4137   -23554.241   -1078.8861    5503.4216    39.346013    39.505583     23.64788 
 3988200    225.65315   -370.38616    216156.16   -22149.988     1429.337   -23579.325   -884.18535    5500.3926    39.346614     39.50454    23.653874 
 3988400    228.00342   -448.15764    216156.16   -22126.953    1444.2241   -23571.177   -1239.8146    5502.0482    39.347814    39.503527    23.652749 
 3988600    221.28378   -423.40322    216156.16   -22179.373    1401.6604   -23581.034    -1109.006    5500.2414     39.34844    39.503626    23.662247 
 3988800    226.52134   -527.44903    216156.16   -22175.748    1434.8363   -23610.584   -1561.6802     5503.123    39.348322    39.502901    23.660234 
 3989000    229.59964   -491.99054    216156.16   -22100.383     1454.335   -23554.718   -1355.1502    5501.9452    39.347805    39.501931    23.658024 
 3989200    224.37292   -396.03578    216156.16   -22139.533    1421.2278   -23560.761   -1001.8691    5501.3884    39.348041    39.501404    23.658943 
 3989400    221.17751   -496.31984    216156.16    -22178.64    1400.9873   -23579.627   -1406.5619    5502.2309    39.347595    39.501082    23.655369 
 3989600    235.63006   -464.15216    216156.16   -22086.553    1492.5329   -23579.086   -1300.7355    5502.2338    39.348163     39.50032    23.658633 
 3989800    227.91182   -503.32439    216156.16   -22115.445    1443.6439   -23559.089   -1442.5658    5501.4411    39.349187    39.498912    23.655136 
 3990000    219.88683   -498.18174    216156.16   -22164.751    1392.8118   -23557.563   -1437.7579    5500.4721    39.348181    39.499232    23.659047 
 3990200    223.92868   -499.96754    216156.16   -22160.991    1418.4138   -23579.405   -1461.0719    5500.0111    39.348374     39.49849     23.66197 
 3990400    223.67764   -498.97581    216156.16   -22130.282    1416.8237   -23547.105   -1462.3619    5502.8931    39.346838    39.497883    23.659903 
 3990600    224.19422   -402.95149    216156.16   -22163.591    1420.0958   -23583.687    -1044.935    5500.2361    39.347348    39.496663    23.650249 
 3990800    225.80534   -432.23531    216156.16   -22135.996     1430.301   -23566.297   -1172.6892    5501.1976    39.347565    39.496327     23.66578 
 3991000    233.72613   -442.05947    216156.16   -22113.518     1480.473   -23593.991   -1201.3018    5501.0769    39.347726    39.495681    23.668843 
 3991200    223.57652   -460.56108    216156.16   -22104.241    1416.1832   -23520.424   -1282.6297    5500.9839    39.347988    39.495768     23.66336 
 3991400    228.81439   -453.95094    216156.16   -22104.275     1449.361   -23553.636   -1225.8865    5500.4797    39.346451     39.49489    23.663276 
 3991600    226.54289   -428.11379    216156.16   -22151.198    1434.9728   -23586.171   -1158.8065    5501.2322    39.346989    39.494823    23.662698 
 3991800    215.26818   -396.94651    216156.16   -22221.658    1363.5563   -23585.214   -987.89664     5500.575    39.347278    39.493069     23.65783 
 3992000    221.83029   -505.45553    216156.16   -22174.276    1405.1221   -23579.398   -1484.4648    5500.4211    39.347507     39.49445    23.659301 
 3992200    224.53467   -518.36145    216156.16   -22153.725    1422.2523   -23575.977   -1543.2606    5501.9662    39.348296    39.494384    23.658823 
 3992400    227.74703    -378.5153    216156.16   -22158.332    1442.6001   -23600.932   -893.30717    5500.4521    39.348168    39.494022    23.663919 
 3992600    227.53553   -475.34426    216156.16    -22153.35    1441.2604   -23594.611   -1339.1007     5500.291    39.348864     39.49286    23.663539 
 3992800    225.03466   -445.33504    216156.16   -22140.535    1425.4193   -23565.955    -1210.503    5501.1832    39.348956    39.492058    23.659643 
 3993000    217.39534    -535.1534    216156.16   -22230.355    1377.0302   -23607.385   -1563.9622    5500.3389    39.349007    39.492678    23.662405 
 3993200    226.52138   -490.14459    216156.16   -22139.116    1434.8366   -23573.952   -1409.2931    5502.6441    39.348958    39.492637    23.658605 
 3993400    224.78074   -464.67829    216156.16   -22107.342     1423.811   -23531.153   -1283.3853    5500.9403    39.349148    39.492801    23.663672 
 3993600    227.77283    -430.2689    216156.16    -22117.09    1442.7636   -23559.854    -1119.333    5500.9814    39.349822    39.492322    23.665738 
 3993800    219.44725   -501.40437    216156.16   -22137.564    1390.0274   -23527.592   -1429.9372     5498.874    39.351402    39.492457    23.654975 
 3994000    226.02597   -527.86087    216156.16    -22155.92    1431.6985   -23587.619   -1531.4053    5501.7317    39.351252    39.492497    23.658581 
 3994200    226.17546   -450.36372    216156.16   -22168.905    1432.6454    -23601.55   -1178.0495    5501.2202    39.352358    39.492241    23.662705 
 3994400    221.03761   -470.05561    216156.16   -22139.189    1400.1012    -23539.29   -1286.1141    5500.9041    39.353521    39.492538    23.666188 
 3994600    222.30847   -507.35143    216156.16   -22213.976    1408.1511   -23622.127   -1437.9149    5501.1483     39.35401    39.492211    23.669735 
 3994800    228.59895    -604.4471    216156.16   -22120.839    1447.9963   -23568.836   -1852.7292    5501.9527    39.355326    39.492183    23.673376 
 3995000    222.27088   -479.98956    216156.16   -22139.782     1407.913   -23547.695   -1324.8934    5500.5033    39.355876    39.491573    23.668329 
 3995200    220.81718   -435.80755    216156.16   -22188.293    1398.7049   -23586.998   -1188.6281    5501.2016    39.356438    39.491219    23.661632 
 3995400    225.82122   -515.42115    216156.16   -22129.788    1430.4016   -23560.189    -1523.452    5499.7586    39.359211    39.488998    23.663593 
 3995600    227.57624   -427.02771    216156.16    -22074.89    1441.5183   -23516.408   -1093.5628    5498.6973     39.35938    39.488883     23.66368 
 3995800    226.52881    -477.3322    216156.16   -22094.631    1434.8837   -23529.515   -1325.5286    5501.2544    39.360854    39.487566    23.665501 
 3996000    230.49279   -385.10274    216156.16   -22048.382    1459.9924   -23508.374   -985.19889    5500.1212    39.360316    39.487121    23.665291 
 3996200    226.28791   -447.97607    216156.16   -22125.005    1433.3577   -23558.363   -1222.5187    5499.1557    39.360235    39.486726    23.668777 
 3996400    224.68327   -511.50448    216156.16   -22154.339    1423.1936   -23577.532   -1491.6216    5502.1896    39.361091    39.486329    23.670686 
 3996600    228.54785   -490.61645    216156.16   -22138.778    1447.6727   -23586.451   -1393.7108    5501.5392    39.362519    39.485489    23.667626 
 3996800    218.68647   -527.55046    216156.16   -22167.089    1385.2085   -23552.297   -1552.6918    5502.6134    39.362382    39.484726     23.66434 
 3997000    234.90947   -481.95476    216156.16   -22063.926    1487.9686   -23551.894   -1355.5306    5500.9163    39.364098    39.484142    23.668576 
 3997200    224.62458   -490.97367    216156.16   -22129.185    1422.8218   -23552.007   -1376.6441    5502.4729    39.365092    39.484262    23.667901 
 3997400    220.12729    -429.3759    216156.16   -22197.335     1394.335    -23591.67   -1145.3732     5501.585    39.366492     39.48459    23.661978 
 3997600    229.11289   -372.55093    216156.16   -22124.328    1451.2518    -23575.58   -939.09046    5502.3445    39.366543    39.484173    23.662125 
 3997800    216.18089   -366.07835    216156.16   -22248.455    1369.3376   -23617.792   -881.04699    5501.4676    39.366479    39.484562    23.663554 
 3998000    221.86508   -513.02479    216156.16   -22174.696    1405.3425   -23580.038   -1513.9841    5501.9696    39.366192    39.484846    23.662596 
 3998200    219.44743   -465.44031    216156.16   -22216.186    1390.0286   -23606.215   -1304.2245    5502.8824    39.367433    39.484455    23.662918 
 3998400    226.92334   -450.94775    216156.16   -22077.319    1437.3827   -23514.702    -1231.007    5501.3518    39.368619    39.485448    23.664552 
 3998600    218.47174   -470.20383    216156.16   -22171.414    1383.8483   -23555.262   -1313.4377    5502.4212    39.369142    39.485453    23.667086 
 3998800    225.70484   -468.19921    216156.16    -22171.63    1429.6644   -23601.295   -1250.9011    5502.5268     39.36954    39.485392    23.667969 
 3999000    226.78148   -495.39177    216156.16   -22107.137    1436.4841   -23543.621   -1412.1826    5501.7978    39.368529    39.485396    23.665811 
 3999200    225.91587   -534.59284    216156.16   -22163.208    1431.0011   -23594.209   -1575.8112    5501.6131     39.36855    39.485698    23.664509 
 3999400    227.04735   -385.41127    216156.16   -22201.254    1438.1682   -23639.422   -927.17799    5501.5636    39.368924    39.486516    23.667725 
 3999600    217.42856   -404.59557    216156.16   -22215.747    1377.2406   -23592.987   -1022.2359     5502.243    39.370443    39.486408    23.662814 
 3999800    228.22639    -501.0423    216156.16   -22134.592    1445.6365   -23580.228   -1395.6365     5501.986    39.370574    39.486174    23.663386 
 4000000    231.17211   -623.68879    216156.16   -22127.989    1464.2953   -23592.284   -1965.7243    5502.5272     39.37059    39.486009    23.664715 
Loop time of 5713.88 on 64 procs for 4000000 steps with 9422 atoms

Performance: 604.843 ns/day, 0.040 hours/ns, 700.050 timesteps/s
99.0% CPU use with 64 MPI tasks x no OpenMP threads

MPI task timing breakdown:
Section |  min time  |  avg time  |  max time  |%varavg| %total
---------------------------------------------------------------
Pair    | 3.358      | 1813.7     | 4092.2     |3659.3 | 31.74
Neigh   | 4.403      | 208.79     | 443.77     |1121.5 |  3.65
Comm    | 643.03     | 2059.9     | 4195.4     |2583.7 | 36.05
Output  | 126.32     | 126.6      | 127.04     |   1.5 |  2.22
Modify  | 282.7      | 1390.2     | 4187.3     |4192.3 | 24.33
Other   |            | 114.7      |            |       |  2.01

Nlocal:        147.219 ave         282 max           0 min
Histogram: 16 0 2 14 0 0 0 6 11 15
Nghost:        828.609 ave        1028 max         637 min
Histogram: 11 11 8 2 0 0 0 15 7 10
Neighs:         0.00000 ave           0 max           0 min
Histogram: 64 0 0 0 0 0 0 0 0 0
FullNghs:      14840.6 ave       31677 max           0 min
Histogram: 16 16 0 0 0 0 0 6 13 13

Total # of neighbors = 949796
Ave neighs/atom = 100.80620
Neighbor list builds = 424456
Dangerous builds = 0
write_data 		${DIR}/data.${NAME}_run
write_data 		run_9/data.${NAME}_run
write_data 		run_9/data.ibeam_cooling_9_run
System init for write_data ...
Total wall time: 1:35:28
