
# Create simulation box and atoms
lattice		    sc 1
Lattice spacing in x,y,z = 1 1 1
region 		    all block 0 100 0 100 0 100 units box
region		    bubble sphere 50.0 50.0 50.0 27.0 side in
create_box 	    1 all
Created orthogonal box = (0 0 0) to (100 100 100)
  2 by 2 by 3 MPI processor grid

create_atoms	1 random 32768 83782 all
Created 32768 atoms
  Time spent = 0.00301313 secs
delete_atoms	region bubble
Deleted 2674 atoms, new total = 30094
fix 		5 all indent 10.0 sphere 50.0 50.0 50.0 24.0

mass		    1 18.15

# Define potential

pair_style 	    sw
pair_coeff	    * * mW_real.sw mW
Reading potential file mW_real.sw with DATE: 2019-02-27

# Run minimization and output files

minimize 	    1.0e-8 1.0e-8 10000 1000
WARNING: Using 'neigh_modify every 1 delay 0 check yes' setting during minimization (../min.cpp:168)
Neighbor list info ...
  update every 1 steps, delay 0 steps, check yes
  max neighbors/atom: 2000, page size: 100000
  master list distance cutoff = 6.3065
  ghost atom cutoff = 6.3065
  binsize = 3.15325, bins = 32 32 32
  1 neighbor lists, perpetual/occasional/extra = 1 0 0
  (1) pair sw, perpetual
      attributes: full, newton on
      pair build: full/bin/atomonly
      stencil: full/bin/3d
      bin: standard
Per MPI rank memory allocation (min/avg/max) = 4.323 | 4.335 | 4.344 Mbytes
Step Temp E_pair E_mol TotEng Press 
       0            0     29720259            0     29720259    2835500.6 
     880            0   -337127.31            0   -337127.31   -996.10169 
Loop time of 14.6128 on 12 procs for 880 steps with 30094 atoms

98.0% CPU use with 12 MPI tasks x no OpenMP threads

Minimization stats:
  Stopping criterion = max force evaluations
  Energy initial, next-to-last, final = 
          29720259.007     -337124.086094      -337127.31291
  Force two-norm initial, final = 8.49257e+08 12.5456
  Force max component initial, final = 5.79137e+08 3.05195
  Final line search alpha, max atom move = 0.0501272 0.152986
  Iterations, force evaluations = 880 1000

MPI task timing breakdown:
Section |  min time  |  avg time  |  max time  |%varavg| %total
---------------------------------------------------------------
Pair    | 9.6252     | 11.636     | 13.111     |  32.3 | 79.63
Neigh   | 0.19906    | 0.23539    | 0.26171    |   4.7 |  1.61
Comm    | 0.89955    | 2.3698     | 4.4722     |  75.5 | 16.22
Output  | 0          | 0          | 0          |   0.0 |  0.00
Modify  | 0.023684   | 0.027303   | 0.030028   |   1.3 |  0.19
Other   |            | 0.3445     |            |       |  2.36

Nlocal:    2507.83 ave 2711 max 2167 min
Histogram: 4 0 0 0 0 0 0 1 3 4
Nghost:    2803.17 ave 2950 max 2533 min
Histogram: 1 2 1 0 0 0 0 0 3 5
Neighs:    0 ave 0 max 0 min
Histogram: 12 0 0 0 0 0 0 0 0 0
FullNghs:  80364.2 ave 87966 max 68374 min
Histogram: 3 1 0 0 0 0 0 1 4 3

Total # of neighbors = 964370
Ave neighs/atom = 32.0453
Neighbor list builds = 47
Dangerous builds = 0

# Equilibration of molecular water

# Add velocity/set timestep

velocity	    all create ${TEMP} 120528 rot yes dist gaussian
velocity	    all create 215 120528 rot yes dist gaussian
timestep	    5.0

# Define output

compute			1 all msd
thermo	    	50
thermo_style	custom step temp press vol etotal ke pe c_1[4]

# Neighbor lists

neigh_modify    delay 0 every 1 check yes

# Set fixes

fix             1 all momentum 10 linear 1 1 1 rescale
fix             2 all nve
fix             3 all temp/csvr ${TEMP} ${TEMP} 500.0 928347
fix             3 all temp/csvr 215 ${TEMP} 500.0 928347
fix             3 all temp/csvr 215 215 500.0 928347
fix             4 all press/berendsen iso ${PRES} ${PRES} 1000.0 modulus 20000
fix             4 all press/berendsen iso 1 ${PRES} 1000.0 modulus 20000
fix             4 all press/berendsen iso 1 1 1000.0 modulus 20000

# Run 1 ns equilibration

dump		    1 all atom 2000 ${DIR}/eq.${NAME}-${TEMP}.dump
dump		    1 all atom 2000 run_0/eq.${NAME}-${TEMP}.dump
dump		    1 all atom 2000 run_0/eq.bubble_2.4nm_0-${TEMP}.dump
dump		    1 all atom 2000 run_0/eq.bubble_2.4nm_0-215.dump

reset_timestep  0

run	            200000
Per MPI rank memory allocation (min/avg/max) = 4.676 | 4.689 | 4.698 Mbytes
Step Temp Press Volume TotEng KinEng PotEng c_1[4] 
       0          215   -114.50267      1000000   -317841.49    19285.826   -337127.31 1.0454435e-33 
      50    130.18224    -261.3068    1000580.2   -313358.04    11677.544   -325035.58    0.1981568 
     100    147.92085    -56.09263    998969.38   -309986.22    13268.725   -323254.94   0.34260581 
     150    163.22042   -71.747851    997768.64   -307402.84    14641.119   -322043.96   0.51070814 
     200    173.84961   -130.70609    996312.89   -305431.78    15594.574   -321026.35   0.70245888 
     250    183.33022   -102.79329    994749.05   -303862.51    16444.999   -320307.51   0.90603677 
     300    190.64467   -83.125795    993203.43   -302551.92    17101.116   -319653.04    1.1244821 
     350    195.54163   -128.11067    991582.94   -301688.24    17540.381   -319228.62    1.3514642 
     400    200.28241   -148.30523    990121.87   -300965.27    17965.636    -318930.9    1.5848702 
     450    204.65383   -114.40354    988725.03    -300331.9    18357.759   -318689.66    1.8011711 
     500    206.70972   -127.99255    987501.09   -299911.33    18542.176   -318453.51    2.0142269 
     550    209.77094   -131.15589     985953.1   -299419.68    18816.772   -318236.45    2.2406993 
     600      211.273    -145.1341    984390.74   -299100.71    18951.509   -318052.22    2.4743988 
     650    211.82831   -107.94648    982992.52   -298930.43     19001.32   -317931.75    2.7106481 
     700    212.77925    -119.1883    981583.88   -298838.78    19086.622    -317925.4    2.9497345 
     750    214.43049   -58.119893    980794.96   -298791.67    19234.741   -318026.41    3.1504307 
     800    214.48021   -69.412734    980082.68   -298620.62    19239.201   -317859.82    3.3789644 
     850    213.16366   -39.330021    979105.29    -298647.7    19121.103    -317768.8    3.6126401 
     900    214.81115   -60.444667    978278.91   -298629.34    19268.886   -317898.23    3.8265909 
     950    215.03327   -45.313204    977378.12   -298744.72     19288.81   -318033.53    4.0514497 
    1000    215.40295   -113.80045    976337.02   -298841.18    19321.972   -318163.15    4.2868574 
    1050    215.16209   -70.074432    975264.73   -298881.89    19300.365   -318182.26    4.5274782 
    1100     216.0894   -96.266484    974475.15    -298776.2    19383.547   -318159.75    4.7563286 
    1150    215.34789   -89.893992    973643.67   -298966.83    19317.032   -318283.87    5.0049475 
    1200    213.95642   -66.742919    972489.61   -298883.64    19192.216   -318075.86     5.271268 
    1250    216.26466   -39.943559    971969.03   -298800.96    19399.268   -318200.23     5.523806 
    1300    216.24353   -54.770545    971214.87    -298783.9    19397.373   -318181.27    5.7652405 
    1350    216.69841   -73.328462     970212.2   -298922.84    19438.176   -318361.02    6.0308524 
    1400    214.54018   -47.270433    969556.27   -299123.15     19244.58   -318367.73    6.3031216 
    1450    215.35208   -81.568692     968666.6   -299210.15    19317.409   -318527.56    6.5498276 
    1500    214.46924     -65.1373     967677.3   -299197.07    19238.217   -318435.29    6.7954258 
    1550    214.88671    25.104276     966961.4   -299141.04    19275.664    -318416.7    7.0232326 
    1600     214.3898   -35.075678    967109.17   -299144.85     19231.09   -318375.94    7.2079486 
    1650    215.62309   -139.93652    966251.44   -299226.01    19341.718   -318567.73    7.4030487 
    1700    215.71685   -29.450215    965734.39   -299181.22    19350.129   -318531.35    7.5887807 
    1750    215.26196   -1.3889665    965576.14   -299199.68    19309.325      -318509    7.7601243 
    1800    213.57384   0.52436722    965526.32   -299225.64    19157.897   -318383.54    7.9399578 
    1850    215.73851    19.745743    964901.29   -299154.54    19352.071   -318506.61    8.1664402 
    1900    216.61599   -17.777935    964795.19   -299054.55    19430.783   -318485.33    8.3755749 
    1950    215.94461   -48.391975    964686.91   -299033.78    19370.559   -318404.34    8.5813851 
    2000    217.95746   -26.982927    964367.94    -299096.8    19551.115   -318647.92     8.783323 
    2050    215.86152   -42.825876    964195.82    -299296.2    19363.106   -318659.31    8.9841273 
    2100    215.75573   -52.173818    963781.08   -299390.67    19353.616   -318744.29    9.1925109 
    2150    215.82156   -58.503001    963643.24   -299334.03    19359.521   -318693.55    9.3906055 
    2200    217.67464   -41.781561    962993.06   -299335.79    19525.745   -318861.54    9.6045211 
    2250    216.59767   -36.470467    962748.59   -299287.63    19429.139   -318716.77    9.7901659 
    2300    215.59437   -14.573478    962259.23   -299259.26    19339.142   -318598.41    10.005858 
    2350    216.88365   -25.442553    961936.62   -299291.28    19454.792   -318746.07    10.202739 
    2400    216.57017   -59.726431     961749.7   -299364.75    19426.673   -318791.42    10.400688 
    2450    216.19632    46.401946    961847.54    -299362.8    19393.138   -318755.94    10.561626 
    2500    214.63862   -34.317219    961681.78   -299522.23     19253.41   -318775.64    10.744084 
    2550    216.77969   -7.4507872    960844.87   -299421.62    19445.467   -318867.09    10.971428 
    2600    214.61128   -36.473862    960603.53   -299659.82    19250.958   -318910.78    11.168213 
    2650    216.27684     27.13641    960565.56   -299566.98    19400.361   -318967.34    11.332178 
    2700    215.00841   -22.318423    960522.49   -299641.03    19286.581   -318927.61    11.524393 
    2750    216.16249    20.083715    960426.47   -299609.25    19390.103   -318999.36    11.731226 
    2800    217.60823    53.920035    960802.07   -299516.58    19519.788   -319036.37    11.900611 
    2850    214.56874   -38.330978    960424.56   -299457.28    19247.142   -318704.42    12.098108 
    2900    217.10866    1.0445253    959804.28   -299489.92    19474.976    -318964.9      12.2756 
    2950    216.69739   -19.056375    960043.75    -299625.9    19438.084   -319063.98    12.435333 
    3000    217.48289   -26.710595    959750.86   -299634.94    19508.545   -319143.49    12.625944 
    3050    216.60603    41.399571    959528.29   -299616.74    19429.889   -319046.63    12.797475 
    3100    215.85122    31.265294    960128.71   -299661.29    19362.182   -319023.47    12.910067 
    3150    215.04153  -0.50452471    959957.17    -299833.2    19289.551   -319122.75     13.06834 
    3200    214.65667    19.465616    959938.18   -299947.71    19255.029   -319202.74    13.237852 
    3250    215.18895   -48.870831    959753.73   -300094.43    19302.775   -319397.21    13.405978 
    3300    215.41281    54.702942    959899.36   -299952.99    19322.856   -319275.85    13.584928 
    3350    214.60489    15.380753    960433.54   -299915.94    19250.384   -319166.33    13.731237 
    3400     213.7773    3.9582757    960604.74    -299893.8    19176.148   -319069.95    13.914147 
    3450    214.80507    45.574853    960469.93    -299883.8     19268.34   -319152.14    14.091404 
    3500    215.50289   -31.091282    960745.62   -299870.94    19330.936   -319201.88    14.225691 
    3550    215.75331    71.663914    960793.71   -299811.34      19353.4   -319164.74    14.372483 
    3600    215.54963   -12.517241    960457.73   -299755.22    19335.128   -319090.35    14.565535 
    3650    214.81706   -35.879818    960215.94   -299897.58    19269.416      -319167    14.762769 
    3700    215.10036   -16.264276    959580.87   -299808.67    19294.829    -319103.5    14.988649 
    3750    216.18611    -31.48731    959363.22   -299801.72    19392.222   -319193.95    15.184734 
    3800    217.47059    25.201637    959287.19   -299725.27    19507.441   -319232.71    15.362997 
    3850    218.19352   -40.729766    959020.43   -299730.48    19572.289   -319302.77     15.64204 
    3900     215.2056   -31.575156    958621.41      -299918    19304.269   -319222.27    15.867685 
    3950    213.74995   -31.265978    958590.69   -299980.53    19173.695   -319154.22    16.062411 
    4000    215.53019   -40.544555    958158.87   -300016.27    19333.385   -319349.66    16.297717 
    4050    215.86954    5.4988439     958236.7   -300108.21    19363.825   -319472.03      16.4787 
    4100    214.89496   -20.318691    958340.92   -300124.49    19276.404   -319400.89     16.66461 
    4150    213.31143   -3.2993246    958414.72   -300055.07    19134.358   -319189.42    16.818912 
    4200    215.93255    14.258592    958081.55   -300024.89    19369.478   -319394.37    16.968234 
    4250    213.53859    5.0995296    958086.74   -300206.83    19154.735   -319361.56    17.078714 
    4300    214.34561   -14.099421    958252.19   -300219.22    19227.126   -319446.35    17.169745 
    4350    215.36785   0.93264966    958324.34   -299954.73    19318.823   -319273.55    17.345005 
    4400    213.01853   -22.261256    958077.11    -300047.8    19108.085   -319155.89    17.493253 
    4450    213.84809   -29.206552    957830.26   -300159.17    19182.498   -319341.67    17.622554 
    4500    212.52641    42.677537    957903.58   -300174.16    19063.941   -319238.11    17.735755 
    4550    213.93979    0.5620336    958276.81   -300341.88    19190.724    -319532.6    17.888088 
    4600    214.05737    29.375911    958233.91   -300181.42    19201.271   -319382.69    18.054409 
    4650    214.30391    10.204025    958275.09   -300151.92    19223.386    -319375.3    18.218477 
    4700    215.51354   -6.7094682    958265.48   -299940.29    19331.891   -319272.18    18.371578 
    4750    214.27807   -16.733157    958296.14   -299921.38    19221.068   -319142.44    18.572988 
    4800    216.02801    41.119834    958463.32    -299869.6     19378.04   -319247.64    18.713226 
    4850    218.28965    3.8841998    959085.55   -299914.02    19580.913   -319494.93    18.851517 
    4900      216.513   0.54727149    958851.62   -299776.05    19421.545   -319197.59    19.033523 
    4950    215.39733    -27.32145    958748.08   -299869.61    19321.467   -319191.07    19.202598 
    5000    215.76264   -52.025789    958576.24   -300042.01    19354.236   -319396.25    19.353191 
    5050    216.29058    38.442226    958654.92   -299934.25    19401.594   -319335.84    19.519928 
    5100    216.45353   -10.675314    958902.13   -299970.94     19416.21   -319387.15    19.691376 
    5150    214.22942    -5.214585    958793.23   -299976.25    19216.704   -319192.96    19.873273 
    5200    214.70872   -22.101996     958755.8   -300225.13    19259.698   -319484.82    20.037298 
    5250    213.92354   -4.5597389    958358.23    -300280.5    19189.266   -319469.77    20.229886 
    5300    213.24569   -69.892302    958102.06   -300348.17    19128.462   -319476.63    20.404498 
    5350    214.57062   -16.619145    957928.17   -300368.21     19247.31   -319615.52    20.581965 
    5400    213.93681    7.0951839    957872.77   -300383.78    19190.456   -319574.24    20.740026 
    5450    215.30225   -3.6304181    958003.83   -300319.97    19312.938    -319632.9    20.865547 
    5500    215.51361    -6.157673    958200.61   -300350.51    19331.898   -319682.41    21.056085 
    5550    214.09473    33.911617    957904.67   -300437.77    19204.622   -319642.39    21.205317 
    5600    214.02448   -14.223677    958203.66    -300383.4     19198.32   -319581.72     21.33718 
    5650    214.27414    3.9553105     958317.8   -300352.93    19220.715   -319573.65    21.456215 
    5700    214.93791   -23.818055    958408.72   -300295.21    19280.257   -319575.47    21.572888 
    5750    215.85092    -38.46009    957900.09   -300304.45    19362.155    -319666.6    21.725234 
    5800    214.38631    67.003441    958286.13   -300251.41    19230.778   -319482.18    21.902322 
    5850    213.70632    43.161109    958261.38   -300385.35    19169.781   -319555.14    22.012239 
    5900    216.11187    8.4507706    958302.62   -300377.19    19385.563   -319762.75    22.159781 
    5950    213.88199   -28.338534    957931.47    -300500.9    19185.539   -319686.44    22.365456 
    6000    214.98209   -2.4114922    957722.85   -300372.57    19284.219   -319656.79    22.522927 
    6050    214.42669    36.077979    957945.26    -300533.1      19234.4    -319767.5    22.698949 
    6100    214.25589   -6.1245506    958123.98   -300591.65    19219.079   -319810.73    22.847401 
    6150    214.27079    18.684932    958120.84   -300565.98    19220.415   -319786.39    23.041007 
    6200     213.8297    16.803719    958217.31   -300471.09    19180.848   -319651.93    23.173124 
    6250    213.95861    36.851916     958422.6   -300395.47    19192.412   -319587.88    23.354986 
    6300    216.32318    9.2187171    958896.85    -300198.7    19404.518   -319603.21    23.493094 
    6350    214.38195    26.720134    958801.84      -300292    19230.386   -319522.38    23.635724 
    6400    215.42223    -1.281701    958733.67   -300440.23    19323.701   -319763.94    23.747546 
    6450    214.48497    46.464065    958709.67   -300433.69    19239.627   -319673.31    23.914111 
    6500    213.18806   -2.1136802    958768.55   -300470.53    19123.293   -319593.83    24.053959 
    6550    213.85494    70.859087     958648.7   -300510.35    19183.112   -319693.47    24.181259 
    6600    213.67766   -5.9272074    958710.61   -300504.84     19167.21   -319672.05    24.361199 
    6650    214.80918   -26.724108    958424.21    -300481.8    19268.709   -319750.51    24.504714 
    6700    213.88475    40.067634    958643.38   -300576.33    19185.786   -319762.11    24.665171 
    6750    214.24241    26.476809    959006.27   -300562.25     19217.87   -319780.12    24.791221 
    6800    213.71242    22.711367    959031.46    -300484.6    19170.328   -319654.93    24.923166 
    6850    214.48055   -3.2245111    958795.39   -300454.37     19239.23    -319693.6    25.067458 
    6900    214.39437   -13.724597    958746.96   -300440.43      19231.5   -319671.93    25.181664 
    6950    215.42009    21.152295    958844.71   -300409.54    19323.509   -319733.05    25.282481 
    7000    213.94549   -9.7862911    958868.65   -300330.42    19191.235   -319521.66    25.408279 
    7050    214.00391   -29.499144    958916.42   -300460.18    19196.476   -319656.66    25.511908 
    7100    215.89927   -40.533379    958976.16   -300371.14    19366.492   -319737.63    25.618508 
    7150    214.21074    65.310113    959444.54   -300476.25    19215.028   -319691.28    25.755271 
    7200    212.94679    10.240949    959294.05   -300586.76     19101.65   -319688.41    25.871336 
    7250    214.04831    12.821618    959705.66   -300653.65    19200.458   -319854.11    25.989073 
    7300    214.12722    6.2291503    959859.63   -300583.78    19207.537   -319791.32    26.161983 
    7350    213.30246   -14.911289    959312.27   -300472.82    19133.554   -319606.37    26.352217 
    7400    215.91155   -5.7735342    959301.21   -300322.07    19367.594   -319689.67    26.500287 
    7450    213.45993   -13.255565    959246.83   -300382.28    19147.679   -319529.96    26.628727 
    7500    215.06867 -0.051774895    959425.16   -300394.63    19291.986   -319686.62    26.791316 
    7550    215.33942    6.8647869    959778.87   -300325.54    19316.273   -319641.81    26.924716 
    7600    214.57695    12.311901    960127.35   -300165.71    19247.878   -319413.59    27.044041 
    7650    216.51831    -42.77918    959644.74   -300192.39    19422.021   -319614.42    27.196584 
    7700     216.5345   -46.457191    959313.04   -300333.24    19423.473   -319756.71    27.367663 
    7750    214.49591  -0.41459571    959190.15   -300356.11    19240.608   -319596.71    27.525102 
    7800    214.52841   -26.005439    959416.47   -300424.35    19243.524   -319667.88    27.708999 
    7850     214.8198   -28.034896    959188.48    -300468.3    19269.662   -319737.97    27.869636 
    7900    215.89861   -8.1827089    959243.59   -300288.13    19366.433   -319654.56    28.036756 
    7950    215.58296    -31.44733    959004.29   -300269.89    19338.119   -319608.01    28.215247 
    8000    216.45681   -60.899376    958858.41   -300248.38    19416.504   -319664.88    28.383874 
    8050    215.65029   -4.7349604    958549.76   -300247.09    19344.158   -319591.25    28.528459 
    8100    215.19004   -37.314374    958379.93   -300134.76    19302.873   -319437.63     28.67693 
    8150    216.69145   -39.796825    958298.08   -300250.24    19437.551   -319687.79    28.791043 
    8200    215.36029    25.482891    958175.35   -300230.96    19318.145   -319549.11    28.896478 
    8250    216.45917    9.8680768    958147.51   -300120.48    19416.716    -319537.2    29.044635 
    8300    216.25371    16.310489    958594.16   -300079.04    19398.285   -319477.33    29.188313 
    8350    215.95198   -35.466475    958760.33   -300051.18     19371.22    -319422.4    29.318247 
    8400    216.25119    28.380789    958723.85    -300091.3     19398.06   -319489.36    29.460207 
    8450    216.28286   -33.685393    958986.75   -300138.35    19400.901   -319539.25    29.621765 
    8500    215.45738   -22.494527    958767.93    -300154.3    19326.854   -319481.15    29.780527 
    8550    214.30623    4.2919427    958674.82   -300164.98    19223.594   -319388.57    29.884298 
    8600    215.74961    7.1281988    958494.57   -300196.68    19353.068   -319549.75    30.072522 
    8650    215.85049   -5.2362655    959159.09   -300183.03    19362.116   -319545.15    30.226614 
    8700    214.14391    6.8746966    959099.14      -300214    19209.033   -319423.04    30.394426 
    8750    216.52506    10.783818    959232.65   -300228.26    19422.626   -319650.88    30.595973 
    8800    214.65421   -0.8744983     959286.4   -300392.16    19254.809   -319646.97    30.779969 
    8850    214.81345    8.5028651    958879.15    -300417.9    19269.092   -319686.99    30.932374 
    8900    214.23306   -3.4079064    958499.33   -300489.74     19217.03   -319706.77    31.125678 
    8950    214.17287    35.109798    958786.88   -300382.11    19211.631   -319593.74    31.265417 
    9000    213.84747    12.305285    958459.37   -300308.53    19182.443   -319490.97    31.410765 
    9050    214.88345    -48.95397    958321.14   -300333.49    19275.371   -319608.86    31.528571 
    9100    215.11776    51.182201    958091.77   -300330.47    19296.389   -319626.86    31.652801 
    9150    215.12376    9.1848224    958206.17   -300164.86    19296.928   -319461.79    31.824873 
    9200     215.1831    12.984856    958386.96   -300170.57     19302.25   -319472.82    31.952685 
    9250    212.51099  -0.55325338    958168.12   -300346.43    19062.558   -319408.99    32.096312 
    9300    214.76366     -17.8158    958322.28   -300438.02    19264.626   -319702.65    32.214863 
    9350    214.26115   0.82105324    958404.63   -300368.91     19219.55   -319588.46    32.329476 
    9400    215.65011     16.84546       958516   -300314.33    19344.142   -319658.47    32.442535 
    9450    213.74746     21.68553    958566.68   -300358.56    19173.472   -319532.03    32.640481 
    9500     215.2534    2.9032589    958346.17    -300390.7    19308.556   -319699.26    32.789027 
    9550    214.27891   -21.144559    958104.16    -300527.7    19221.143   -319748.85    32.976742 
    9600    214.44047   -32.301229    957769.79   -300391.62    19235.636   -319627.26    33.160048 
    9650    214.62308  -0.80534768    957681.48   -300330.47    19252.016   -319582.49    33.338226 
    9700    215.34482    73.044467    957819.43    -300165.5    19316.757   -319482.26    33.519017 
    9750    216.10954   -2.5792408    958275.05   -300099.72    19385.353   -319485.07    33.649426 
    9800    215.80706   -38.456723    958119.22   -300127.26    19358.221   -319485.48    33.861355 
    9850    214.86833   -45.186609    958154.29   -300155.03    19274.015   -319429.04     34.09487 
    9900    215.63573    2.3397665    957745.19      -300128    19342.852   -319470.85     34.27129 
    9950    214.24623    14.749546     957870.1   -300119.39    19218.212   -319337.61    34.353124 
   10000    215.45943    37.432297    958064.99   -300187.13    19327.038   -319514.17    34.515927 
   10050    215.50112   -31.194088     958109.5   -300086.27    19330.777   -319417.05    34.718372 
   10100    217.48224   -39.766863    957997.61   -300100.06    19508.487   -319608.55     34.89036 
   10150     215.9278    29.596566    957981.08   -300045.57    19369.051   -319414.62    35.015984 
   10200    217.22936   -3.9964959    957911.39   -299928.72    19485.803   -319414.52     35.16734 
   10250     215.6367   -30.210622    957718.19   -300051.43    19342.939   -319394.37     35.38095 
   10300    214.70968    25.741012    957610.03    -300046.9    19259.784   -319306.68    35.540971 
   10350    213.60955    3.8744407    957982.45   -300031.63      19161.1   -319192.73    35.657902 
   10400    215.45979    -26.04675    957818.66   -300074.51     19327.07   -319401.58     35.77968 
   10450    215.65474    7.9394729    957475.13   -300116.32    19344.557   -319460.88    35.930972 
   10500     215.0876    6.8315128    957689.13    -300043.5    19293.684   -319337.19    36.065402 
   10550    214.56161    11.235539    957630.08   -300098.72    19246.502   -319345.22    36.226413 
   10600    215.08278    2.5950691    957847.63   -300088.05    19293.251    -319381.3    36.415637 
   10650    216.87249    79.749949    958080.48   -300120.19    19453.792   -319573.99    36.532518 
   10700    214.21617    47.422214    958230.11   -300085.26    19215.516   -319300.77    36.677623 
   10750    213.15241   -14.051518    958308.68   -300253.02    19120.095   -319373.12    36.835923 
   10800    214.33323   -37.412695     958074.8   -300370.12    19226.016   -319596.14    36.947952 
   10850    213.83583  0.021279124    957900.93   -300382.55    19181.398   -319563.95    37.082018 
   10900    214.15904    24.191827    958164.87   -300521.85    19210.391   -319732.24    37.170116 
   10950    215.09811   -16.746824     958138.3   -300478.97    19294.627    -319773.6    37.360283 
   11000    214.05015   -45.267779    957952.83   -300387.41    19200.623   -319588.03     37.47465 
   11050    215.05015    5.8570958    957715.45   -300377.39    19290.325   -319667.72    37.647728 
   11100    214.01726   -28.133078    957681.93   -300359.34    19197.673   -319557.01    37.851127 
   11150    215.31423    8.0962513    957525.22    -300447.3    19314.013   -319761.32    38.007155 
   11200    214.97536   -2.4959427    957499.41   -300549.32    19283.616   -319832.93    38.086471 
   11250    213.51401    41.930567    957809.39    -300510.9    19152.531   -319663.43    38.214714 
   11300     216.2594    43.410903    957878.53   -300458.92    19398.796   -319857.72     38.37315 
   11350    215.32374    8.6788578    957749.17   -300448.68    19314.866   -319763.55    38.583223 
   11400    214.47834   -39.168047    957951.63   -300485.12    19239.032   -319724.15    38.714511 
   11450    215.40544   -7.2095325    958020.14   -300304.73    19322.195   -319626.92    38.817571 
   11500    216.93235   -16.313765    957652.88   -300255.13     19459.16   -319714.29    38.919709 
   11550    215.65659    62.130862    957976.98   -300222.41    19344.724   -319567.13    39.070802 
   11600    217.25832     36.89985    957843.97   -300177.25      19488.4   -319665.65    39.268153 
   11650    215.13018   -17.230571    957541.58   -300120.17    19297.504   -319417.67    39.366962 
   11700    216.01905   -25.720203    957144.94      -300114    19377.237   -319491.24    39.451749 
   11750    215.58187   -10.744746    957221.53   -300105.33     19338.02   -319443.35    39.618244 
   11800    214.81014   -45.966509    956759.72   -300156.72    19268.795   -319425.52    39.770235 
   11850     213.8805     5.482707    956670.27   -300234.04    19185.405   -319419.44    39.889568 
   11900     213.8464    31.900672    956717.49   -300187.31    19182.347   -319369.66    40.000339 
   11950     216.4195    24.865075    956554.64   -300139.54    19413.157    -319552.7    40.128369 
   12000    214.75291    38.159238    956600.17   -300100.31    19263.662   -319363.97    40.255365 
   12050    214.26398    40.336949    956596.42   -300270.78    19219.804   -319490.58    40.403858 
   12100    215.26831     23.93327    956659.34   -300284.51    19309.894   -319594.41    40.587152 
   12150    215.95309   -9.5330605    956629.87   -300191.01     19371.32   -319562.33    40.760283 
   12200    213.97017    33.779016     956680.8    -300278.1    19193.448   -319471.55    40.885373 
   12250    213.95754 -0.047085578    956568.65   -300393.11    19192.316   -319585.42    41.027986 
   12300    214.00472   -6.5846146    956772.07   -300371.28    19196.548   -319567.82    41.207235 
   12350     214.3406    45.379996    956707.99   -300364.61    19226.677   -319591.29    41.342842 
   12400    214.84758    47.535279    957379.76   -300277.84    19272.154   -319549.99    41.392151 
   12450    214.51608    62.300257    957838.07   -300304.49    19242.418    -319546.9    41.537923 
   12500     214.5942    20.714418    957641.08   -300273.93    19249.425   -319523.35    41.739209 
   12550    215.77977    16.979193    957853.88   -300209.27    19355.773   -319565.05    41.905617 
   12600    214.27982   -21.906875    957903.85   -300208.77    19221.225      -319430    42.093491 
   12650    215.29363    32.060484    957554.29   -300217.63    19312.165    -319529.8    42.297852 
   12700    214.40376    19.269006    957504.44   -300297.06    19232.342    -319529.4    42.447459 
   12750    216.08233    -10.11873    957616.22   -300230.52    19382.912   -319613.43    42.617628 
   12800    213.46016   -12.409702    957529.44   -300272.75      19147.7   -319420.46    42.798147 
   12850    214.51459    21.191114    957727.75   -300284.95    19242.284   -319527.23    42.951051 
   12900    214.40628    4.2551525    957866.17   -300204.89    19232.569   -319437.46    43.148466 
   12950    215.21729     7.129596    957669.84      -300251    19305.317   -319556.31    43.334625 
   13000    214.61993    26.202159    957802.62   -300241.04    19251.733   -319492.77    43.521343 
   13050    214.65616    30.795305    958120.07   -300274.19    19254.984   -319529.18    43.672616 
   13100    212.65284     2.917797    958390.15      -300319    19075.282   -319394.28    43.806202 
   13150    215.32605   -51.662185     958388.4   -300273.71    19315.073   -319588.78    43.988484 
   13200    214.73996   -50.773159    957828.16    -300293.8      19262.5    -319556.3    44.175446 
   13250    213.34549    25.788868    957693.27   -300355.38    19137.414    -319492.8    44.365206 
   13300    213.47076    7.7757392    957807.46   -300476.26    19148.651   -319624.91    44.495495 
   13350    213.33947    11.906194    957601.83    -300559.1    19136.874   -319695.97    44.667496 
   13400    213.86771    11.777537    957865.97   -300485.89    19184.258   -319670.15    44.813974 
   13450    214.24955    6.4108803    957900.33   -300383.31     19218.51   -319601.82    44.975701 
   13500    214.00245    29.955347    958007.29   -300388.83    19196.344   -319585.17    45.174186 
   13550    214.21601   -25.773156    957988.61   -300391.72    19215.501   -319607.22    45.331084 
   13600    215.79585   -33.819543    958255.46   -300411.31    19357.215   -319768.53    45.450167 
   13650    214.44335    8.4942895    958200.44   -300464.74    19235.894   -319700.63    45.628851 
   13700    214.94277    10.855785    958272.26   -300400.48    19280.692   -319681.17    45.787354 
   13750    215.25221    4.4106154       958342   -300391.88    19308.449   -319700.33    45.960162 
   13800    214.65826   -11.900287    958133.64    -300468.8    19255.171   -319723.97    46.117242 
   13850    215.25201  -0.52818582    958476.34   -300448.51    19308.432   -319756.94    46.258609 
   13900    215.32624   -5.2224004    958849.31   -300310.13     19315.09   -319625.22     46.40068 
   13950    215.76062    65.748148    958752.68   -300206.56    19354.055   -319560.61    46.563984 
   14000    215.62655    41.737727    959234.23   -300245.64    19342.028   -319587.66    46.751229 
   14050    215.07514    -39.10148    959003.16   -300368.51    19292.566   -319661.08    46.892203 
   14100    214.76857    2.9099168    958969.29   -300342.97    19265.067   -319608.04    47.046458 
   14150    215.75013    63.672394     959099.5   -300283.27    19353.114   -319636.39    47.162749 
   14200    215.59191   -22.576767    959100.29   -300390.48    19338.921    -319729.4    47.232454 
   14250    214.48587   -5.3272879    958967.88    -300387.6    19239.708   -319627.31    47.400147 
   14300    214.29291    1.8470361     958839.8   -300499.47    19222.399   -319721.87    47.547966 
   14350    214.21964    41.073918     958594.6   -300473.29    19215.827   -319689.12    47.650025 
   14400    212.57625   -35.567184    958533.88   -300467.68    19068.412   -319536.09    47.844735 
   14450    213.08738    8.1664711    958526.42   -300576.81    19114.261   -319691.07    47.977634 
   14500    214.27233    -26.03244    958290.15   -300569.42    19220.553   -319789.97    48.166544 
   14550    214.71188    14.246532    958240.97   -300445.79    19259.982   -319705.77    48.287083 
   14600     214.1132    45.142462    958648.41   -300401.24    19206.279   -319607.52    48.404819 
   14650    214.88783    31.466254    958890.06   -300409.17    19275.764   -319684.93    48.525401 
   14700    216.81895   -12.815963    958722.24   -300263.75    19448.989   -319712.74    48.644246 
   14750     215.4193    5.3908079     958872.9   -300333.85    19323.438   -319657.29    48.758666 
   14800    214.67749   -21.429399    958854.07   -300303.37    19256.896   -319560.26    48.903098 
   14850    214.79683    8.6596424    959143.72   -300381.48    19267.601   -319649.08    49.116094 
   14900    215.74574   -56.675515    959169.96    -300447.3     19352.72   -319800.02    49.267578 
   14950    214.34901    18.152403    959034.32   -300528.31    19227.431   -319755.75    49.408796 
   15000    214.57475   -45.869751    958937.44   -300543.24     19247.68   -319790.92    49.513703 
   15050    214.99721    22.256307    958800.83   -300561.02    19285.576    -319846.6    49.583107 
   15100    215.31019    6.1677697     959000.9   -300511.47    19313.651   -319825.12    49.678687 
   15150    216.87761   -12.193582    958907.62    -300411.1    19454.251   -319865.36    49.800746 
   15200    217.11787   -9.9311142    959012.64   -300548.46    19475.803   -320024.27    49.958318 
   15250    215.64496  -0.17368047    959236.31   -300638.58     19343.68   -319982.26    50.140923 
   15300    215.59714   -39.106149     958725.2   -300729.05     19339.39   -320068.44    50.285244 
   15350    214.68407    10.683011    958622.91   -300770.71    19257.487    -320028.2    50.475687 
   15400     214.3179   -23.430604    958407.12   -300772.81     19224.64   -319997.45    50.646016 
   15450     215.0261   -67.236055    958561.07   -300740.16    19288.167   -320028.33     50.81277 
   15500    216.70399    12.510717    958684.95   -300490.52    19438.677    -319929.2    51.004902 
   15550    216.97556   -26.415874    958792.88   -300489.65    19463.037   -319952.68     51.14768 
   15600    214.62107   -7.4057813    958902.43    -300517.7    19251.836   -319769.54    51.228936 
   15650    215.34926    48.736574    959195.51   -300406.45    19317.155    -319723.6    51.404412 
   15700    215.80223    21.327523    959286.25   -300399.83    19357.787   -319757.62     51.55094 
   15750    215.88186    21.930049    959845.39   -300397.71    19364.931   -319762.64    51.687468 
   15800    215.16307   -26.122584    959907.67   -300410.17    19300.454   -319710.62    51.810112 
   15850    216.04321   -1.3230445    959797.83   -300369.05    19379.403   -319748.45    51.949695 
   15900    214.48935   -40.445202    959299.66   -300414.93     19240.02   -319654.95    52.132309 
   15950    214.22876    56.813717    959306.54   -300440.64    19216.645   -319657.29    52.264776 
   16000    213.89311    8.2514167    959312.03   -300543.45    19186.536   -319729.98    52.430002 
   16050    215.03666   -5.5248525    959580.57   -300589.05    19289.114   -319878.17    52.615738 
   16100    213.72798   -52.197111    959745.82   -300446.69    19171.724   -319618.42     52.75599 
   16150    214.90861    -10.74965    959761.85   -300471.16    19277.628   -319748.79    52.894883 
   16200    216.20227    40.556365    959952.33   -300407.12    19393.672    -319800.8    52.993105 
   16250    215.71521    31.982316    960185.99   -300491.97    19349.981   -319841.95    53.131683 
   16300    215.02571     36.06693    960626.11   -300417.71    19288.132   -319705.84     53.32021 
   16350    216.68473    24.822352    960557.72   -300487.88    19436.949   -319924.83     53.42831 
   16400    215.69778   -24.862938    960480.76   -300468.34    19348.418   -319816.76    53.557292 
   16450    216.18414    10.037809    960419.45   -300368.96    19392.045   -319761.01    53.682617 
   16500    215.02131   -9.3492832    960265.29    -300397.6    19287.737   -319685.33    53.829147 
   16550    216.05515   -16.057158    960129.01   -300240.22    19380.475   -319620.69    54.072526 
   16600    215.07368   -24.277101     960164.3   -300267.93    19292.435   -319560.36    54.306416 
   16650    215.96584    10.019585    960183.32   -300188.71    19372.463   -319561.17     54.49292 
   16700    217.04462    33.701498    960392.83   -300323.91    19469.231   -319793.14     54.61643 
   16750    214.55578   0.92008946    960448.52   -300348.58    19245.979   -319594.56    54.640824 
   16800    217.49561   -20.481209    960275.44   -300325.95    19509.686   -319835.63    54.709072 
   16850     216.0494    7.6613358    960652.41   -300485.43    19379.959   -319865.39    54.824633 
   16900    215.65483    9.1245995    960547.04   -300541.01    19344.565   -319885.57    55.000004 
   16950    214.02676    50.636834    960907.06   -300558.95    19198.525   -319757.47    55.121581 
   17000    215.11433    78.149785    961317.34   -300544.47    19296.082   -319840.55    55.207934 
   17050     215.0148   -2.1749732    960942.39   -300439.06    19287.153   -319726.22    55.294825 
   17100    213.91711   -61.140001    960841.64   -300547.91    19188.689    -319736.6    55.384093 
   17150    213.92135    -1.859723    960743.15   -300584.06     19189.07   -319773.13    55.558976 
   17200    213.36178   -40.464911    960258.48   -300592.16    19138.875   -319731.03    55.665239 
   17250    213.70746   -4.8389037    960419.49   -300605.82    19169.883   -319775.71     55.83416 
   17300    214.23436    15.673851    960559.61   -300664.26    19217.147   -319881.41    55.985417 
   17350    213.94282    18.988025     960728.9   -300700.93    19190.995   -319891.92    56.095309 
   17400    216.32581   -16.881161    960795.61   -300603.32    19404.753   -320008.07    56.314244 
   17450    214.79737    10.819812    960577.47   -300564.61     19267.65   -319832.26    56.464753 
   17500    214.36494    19.886966    960370.82   -300454.75     19228.86   -319683.61      56.5664 
   17550    214.85404   -17.935323    959917.78    -300562.6    19272.734   -319835.33     56.74826 
   17600    214.60252   -43.116246    959459.88   -300622.05    19250.171   -319872.22    56.912659 
   17650    214.91395    36.373486    959611.37   -300572.65    19278.107   -319850.76    57.079243 
   17700     213.1752   -0.8238522    959917.91   -300705.44    19122.139   -319827.58    57.239976 
   17750    215.50238    12.266783    960186.43   -300629.64     19330.89   -319960.54    57.324094 
   17800    216.99763    19.722866    960097.37    -300571.3    19465.016   -320036.32    57.440046 
   17850    215.86444    3.4438762    959839.24   -300570.95    19363.368   -319934.32    57.518753 
   17900    215.76477   -1.1916564    959954.32      -300582    19354.427   -319936.42    57.670633 
   17950    215.22558     50.36983    959997.58   -300587.07    19306.061   -319893.13    57.766394 
   18000    216.62659   -48.278206    959582.95   -300440.04    19431.734   -319871.77    57.903227 
   18050    215.18156  -0.26707607    959790.99   -300475.13    19302.112   -319777.24    58.034184 
   18100    215.47141     12.68809    959733.69   -300514.37    19328.112   -319842.48    58.165446 
   18150    214.83135   -40.821211    959827.96   -300641.19    19270.698   -319911.89    58.286242 
   18200    214.79435  -0.51205219    959804.36    -300613.9    19267.379   -319881.28    58.486907 
   18250    214.44388   -75.361846    959300.57   -300550.07    19235.941   -319786.01    58.710181 
   18300    214.81935    5.9755001    958757.62   -300610.98    19269.622    -319880.6    58.936394 
   18350    216.01708   -16.903157    958609.27   -300597.11     19377.06   -319974.17    59.087089 
   18400    214.80914   -63.669589    958077.88   -300696.64    19268.706   -319965.35     59.25691 
   18450    214.31935    20.612525    957947.61   -300646.12     19224.77   -319870.89    59.423639 
   18500    213.67673    10.073814    958070.79   -300572.78    19167.126    -319739.9    59.589596 
   18550    214.93073    53.724204     958493.4   -300462.49    19279.613   -319742.11    59.712101 
   18600    215.85062    39.341576    958881.62   -300459.84    19362.128   -319821.96    59.842007 
   18650    214.65484    49.952803    959376.93    -300431.2    19254.864   -319686.07    59.951376 
   18700    214.07523    36.464224     959446.3   -300530.76    19202.873   -319733.64    60.043437 
   18750    214.45483    25.833585    959599.75   -300574.83    19236.923   -319811.76     60.18942 
   18800     215.3612    19.653418    959257.78   -300425.23    19318.226   -319743.46    60.357026 
   18850    214.63709   -8.0948578    959090.26   -300486.57    19253.272   -319739.85    60.574839 
   18900    215.36467   -1.0825091    958850.19   -300467.56    19318.537   -319786.09    60.753407 
   18950    215.03872    33.562961    958749.84   -300379.24    19289.299   -319668.54      60.8837 
   19000    214.43829    54.266285    958992.03   -300457.17     19235.44   -319692.61    61.037292 
   19050    214.73711   0.58057191    959143.59   -300334.34    19262.245   -319596.58    61.143173 
   19100    214.69412   -44.585371    958785.75   -300380.78    19258.389   -319639.17    61.227133 
   19150    214.27028    27.392503    958610.58   -300472.47    19220.369   -319692.84    61.335201 
   19200    215.48498    5.3976785    958671.66   -300408.32    19329.329   -319737.65    61.495897 
   19250    215.16495    22.646643    958841.15   -300322.07    19300.623   -319622.69     61.62152 
   19300    214.69681    48.742054    958978.04   -300276.77     19258.63    -319535.4    61.764754 
   19350    215.42167    28.784273    959209.68   -300358.58     19323.65   -319682.23    61.813263 
   19400    213.76111    5.2626254     959323.4   -300331.55    19174.696   -319506.24     61.96855 
   19450     216.2987     23.97744     959248.2   -300315.75    19402.321   -319718.07    62.069228 
   19500    216.05355    39.841268    959575.32   -300213.53    19380.331   -319593.86    62.238319 
   19550    215.82473   -59.398227    959540.93   -300285.71    19359.806   -319645.51    62.385203 
   19600    214.84584   -65.258192    959277.17   -300226.61    19271.998    -319498.6    62.536891 
   19650    214.59759   -34.539928    958898.06   -300275.04    19249.729   -319524.77    62.658543 
   19700    215.55033   -20.373556    958297.02   -300308.82    19335.192   -319644.01    62.875659 
   19750    215.20019    37.932983    958210.52   -300320.95    19303.783   -319624.74    63.075458 
   19800    214.45513   -7.2673997     958569.6   -300240.09     19236.95   -319477.04    63.144971 
   19850    215.70948   -37.915949    957986.35   -300276.43    19349.467    -319625.9    63.193843 
   19900    214.60176    9.8936849    957649.31   -300292.35    19250.103   -319542.46    63.339286 
   19950    215.04121    56.379178    958085.83   -300307.65    19289.523   -319597.17    63.459835 
   20000    214.98373   -24.414085    958399.52   -300397.99    19284.366   -319682.36    63.636621 
   20050    215.14964    59.531965    958547.53   -300486.67    19299.249   -319785.92    63.802504 
   20100    214.91807   -43.887987    958833.15   -300384.91    19278.477   -319663.38    63.944329 
   20150     214.2648    29.467866     958777.6   -300487.66    19219.878   -319707.53    64.135286 
   20200    214.57874   -9.2490575    959105.05   -300429.51    19248.039   -319677.55    64.296368 
   20250     216.4727   -16.458793    959071.77   -300347.06     19417.93   -319764.99    64.559141 
   20300    214.64383   -29.493361    959178.84   -300318.36    19253.877   -319572.23    64.661622 
   20350    216.16477   -13.114865    959365.11   -300233.78    19390.308   -319624.09    64.772275 
   20400     216.4611   -57.368758    959128.33   -300387.68    19416.889   -319804.57    64.885636 
   20450    214.44857   -25.084133     958947.1   -300454.57    19236.362   -319690.94    64.949372 
   20500    214.27317   -18.971671    958912.73   -300549.99    19220.629   -319770.62    64.982241 
   20550    214.55277    15.454474    959089.84   -300535.95    19245.709   -319781.66     65.09404 
   20600    213.90973   -11.317551    958985.86   -300634.52    19188.027   -319822.55    65.188382 
   20650    216.12817    37.154214    959035.84   -300444.42    19387.025   -319831.45     65.30176 
   20700    214.29592   -6.5322206    958719.43   -300578.23     19222.67    -319800.9    65.414215 
   20750    216.80086   -14.473153    958544.31   -300343.98    19447.366   -319791.34    65.595957 
   20800     215.0011    -45.37848    958707.84   -300288.83    19285.925   -319574.76    65.879942 
   20850    214.20578   -4.8126036    958765.12   -300302.63    19214.584   -319517.22    66.053317 
   20900    214.11985   -26.184061    958419.42   -300436.29    19206.875   -319643.16    66.226659 
   20950    215.87238   -40.063197    958496.51   -300388.41     19364.08   -319752.49     66.39958 
   21000    216.37923   -3.4994009    958460.01   -300305.41    19409.545   -319714.95    66.481108 
   21050    216.00461   -15.371799    958374.48   -300154.68    19375.941   -319530.62    66.665327 
   21100    216.05417   -30.758577    958391.05   -300160.89    19380.386   -319541.28    66.794454 
   21150    215.33871    13.692798     958333.3    -300144.1    19316.209   -319460.31    66.936811 
   21200    214.30993    53.681876     958408.7   -300178.32    19223.926   -319402.25     67.15813 
   21250    216.53925   0.89814074    958257.37   -300205.77    19423.899   -319629.67    67.318591 
   21300    216.48781    9.0068411    958398.08   -300339.49    19419.285   -319758.78    67.410865 
   21350    216.02199   -51.083745    958598.09   -300332.11      19377.5   -319709.61    67.556831 
   21400    215.98444   -16.047945    958399.51    -300227.8    19374.132   -319601.94    67.642177 
   21450    215.73707    -17.32603    958380.48   -300249.32    19351.942   -319601.26    67.720274 
   21500    215.93357    4.8326053    958179.13   -300131.93    19369.569    -319501.5    67.896589 
   21550    215.50171    -7.848165    958344.07   -300104.68     19330.83   -319435.51    68.034008 
   21600    214.66485    20.286271    958449.25   -300277.25    19255.762   -319533.01    68.175182 
   21650    214.49139   -36.449636    958144.22   -300326.93    19240.203   -319567.14    68.351456 
   21700     213.4049   -61.128969    958085.74   -300387.13    19142.744   -319529.87    68.501948 
   21750    214.23376    4.0335463    957731.82   -300319.84    19217.093   -319536.93    68.705535 
   21800    214.85297    14.864943    957981.45   -300318.97    19272.637   -319591.61    68.849919 
   21850    215.07881    62.946306    958260.77   -300310.84    19292.896   -319603.74     68.94013 
   21900    216.17231   -19.343964    958358.57   -300239.49    19390.984   -319630.48    69.077794 
   21950     215.2261    9.6213124     958125.8   -300412.72    19306.108   -319718.83      69.2105 
   22000    215.42859    28.011868    958383.97   -300259.66    19324.272   -319583.93    69.292312 
   22050    214.14442   -2.2876828    958358.06   -300315.65    19209.079   -319524.73    69.374431 
   22100     213.8989   -23.612505    958000.72   -300493.22    19187.056   -319680.27    69.497725 
   22150    213.67004    10.849886    958498.54   -300547.01    19166.527   -319713.53    69.618812 
   22200    213.44713   -9.7781931    958272.73   -300543.15    19146.531   -319689.68     69.77958 
   22250    214.61483   -15.756472       958246   -300423.93    19251.275   -319675.21    69.900165 
   22300    217.23334    5.4356724    958214.59   -300291.65     19486.16   -319777.81    70.050546 
   22350    215.78071   -28.286826    958374.77   -300244.23    19355.857   -319600.08    70.174903 
   22400    216.34685    27.897418    958365.23    -300273.6    19406.641   -319680.24    70.347677 
   22450     215.5115    -1.644718    958560.95   -300315.49    19331.708   -319647.19    70.489433 
   22500    215.37343   -32.670032     958636.7   -300361.15    19319.323   -319680.47     70.70943 
   22550    215.55589    14.878564    958594.54   -300353.37     19335.69   -319689.06    70.818369 
   22600    215.11922    24.701505    958285.89   -300436.31     19296.52   -319732.83    70.994136 
   22650    215.64986    45.958222    958244.21   -300550.48     19344.12    -319894.6    71.181384 
   22700    213.29705    16.431361    958706.57   -300543.42    19133.069   -319676.49    71.353347 
   22750    217.04302    37.856437    958719.54   -300353.07    19469.088   -319822.16    71.520316 
   22800    215.25556   -50.097354    958556.19   -300416.98    19308.751   -319725.73    71.589003 
   22850     214.8504   -17.203145    958563.16   -300507.26    19272.407   -319779.67    71.673218 
   22900    213.48506   -17.397155    958506.25   -300545.26    19149.934    -319695.2    71.770772 
   22950    213.96572    41.881065    958368.84   -300618.82     19193.05   -319811.87    71.849676 
   23000    215.15777    47.219321    958848.15   -300593.28    19299.978   -319893.26    72.012478 
   23050    215.68124   -7.8037895    958976.37   -300556.79    19346.935   -319903.72    72.065083 
   23100    215.28376    36.289459    959010.11   -300514.18     19311.28   -319825.46    72.105567 
   23150    215.89021    39.133529    959446.11   -300427.29    19365.679   -319792.97    72.298207 
   23200    214.52496    2.7511632    959302.34   -300416.03    19243.215   -319659.24      72.4361 
   23250    216.68278    -9.377577    959302.71    -300332.6    19436.774   -319769.37    72.518551 
   23300    216.97852    9.2616355    958775.09   -300262.58    19463.302   -319725.88     72.77057 
   23350    216.96644    32.844459    958964.58   -300298.03    19462.219   -319760.25    72.890701 
   23400    215.96482   -33.485482    959058.46   -300319.38    19372.372   -319691.76    73.043348 
   23450    215.57871    57.518349    959183.39    -300316.3    19337.737   -319654.04    73.197294 
   23500    214.75511   -1.9378859    959247.54   -300206.86    19263.859   -319470.72    73.302563 
   23550    215.95411   -14.909054     959125.2   -300215.47    19371.411   -319586.88    73.494324 
   23600     214.6452    16.338183    959066.51    -300188.8        19254    -319442.8     73.62129 
   23650    215.41663    17.036746    958981.22   -300152.31    19323.198   -319475.51    73.778176 
   23700    217.09825   -11.961686    958613.35   -300146.02    19474.042   -319620.06    73.941952 
   23750    215.62919    29.262935    958653.54   -300186.53    19342.266    -319528.8    74.092373 
   23800    214.99656     4.074309     958207.1   -300409.81    19285.518   -319695.32    74.211471 
   23850    215.22702    48.447986    958490.93   -300385.56     19306.19   -319691.75    74.344579 
   23900    216.19411   -68.141424    958642.97   -300381.15    19392.939   -319774.09    74.443595 
   23950    214.94563   -6.5485377    958617.67   -300327.35    19280.949    -319608.3     74.63097 
   24000     215.1064    40.334248    958657.46   -300308.96     19295.37   -319604.33    74.766252 
   24050    214.98625    -40.33699    958805.17   -300352.17    19284.593   -319636.77    74.928618 
   24100    216.50026   -25.229929    958659.56   -300241.35    19420.401   -319661.75    75.067661 
   24150    215.63755   -61.131487    958543.81    -300381.8    19343.015   -319724.82    75.299755 
   24200     214.3326    7.3578452    958206.96   -300471.73    19225.959   -319697.69    75.467418 
   24250    213.82821    61.058015    958221.24    -300370.6    19180.715   -319551.31     75.60803 
   24300      215.181   -13.711526    958122.82    -300435.5    19302.062   -319737.57    75.731896 
   24350    215.39798   -57.348925    958452.79    -300472.3    19321.526   -319793.83    75.909332 
   24400     215.9221    8.4942933    958160.98   -300367.32     19368.54   -319735.86     75.96145 
   24450    213.65898   -16.563025    957698.09   -300535.91    19165.535   -319701.45    76.182709 
   24500    214.67492   -4.7042172    957710.14   -300483.14    19256.666   -319739.81    76.397882 
   24550    213.77677    4.2988029    957658.26   -300532.85    19176.101   -319708.95    76.505183 
   24600     214.9782   -18.534516    957666.45   -300505.37    19283.871   -319789.24    76.653913 
   24650    214.43656    38.312629     958205.8    -300547.9    19235.285   -319783.18    76.776076 
   24700    215.99937     52.63793    958614.83    -300437.4    19375.471   -319812.87     76.95238 
   24750    214.76479   -7.1654462    958817.26   -300512.02    19264.728   -319776.74    77.106744 
   24800    213.70558   -2.9437986    958743.12   -300456.16    19169.715   -319625.88    77.296758 
   24850    215.40814   -22.410276    958460.67   -300515.15    19322.437   -319837.59    77.579565 
   24900      215.892    -93.10345    957877.18      -300625     19365.84   -319990.84    77.682397 
   24950    216.49492   -23.419788    957886.28   -300621.35    19419.923   -320041.27     77.89798 
   25000    214.94717    22.765727    958030.89    -300697.4    19281.087   -319978.49     78.06328 
   25050     214.7418    27.198363    958525.09   -300725.35    19262.666   -319988.01    78.152664 
   25100    213.33132    22.900512    958724.37   -300763.02    19136.143   -319899.17    78.347376 
   25150    212.92875    43.580781    958674.85   -300982.72    19100.032   -320082.75    78.489523 
   25200    212.44634    18.732811    958533.17   -300965.53    19056.759   -320022.29    78.632969 
   25250    215.04099    37.625869    959095.45   -300866.26    19289.503   -320155.77    78.813674 
   25300    215.71612    -31.28584    959469.35   -300697.01    19350.064   -320047.07    78.795557 
   25350    214.95228   -11.841044    959133.38    -300723.3    19281.546   -320004.85    78.964726 
   25400    215.38624   0.64148788    959152.81   -300784.92    19320.473   -320105.39    79.079175 
   25450    213.71653     14.98082    959204.74   -300682.96    19170.697   -319853.65    79.092632 
   25500    214.95526    -3.449235    959244.69   -300609.15    19281.813   -319890.97    79.163551 
   25550     216.0499    8.5459125    959125.42      -300432    19380.003   -319812.01    79.438358 
   25600    214.55937    -9.396373     959225.5   -300567.91    19246.301   -319814.21    79.575518 
   25650     214.3241    35.647157    958771.66   -300587.49    19225.197   -319812.68     79.67092 
   25700    214.41999   -26.604794     958881.4   -300659.73    19233.798   -319893.53    79.799164 
   25750    213.22638    53.412497     958906.7   -300527.05     19126.73   -319653.77    79.963145 
   25800    215.40193     10.83609    959240.45   -300429.63     19321.88   -319751.51     80.13798 
   25850    216.61378   -44.283988    959262.68   -300376.13    19430.584   -319806.71    80.237184 
   25900     215.3799    38.366394    959175.43   -300474.46    19319.903   -319794.36    80.296194 
   25950    214.68181   -30.398118    958940.71   -300495.85    19257.284   -319753.13    80.377742 
   26000    215.63291   -50.753882    958749.41   -300437.53    19342.599   -319780.13    80.519985 
   26050    216.01705   -18.067122       958787   -300430.62    19377.057   -319807.68    80.684285 
   26100    215.85166   -41.055188    958692.73   -300396.73    19362.222   -319758.95    80.828177 
   26150    215.82535   -17.361817    958671.63   -300463.66    19359.861   -319823.52    81.070259 
   26200    215.32828   -24.366407    958455.11   -300522.34    19315.274   -319837.62    81.173672 
   26250    214.82675   -23.448664    958198.49   -300614.52    19270.285    -319884.8    81.305773 
   26300    214.93448   -77.843602    958100.16    -300558.7    19279.949   -319838.65    81.465403 
   26350     215.6299    40.600325    958202.43   -300570.86    19342.329   -319913.18    81.591198 
   26400    213.43421    64.279946    958632.27   -300447.33    19145.373   -319592.71    81.758028 
   26450    215.95528   -48.483142     958656.2   -300376.42    19371.516   -319747.94    81.870445 
   26500    213.62279    7.3870437    958456.13   -300286.29    19162.288   -319448.58      81.9677 
   26550    216.11119   -22.292414    958646.78   -300255.97    19385.502   -319641.47    82.086282 
   26600    214.16617    2.8207071    958788.73   -300300.94     19211.03   -319511.97    82.229596 
   26650    215.07476  -0.48247858    959220.86   -300201.82    19292.532   -319494.36    82.410198 
   26700    214.18669    23.218792    959161.24   -300177.36    19212.871   -319390.23     82.59056 
   26750    214.97579     37.99233     959174.4   -300276.24    19283.654   -319559.89    82.742052 
   26800    214.89327    17.023572    959324.87   -300340.74    19276.252   -319616.99    82.893336 
   26850    215.33418   -27.931387    959300.35   -300216.31    19315.803   -319532.12     83.14141 
   26900    215.81444   -25.051719    959107.03   -300207.53    19358.883   -319566.41     83.28898 
   26950    217.11668   -8.2621581    959205.81   -300147.99    19475.695   -319623.68    83.497972 
   27000     215.3799    -59.55298    959044.71    -300261.2    19319.904   -319581.11    83.723493 
   27050    214.72112   -39.591711    959050.95   -300209.87     19260.81   -319470.68    83.900399 
   27100    214.40758    1.5480151    958929.92    -300287.2    19232.685   -319519.89    84.035476 
   27150    214.98789   -33.534583    959022.22   -300291.23    19284.739   -319575.96    84.101562 
   27200    216.36726   -1.5559753    958885.26   -300261.93    19408.471    -319670.4     84.28742 
   27250    216.27864    1.4897343    958961.55    -300076.5    19400.522   -319477.02     84.48405 
   27300    214.83912    11.817517     959050.8   -300046.28    19271.395   -319317.67    84.678535 
   27350    215.50301   -10.863372    958881.84   -300090.13    19330.947   -319421.08    84.774112 
   27400    215.91417    56.288759    958888.31   -300088.09    19367.829   -319455.92    84.941156 
   27450    215.12119  -0.38737318    958912.87   -300184.95    19296.697   -319481.65    85.089105 
   27500    214.43344   -11.770343    958615.86   -300251.61    19235.005   -319486.61    85.206754 
   27550    213.28199     21.05137    958900.46   -300329.51    19131.718   -319461.23    85.270372 
   27600    214.03178   -17.214915    959268.45   -300364.83    19198.975    -319563.8     85.37186 
   27650    214.83402   -67.608312    958979.91   -300202.01    19270.937   -319472.95    85.639053 
   27700    216.40952   -1.9250345    958732.81   -300041.43    19412.262    -319453.7     85.94436 
   27750    216.33694   -12.592544    958890.04   -300023.95    19405.751    -319429.7    86.129193 
   27800    216.75987   -39.908738    958828.13   -300118.64     19443.69   -319562.33    86.310238 
   27850    214.99947    -58.77142     958783.7   -300230.23    19285.779   -319516.01    86.443036 
   27900    214.94512    19.233711    958773.41   -300243.33    19280.903   -319524.24    86.633577 
   27950    215.40034   -1.3877375    959211.07   -300335.76    19321.737    -319657.5     86.76331 
   28000    215.10951    18.998481    959183.79   -300333.52     19295.65   -319629.17    86.935144 
   28050    215.38029   -6.5137056    959319.52   -300341.82    19319.939   -319661.76    87.123315 
   28100    216.27385   -58.834731    958813.55   -300302.54    19400.093   -319702.63    87.337115 
   28150    215.26053     17.36893     959118.6    -300311.1    19309.196    -319620.3    87.387947 
   28200    215.92305     2.315388    959261.37   -300312.81    19368.625   -319681.44    87.579657 
   28250    214.60062   -32.500357    959075.43   -300397.74    19250.001   -319647.74    87.680289 
   28300    214.87901   -16.718795    958923.13   -300373.08    19274.973   -319648.05    87.809479 
   28350    215.32818   -5.6592665    959216.67   -300338.49    19315.264   -319653.76     87.92242 
   28400    216.03542     25.24064    959495.74   -300236.13    19378.705   -319614.83    88.159583 
   28450    215.38894   -13.501762    959449.23   -300371.93    19320.715   -319692.64    88.396424 
   28500    215.16786   -10.204346    959142.12   -300384.51    19300.883   -319685.39    88.539431 
   28550    215.48315    28.851543    959147.48   -300480.97    19329.165   -319810.14    88.640279 
   28600    215.39539    61.076595    959580.48   -300556.62    19321.294   -319877.92    88.745121 
   28650    214.80396    109.82812    959980.03   -300497.86    19268.241    -319766.1    88.881076 
   28700    214.63735   -4.1552695    960051.46    -300474.7    19253.296   -319727.99    89.046626 
   28750    215.47757   -35.007241    959830.18   -300566.99    19328.665   -319895.66    89.185509 
   28800    214.34613    13.659327    959440.04   -300551.59    19227.173   -319778.76    89.279977 
   28850    213.20351      48.6098    959746.45   -300575.31    19124.679   -319699.98    89.441535 
   28900    215.66053   -48.772179    959805.39   -300502.61    19345.077   -319847.69      89.6838 
   28950     214.9361   -33.081941    959183.51   -300528.18    19280.094   -319808.27     89.88152 
   29000    216.92218    23.587072    959102.76   -300455.77    19458.248   -319914.02    90.126189 
   29050    216.09528   -5.8185486    958801.33   -300467.01    19384.074   -319851.09    90.351524 
   29100    214.76179    18.335885    958664.41   -300513.81    19264.458   -319778.27    90.517676 
   29150    216.15657    77.377956    959204.79   -300421.73    19389.572    -319811.3    90.617061 
   29200    214.89108    94.096167    959570.75   -300394.38    19276.056   -319670.44    90.714783 
   29250      215.732   -57.303672    959877.97   -300390.08    19351.488   -319741.57    90.822966 
   29300    215.68102    29.801119    959778.51   -300441.63    19346.914   -319788.55    90.928431 
   29350    215.50403   -34.000297    959653.21   -300466.91    19331.039   -319797.95     91.03336 
   29400    215.80784    38.730321    959715.25   -300437.97     19358.29   -319796.26    91.151494 
   29450    215.76823   -9.8783335    959530.48   -300457.77    19354.737   -319812.51    91.260233 
   29500    215.09218    31.761681     959612.3   -300480.84    19294.095   -319774.94    91.411604 
   29550    215.61076   -51.375859    959088.92   -300423.49    19340.612    -319764.1    91.557887 
   29600    215.12578    8.6353705    959144.43   -300357.08    19297.109   -319654.19    91.616729 
   29650    215.91332   -60.446694    959045.26   -300455.97    19367.752   -319823.72    91.792312 
   29700    214.70676    23.309338    959148.82   -300440.73    19259.522   -319700.25    91.931027 
   29750     215.8904  -0.55938576    959293.91   -300490.94    19365.696   -319856.64     92.10195 
   29800    214.40528    16.285725    959193.54   -300545.46    19232.479   -319777.94    92.210846 
   29850      213.745    18.501008    959310.96   -300548.44     19173.25   -319721.69    92.352204 
   29900    213.95149   -26.373233     958910.1   -300526.08    19191.773   -319717.85    92.461763 
   29950    213.55681   -14.144282    958564.49   -300729.53    19156.369    -319885.9    92.648866 
   30000     215.3014    28.296629    958439.98   -300538.25    19312.862   -319851.12    92.809798 
   30050    216.40145   -27.414625    958272.35   -300500.91    19411.538   -319912.45    92.938018 
   30100    215.32836    16.863019    958424.46   -300483.27     19315.28   -319798.55    93.096259 
   30150    216.18488   -35.090495    958495.54   -300420.14    19392.112   -319812.25    93.225764 
   30200    215.03619   -27.767351    958486.36   -300444.38    19289.072   -319733.45    93.466104 
   30250    214.59928    52.305543    958958.26   -300501.32    19249.881    -319751.2    93.683187 
   30300    216.08073     48.19971    958988.29   -300425.92    19382.769   -319808.69    93.890604 
   30350     216.4531    9.5645514    959467.72   -300501.55    19416.171   -319917.72    94.033195 
   30400    214.03633   -39.153775    959210.87   -300637.91    19199.383   -319837.29      94.1937 
   30450    213.14333   0.97097433    959474.71   -300714.88     19119.28   -319834.16    94.358762 
   30500    215.63271   -70.275847    959181.66   -300725.26    19342.581   -320067.84    94.468166 
   30550    214.32627   -23.086412    959311.32   -300662.66    19225.391   -319888.05    94.690479 
   30600    215.53774     26.86299    959448.12   -300481.83    19334.062   -319815.89    94.793649 
   30650    214.05054   -33.728776    959674.91   -300654.34    19200.658   -319854.99    94.852918 
   30700    215.65206    26.892866     959685.6   -300663.94    19344.316   -320008.26    94.984927 
   30750    214.77738    32.978986    960218.73   -300584.01    19265.857   -319849.87    95.086737 
   30800    213.62446   -16.021085    960349.05   -300506.82    19162.438   -319669.26    95.199059 
   30850    215.26442    -46.22631    960223.09   -300444.18    19309.545   -319753.72    95.251617 
   30900    215.20663    37.011232    960234.22   -300430.37    19304.361   -319734.73    95.449688 
   30950    213.94307   -48.407563    960104.12   -300539.18    19191.018    -319730.2    95.592547 
   31000    215.75351   -38.501865    959830.73   -300396.13    19353.417   -319749.55    95.679184 
   31050    214.25305   -36.171552    959355.52   -300472.81    19218.823   -319691.63    95.744511 
   31100    214.43652    22.719193    958853.34   -300399.63    19235.281   -319634.91    95.830545 
   31150    215.46387    86.161801    959183.65   -300467.45    19327.436   -319794.88    96.022375 
   31200    214.78848   -44.977564    959145.34   -300327.54    19266.853   -319594.39    96.152368 
   31250    214.49311    62.324588     959125.1   -300283.14    19240.358    -319523.5    96.297832 
   31300    215.38855    -50.82484    959138.07   -300223.96     19320.68   -319544.64    96.338956 
   31350    215.98931   -4.7120313    959308.19   -300339.99    19374.569   -319714.56    96.496767 
   31400    212.74105   -41.860111    959298.17   -300389.39    19083.195   -319472.59    96.592448 
   31450    216.38018    16.203707       959041   -300281.92     19409.63   -319691.55    96.639447 
   31500    215.76007   -9.9014016    959170.57   -300236.05    19354.005   -319590.05    96.803801 
   31550    214.34746    38.306271    959081.71   -300391.53    19227.292   -319618.82    97.009882 
   31600    215.53325    70.200139    959253.78   -300384.03     19333.66   -319717.69    97.157537 
   31650    216.14414   -2.2977295    959378.63   -300294.88    19388.458   -319683.34    97.344329 
   31700     216.2104     0.116408    959177.41   -300256.02    19394.401   -319650.42    97.443406 
   31750    216.55823   -3.2407759    958846.55   -300226.38    19425.602   -319651.98    97.556191 
   31800    217.08293   -20.554638    959259.84   -300393.29    19472.668   -319865.96    97.679401 
   31850    214.12367    26.826721    959292.84   -300460.34    19207.218   -319667.56     97.78022 
   31900    215.56921    13.929048    959269.77   -300442.75    19336.885   -319779.64    97.976939 
   31950    213.98836   -57.228383       959131   -300458.09     19195.08   -319653.17    98.119097 
   32000    215.96934   -18.227498    959302.69   -300355.19    19372.778   -319727.96    98.271836 
   32050     215.6958   -38.561628    959100.19   -300407.21     19348.24   -319755.45     98.42575 
   32100    215.37861   -35.655055    959209.57   -300442.72    19319.788   -319762.51    98.466418 
   32150    214.21365    50.286843    959299.67   -300542.78    19215.289   -319758.07     98.49857 
   32200    213.16099   -13.398935     959825.7    -300510.2    19120.865   -319631.06    98.562424 
   32250     213.9013    72.509476    960164.06    -300380.5    19187.271   -319567.78    98.737936 
   32300    215.05294    -38.90793    960319.27   -300346.19    19290.575   -319636.76    98.805509 
   32350    214.27633   -30.854122    959933.24   -300393.62    19220.912   -319614.54    98.996564 
   32400    215.21696    -43.38611    959924.24   -300387.98    19305.287   -319693.27    99.208546 
   32450    214.72225    30.199047     959455.4   -300253.97    19260.912   -319514.88    99.350875 
   32500    215.28141    12.688831    959452.93   -300324.85    19311.069   -319635.92    99.494148 
   32550    213.83001   -41.508055    959281.11   -300237.37    19180.876   -319418.24    99.547232 
   32600    215.10839   -43.898618    958962.06    -300293.5    19295.549   -319589.05    99.671678 
   32650    214.58214   -59.092839    958664.13   -300394.71    19248.343   -319643.05    99.748691 
   32700    215.42579    -9.972482    958178.85   -300424.33     19324.02   -319748.35    99.866273 
   32750    215.72807   -29.097403    958112.96   -300319.08    19351.135   -319670.22    99.882988 
   32800    215.63896    4.4070011    958051.31   -300234.73    19343.142   -319577.87    99.874766 
   32850    215.22557   -2.2305223    958207.15   -300220.88     19306.06   -319526.94    100.01931 
   32900    216.11787    45.141579    957941.08   -300216.57    19386.101   -319602.67    100.18495 
   32950    214.25086    -29.04429    957921.14   -300263.76    19218.627   -319482.38    100.35065 
   33000    217.34516   -42.173985    957347.78    -300354.9     19496.19   -319851.09    100.47783 
   33050    215.15778    23.163158    957360.06   -300334.14     19299.98   -319634.12    100.64405 
   33100    215.45846    20.107825    957695.94   -300320.59    19326.951   -319647.55    100.75438 
   33150    215.79009    6.5704987     957949.4   -300341.76    19356.698   -319698.45    100.92575 
   33200    215.70969   -17.191124    958271.12   -300425.85    19349.487   -319775.33    101.04725 
   33250    215.54551   -22.112761    958160.83   -300273.51    19334.759   -319608.27    101.23017 
   33300    214.81627    27.292555    958340.55   -300407.79    19269.345   -319677.13    101.43045 
   33350    214.87844   -8.5874264    958726.84   -300472.07    19274.922   -319746.99    101.58606 
   33400    215.56492   -73.732411    958490.65   -300582.46    19336.501   -319918.96    101.67203 
   33450    214.92332   -2.6895743    958265.96   -300633.27    19278.948   -319912.22      101.751 
   33500     214.8237    4.6793318    958374.58   -300562.82    19270.012   -319832.83    101.92182 
   33550    214.57567    38.402401    958545.84   -300643.18    19247.763   -319890.95    102.06481 
   33600    215.42842    89.745509    959076.93   -300499.08    19324.256   -319823.34       102.19 
   33650    214.58332   -4.5746596     959407.7   -300532.35    19248.449    -319780.8     102.3146 
   33700    217.30768   -18.744475     959039.9   -300255.56    19492.829   -319748.39    102.43387 
   33750    215.90816    51.548415    959044.83   -300212.17    19367.289   -319579.46    102.44219 
   33800    215.90039   -44.722574    958816.93   -300224.94    19366.593   -319591.54    102.64183 
   33850    217.70914    9.7418452    958679.22   -300229.86    19528.841    -319758.7     102.8694 
   33900     216.0149    -38.59099    958662.63   -300302.17    19376.864   -319679.04    103.00059 
   33950    213.26956    -9.468749    958248.41   -300509.21    19130.603   -319639.81    103.11469 
   34000    215.62527   -28.313996    958328.36   -300522.37    19341.913   -319864.28    103.33965 
   34050    216.10284   -9.3946461    957842.16   -300553.43    19384.753   -319938.18    103.44815 
   34100    213.77773    28.521918    957977.76   -300637.94    19176.187   -319814.12    103.59457 
   34150    214.27605   -15.655784    958161.85   -300561.52    19220.887   -319782.41    103.69999 
   34200    215.16333    34.166447    958398.44   -300464.56    19300.477   -319765.04    103.94268 
   34250    213.71873    51.537157    958678.43   -300543.61    19170.894   -319714.51    104.11703 
   34300    214.50127    -11.00548     959016.4    -300495.4    19241.089   -319736.49    104.27264 
   34350    216.22439   -8.8416705    958623.11    -300499.2    19395.656   -319894.85    104.47869 
   34400    214.58325   -5.9643556    958551.75   -300435.73    19248.443   -319684.18    104.73815 
   34450    216.34981   -48.224521    958133.99    -300313.4    19406.906    -319720.3    104.93691 
   34500    215.69266   -49.915187    958238.38   -300103.99    19347.959   -319451.95    105.15511 
   34550    214.99928    29.039548    957920.07   -300113.03    19285.762   -319398.79    105.35673 
   34600    214.59651    16.239293    958157.69   -300183.52    19249.633   -319433.16    105.52323 
   34650    214.93735    19.121625    958227.41   -300252.23    19280.206   -319532.44    105.63049 
   34700    214.30234   -33.447784    957703.03   -300413.83    19223.245   -319637.07    105.78894 
   34750    215.13425    24.645414    957881.64   -300487.35    19297.869   -319785.22    105.89932 
   34800     214.4758   -22.788064    958198.33   -300406.01    19238.805   -319644.82    106.02198 
   34850    214.60392    8.3958967    957899.72   -300468.62    19250.297   -319718.91     106.0431 
   34900    215.30557   -5.9512133     957920.8   -300404.61    19313.236   -319717.84    106.18494 
   34950     213.3041    54.452733    957917.51    -300477.3    19133.701      -319611    106.29608 
   35000    214.53196    75.483714    958251.88   -300303.11    19243.842   -319546.95    106.53339 
   35050    214.98624    -43.57493    958309.73   -300291.14    19284.592   -319575.73    106.63812 
   35100    216.70787   -9.3848512    958101.13   -300352.28    19439.025   -319791.31    106.82656 
   35150    215.99148   -50.927089    957968.13   -300244.17    19374.763   -319618.93    106.93457 
   35200    214.59233    21.868292    957647.58   -300313.56    19249.258   -319562.82    107.09581 
   35250    215.35504   -30.432614    957572.47   -300337.92    19317.674   -319655.59     107.3016 
   35300    215.08077   -2.7434262    957451.04   -300356.79    19293.071   -319649.86    107.49782 
   35350    214.85179   0.23338836    957228.27   -300281.11    19272.531   -319553.64    107.49901 
   35400    215.12538     12.26041    957107.33   -300432.29    19297.073   -319729.37    107.73297 
   35450    215.62042   -36.085578    957352.47   -300441.82    19341.479    -319783.3    107.89738 
   35500    215.62586    55.812435    957426.05   -300335.19    19341.967   -319677.16    108.05857 
   35550    215.76497    6.9678409    957591.25   -300376.13    19354.445   -319730.57    108.30301 
   35600    214.19085   -3.0737726    957621.07   -300463.52    19213.244   -319676.76    108.49644 
   35650    215.47791    29.526358    958216.44   -300347.97    19328.696   -319676.66    108.66691 
   35700    215.83924   -42.885114     958136.4   -300343.25    19361.107   -319704.36    108.86194 
   35750    216.72526   -35.235822    957684.49   -300254.42    19440.584   -319695.01    108.98734 
   35800    216.53336   -23.268806    957678.66   -300171.97     19423.37   -319595.34    109.09636 
   35850    215.20906   0.67604954    957685.85   -300249.21    19304.579   -319553.79    109.33132 
   35900    215.64233    21.274161    957513.75   -300325.76    19343.445    -319669.2    109.35115 
   35950    215.15717     1.195462    957560.46   -300357.63    19299.925   -319657.56     109.4342 
   36000    215.96243   -6.2742853    957394.04   -300318.49    19372.158   -319690.65    109.50239 
   36050    214.55057    41.884438    957568.06   -300372.92    19245.511   -319618.43    109.57887 
   36100    215.53848    13.231878    957990.62   -300480.79    19334.128   -319814.92    109.76765 
   36150    216.28512   0.32119365    958114.69   -300284.16    19401.103   -319685.26    109.95603 
   36200     214.6728   -16.010168    957740.55   -300475.64    19256.476   -319732.11    110.08992 
   36250    215.04949   -18.377192    957682.62   -300405.63    19290.266    -319695.9    110.23135 
   36300    214.93955   -6.2963664    957489.08   -300410.54    19280.404   -319690.95    110.29544 
   36350    214.07442    6.8117252    957292.68   -300457.01      19202.8   -319659.81    110.45139 
   36400    213.09714     57.92111     957856.7   -300546.39    19115.136   -319661.53    110.59787 
   36450    214.19243   -20.728412     958017.4   -300519.19    19213.385   -319732.57    110.82206 
   36500    213.96587    -6.821578    957905.12   -300487.66    19193.063   -319680.72    110.98594 
   36550    213.32932    43.548644    957831.62   -300393.32    19135.964   -319529.29     111.2557 
   36600    212.88486   -2.3342153    957791.45   -300369.72    19096.095   -319465.81    111.36287 
   36650    215.11956   -71.131478    957587.97   -300420.47    19296.551   -319717.03     111.4889 
   36700    214.20065   -41.379461    957075.07    -300520.9    19214.123   -319735.02    111.64858 
   36750    214.51931   -21.221706    956946.07   -300579.82    19242.707   -319822.52    111.71761 
   36800    214.06403    22.039466    957110.79   -300539.83    19201.868    -319741.7    111.83707 
   36850    214.93809    71.235889    957466.01   -300504.54    19280.273   -319784.81    111.93432 
   36900    215.65612   -49.915341    957475.25   -300490.31    19344.681      -319835    112.13592 
   36950    215.04744   -37.676974    957282.08   -300530.58    19290.082   -319820.67    112.26433 
   37000     213.9298    22.903468    957297.14   -300480.02    19189.828   -319669.85    112.37562 
   37050    215.66295   -35.863333    957137.51   -300510.98    19345.294   -319856.28     112.4803 
   37100    214.84839   -27.335695    957120.57   -300533.27    19272.227    -319805.5    112.61699 
   37150    214.14695    65.760292    957605.37   -300527.55    19209.307   -319736.86      112.766 
   37200    213.50902   -16.616233    957509.96   -300604.31    19152.083   -319756.39    112.93641 
   37250    215.11767   -34.847974     957371.4   -300490.86    19296.381   -319787.24    113.10026 
   37300    213.74413   -2.3042308    957214.64    -300562.1    19173.172   -319735.27    113.16688 
   37350     214.6295  -0.30202367    957501.34   -300655.75    19252.592   -319908.34    113.31424 
   37400    215.55194    6.5511782    957526.13   -300679.93    19335.336   -320015.27    113.51016 
   37450     214.8564     55.27137    957890.42   -300681.68    19272.945   -319954.63    113.69043 
[...]
  191000    213.20697   -20.958231    959614.07   -300942.79    19124.989   -320067.78    554.20995 
  191050    215.49793   -19.702911    959418.91   -300842.57    19330.491   -320173.06    554.42014 
  191100    212.87354    21.491723    959424.67   -300930.81     19095.08   -320025.89    554.60534 
  191150     214.4602    21.289296    959622.42   -300817.02    19237.405   -320054.42     554.7253 
  191200    214.23821    58.633942    959710.33    -300750.9    19217.493    -319968.4    554.78895 
  191250    216.56836    38.814975     959747.9   -300691.65    19426.511   -320118.16    554.98595 
  191300    214.66795    27.970357    960112.37   -300724.04    19256.041   -319980.08    555.18825 
  191350    215.46642   -14.833188    960270.38   -300688.58    19327.664   -320016.24    555.27637 
  191400    216.15477   -2.7960882    960122.35   -300583.26    19389.411   -319972.67    555.46976 
  191450    214.44356   -7.2365677    960055.59   -300657.82    19235.912   -319893.74    555.47585 
  191500    215.99595   -19.284905    959766.03   -300672.47    19375.164   -320047.64    555.77686 
  191550    215.36139    28.486871    959704.65   -300629.18    19318.243   -319947.42    555.77702 
  191600    216.86184   -8.3159788    959749.47   -300607.45    19452.836   -320060.28    556.01205 
  191650    214.79546   -59.582078    959523.15   -300745.94    19267.479   -320013.42    556.13536 
  191700    214.21882   -15.571961    959088.24   -300788.19    19215.753   -320003.94    556.18259 
  191750    215.14789    8.4740099    958932.49   -300892.61    19299.092    -320191.7    556.29346 
  191800    216.22406    37.157952    959141.24   -300735.73    19395.626   -320131.36     556.3632 
  191850    214.73266   -8.9889156    959302.97   -300816.84    19261.845   -320078.69    556.59942 
  191900    215.46556    77.122239    959632.27   -300718.82    19327.588    -320046.4    556.82939 
  191950    214.20092    17.126215     959642.4   -300743.07    19214.147   -319957.21    556.97452 
  192000    214.94221   -7.4811309    959688.24   -300761.13    19280.643   -320041.77    557.05342 
  192050    216.64137    18.393141    959738.21   -300753.11     19433.06   -320186.17    557.17235 
  192100    215.45884    8.3146876    959993.07   -300789.72    19326.985   -320116.71    557.35062 
  192150    214.75781    30.511652    959946.76   -300850.81    19264.102   -320114.91    557.58399 
  192200    213.25826   -4.9962162    960371.18   -300822.04    19129.589   -319951.63    557.73022 
  192250    213.48898     43.42374    960583.01   -300918.48    19150.285   -320068.77    558.00384 
  192300    214.07492   -30.465992    960451.49    -300824.8    19202.845   -320027.64    558.06405 
  192350      214.148    25.978638    960691.13   -300803.76    19209.401   -320013.16    558.34647 
  192400    214.16436   -20.869925     960850.8   -300821.14    19210.868   -320032.01    558.72491 
  192450    213.97289   -33.514271    960502.69   -300782.14    19193.693   -319975.83    558.64212 
  192500    215.14078  -0.16654019       960276   -300705.13    19298.454   -320003.59     558.7848 
  192550    215.02813    31.694853    959943.53   -300663.66    19288.349   -319952.01     558.8465 
  192600    214.44302   -27.805436    960205.58    -300656.9    19235.864   -319892.77    558.78506 
  192650    215.93663    33.704605    960022.89    -300672.3    19369.843   -320042.14    558.68488 
  192700    215.87409    33.900698    960430.01   -300678.56    19364.233   -320042.79    558.84543 
  192750     214.9226   -43.007141    960506.31   -300670.46    19278.883   -319949.34    558.91747 
  192800     212.9581   -55.902751    960075.85   -300676.43    19102.664   -319779.09     558.9268 
  192850    214.71456    17.976915    959982.06   -300643.47    19260.221   -319903.69    558.84853 
  192900    215.11277   -29.175796    960037.22   -300604.79    19295.942   -319900.73    558.96841 
  192950    213.52178   -13.557897    959731.38   -300550.91    19153.228   -319704.14    558.79207 
  193000    216.74748    24.185172    959820.69   -300499.61    19442.577   -319942.19       558.87 
  193050    215.69644   -11.010844    959686.44   -300480.57    19348.298   -319828.87    558.94637 
  193100    215.35566    4.3816878    959701.15   -300408.23    19317.729   -319725.96    559.08408 
  193150    215.91088    1.6028574    959672.18   -300512.31    19367.534   -319879.84    559.44622 
  193200    215.73712   -86.423872    959492.36   -300550.07    19351.947   -319902.02    559.56047 
  193250    215.18926    48.230277    959219.74   -300478.86    19302.803   -319781.66    559.54539 
  193300    215.78299    19.086035    959185.88   -300530.02    19356.061   -319886.08     559.7316 
  193350    214.40383   -11.641353    959065.99   -300593.11    19232.349   -319825.46    559.85378 
  193400    214.25726   -28.798818    958886.63   -300601.63    19219.202   -319820.83    560.00061 
  193450    213.79962   -20.643785    958757.35   -300622.93     19178.15   -319801.08    559.78977 
  193500    214.71675   -1.5905608    958310.35   -300695.26    19260.419   -319955.67    559.76106 
  193550    212.11267   -3.7212966    958486.41   -300746.93    19026.828   -319773.76    560.22238 
  193600     214.2761   -43.655051    958588.76   -300697.54    19220.891   -319918.43    560.35524 
  193650    213.73602    19.873767    958305.56    -300661.8    19172.446   -319834.25    560.59393 
  193700    214.57853   -28.927735    957956.56   -300663.14     19248.02   -319911.16     560.6242 
  193750    215.79707   -51.557592    957940.12   -300698.01    19357.324   -320055.33    560.89244 
  193800    214.84539   -14.077845    957922.41   -300750.44    19271.958   -320022.39    561.02629 
  193850    214.96969    42.262837    957936.95   -300707.27    19283.107   -319990.38    561.16663 
  193900    213.92066    27.711656     957996.7    -300858.4    19189.008   -320047.41    561.27562 
  193950    214.41112    6.8754882    958014.46   -300763.65    19233.003   -319996.65    561.53838 
  194000    215.51134   -25.311071    958120.37   -300679.69    19331.694   -320011.38    561.81553 
  194050    215.29513   -36.184676    958257.55   -300578.63    19312.299   -319890.93    561.91859 
  194100    213.91134     6.139803    958022.12   -300686.07    19188.172   -319874.24    561.82171 
  194150    214.37659   -22.565516    957861.52   -300668.36    19229.905   -319898.26    562.16265 
  194200    213.04034   -64.989774    957495.29   -300740.93    19110.042   -319850.98    562.01778 
  194250    213.84596    27.638031    957650.94   -300726.74    19182.307   -319909.04       562.36 
  194300      213.809    13.846858    957544.87   -300673.11    19178.992    -319852.1    562.45568 
  194350    213.63053    16.449726    957933.67   -300739.36    19162.983   -319902.34    562.69767 
  194400    214.54668   -26.559831    957734.09   -300621.29    19245.163   -319866.45     562.6861 
  194450    215.16459    16.053754    958127.01   -300510.57     19300.59   -319811.16    563.13553 
  194500    215.54913   -62.636245    958151.24   -300467.46    19335.084   -319802.54    563.39413 
  194550    214.82113    1.5454402    958275.98   -300428.34    19269.781   -319698.12    563.59557 
  194600    215.10198     42.91571     958566.2   -300395.27    19294.974   -319690.25    563.78449 
  194650    215.54624    1.2970625    958908.34      -300351    19334.825   -319685.83    564.06973 
  194700    215.48494    18.186858    959169.27   -300287.38    19329.326    -319616.7    564.25681 
  194750     214.6766   -60.951039    959056.72   -300306.66    19256.817   -319563.47    564.22169 
  194800    215.40771   -7.6761449    958879.23   -300343.66    19322.399   -319666.06    564.19424 
  194850    216.15483   -37.584523    958788.65   -300302.25    19389.416   -319691.67    564.23397 
  194900    217.00017   -3.0021841    958827.68   -300279.17    19465.245   -319744.41    564.34498 
  194950    216.87501   -24.071467    958979.68   -300227.74    19454.017   -319681.75    564.44745 
  195000    215.02332   -1.5769958    959041.54   -300406.81    19287.918   -319694.73    564.65608 
  195050    213.63652   -5.1154355    958656.44   -300408.25     19163.52   -319571.77    564.56599 
  195100    215.51812    42.397824    958688.76   -300398.31    19332.302   -319730.62    564.93631 
  195150    216.07034   -19.411092    958859.26   -300393.44    19381.838   -319775.28    565.15968 
  195200    215.68625    70.511797    959267.82    -300415.3    19347.384   -319762.69    565.40292 
  195250    215.91657   -11.187144    959504.63   -300475.64    19368.044   -319843.69    565.83068 
  195300    214.47887   -66.932159    959002.88   -300532.45     19239.08   -319771.53    565.68513 
  195350    215.42675    7.5866996    958905.21   -300543.59    19324.106    -319867.7    565.80326 
  195400    214.70422   -21.836219    958852.59   -300561.99    19259.294   -319821.28    565.75699 
  195450    215.77002   0.76390489    958993.37   -300630.59    19354.898   -319985.49    566.13053 
  195500    214.51123   -66.006924     958613.6   -300694.64    19241.983   -319936.63    566.21672 
  195550    213.83285   -27.942875    958422.47   -300685.82    19181.131   -319866.95    566.29975 
  195600    214.08324    35.433834    958738.09   -300603.93    19203.591   -319807.52     566.5682 
  195650      215.843   -27.949297     958613.6   -300538.51    19361.444   -319899.95    566.75339 
  195700    213.95866   -21.306777    958736.48   -300472.43    19192.416   -319664.85     566.8073 
  195750    215.61279    6.8856263    958421.53   -300559.78    19340.794   -319900.57    566.94839 
  195800    216.46557  -0.89822969    958655.55   -300320.32     19417.29   -319737.61    567.30039 
  195850    215.70677   -39.493916    958352.48   -300291.88    19349.224   -319641.11    567.18646 
  195900    214.12343   -66.322653    958172.47   -300653.62    19207.196   -319860.81    567.15271 
  195950    213.89753    50.796172    957873.11   -300779.33    19186.933   -319966.26    567.33847 
  196000    214.62503   -47.845314    958066.27   -300747.75     19252.19   -319999.94     567.3015 
  196050    214.24375   -11.234442    957993.94   -300674.76    19217.989   -319892.75    567.26027 
  196100    216.23255    26.409714    958253.99    -300564.3    19396.388   -319960.69    567.65821 
  196150    215.36044    7.6838821    958414.94   -300719.25    19318.158   -320037.41    567.77211 
  196200    214.89829   -32.324595    958426.48   -300614.09    19276.703   -319890.79    567.90332 
  196250    214.68838   -11.517993     958382.6   -300688.99    19257.873   -319946.86    567.88278 
  196300    214.80203    21.888466    958309.04   -300704.77    19268.068   -319972.84    567.89409 
  196350    213.37729    11.880631    958165.68   -300638.85    19140.266   -319779.12    568.05677 
  196400    215.35617   -55.683486    957992.23   -300615.89    19317.775   -319933.67    568.10244 
  196450    214.12303   -4.5630677       957681   -300516.05    19207.161   -319723.21     568.0673 
  196500    214.46288   -22.974016    957671.24    -300523.3    19237.645   -319760.95    568.20865 
  196550    215.60858   -67.440664     957282.7    -300578.9    19340.417   -319919.31    568.27108 
  196600    214.34548    33.960282    957297.21   -300489.46    19227.115   -319716.58    568.42148 
  196650    214.33361     10.50104    957279.92   -300325.39     19226.05   -319551.44     568.4118 
  196700    214.89504   -35.166546    957307.08   -300391.35    19276.411   -319667.76    568.83305 
  196750    215.89497    47.507144    957463.42   -300459.35    19366.106   -319825.45    568.94933 
  196800    213.83985    20.697272    957807.58   -300466.39    19181.759   -319648.15     568.9896 
  196850    215.14804    65.639831    958085.69    -300509.8    19299.105   -319808.91    568.90306 
  196900    213.47731    35.708273    958278.72   -300607.12    19149.239   -319756.36    569.21105 
  196950    213.78897    26.315767    957964.21   -300687.01    19177.195    -319864.2    569.08597 
  197000    215.20562   -15.901486    958004.58   -300731.29    19304.271   -320035.56    568.98051 
  197050    214.84095    50.458302     958249.6   -300723.11    19271.559   -319994.67    569.38241 
  197100    213.00104    6.2134287    958331.86   -300732.83    19106.516   -319839.34    569.51593 
  197150    214.59913   -15.678101    958410.58   -300661.52    19249.868   -319911.39     569.8084 
  197200    213.96058    21.157674    958220.88   -300700.62    19192.588   -319893.21    569.61068 
  197250    215.62494   -47.501541    958353.35   -300603.41    19341.884   -319945.29    569.84254 
  197300    214.19439    54.837187    958329.95   -300548.59    19213.562   -319762.15    569.92177 
  197350    215.36354    19.880394    958518.26   -300620.66    19318.436   -319939.09    570.26254 
  197400    215.87266    9.5657255    958733.16    -300529.1    19364.105   -319893.21    570.51046 
  197450    215.69503    11.533147    958856.04   -300405.56    19348.171   -319753.73     570.8604 
  197500    214.47814    7.4393627    959002.12    -300314.5    19239.014   -319553.52    571.00561 
  197550    215.08965    4.3171341    959026.46   -300392.89    19293.868   -319686.75    571.23998 
  197600    214.38339    26.413111    959104.87   -300500.11    19230.515   -319730.62    571.35329 
  197650    216.52953   -38.393563    958920.71   -300534.23    19423.027   -319957.25    571.46901 
  197700    215.34486   -59.971483    958643.54   -300568.14     19316.76    -319884.9    571.37142 
  197750    215.22167     18.97184    958943.09   -300466.85     19305.71   -319772.56    571.55959 
  197800    214.28797 0.0027639053    959207.96    -300418.7    19221.956   -319640.65    571.64491 
  197850     215.9727     21.19514    958990.08   -300399.26    19373.078   -319772.34    571.81237 
  197900    214.27198    23.960325    958901.54   -300537.27    19220.521   -319757.79    571.93775 
  197950    214.62592   -6.2813114    958703.31    -300528.6    19252.271   -319780.87    571.66474 
  198000    216.32451   -25.119132     958723.2   -300452.68    19404.636   -319857.32    571.66552 
  198050     216.3213   -6.4751599    958586.75   -300457.98    19404.349   -319862.33    572.02868 
  198100    214.06632   -12.698425    958221.19   -300613.42    19202.073    -319815.5    572.06071 
  198150    213.70607   -1.2330147    958486.79    -300623.6    19169.759   -319793.35    572.30451 
  198200    214.06363   -30.689574    958217.94   -300699.16    19201.832      -319901    572.48992 
  198250    214.18864   -13.177935    957562.55   -300616.63    19213.046   -319829.68    572.31246 
  198300    214.65687    31.240641     957460.8   -300569.81    19255.047   -319824.85    572.44395 
  198350    214.82143    47.349205    957479.65   -300552.35    19269.808   -319822.15    572.73022 
  198400    214.26469    -13.85537    957482.17   -300484.67    19219.868   -319704.54      572.882 
  198450    215.10957    4.8364551    957301.83   -300460.49    19295.655   -319756.14    573.03818 
  198500    215.39636   -3.8335797    957196.97    -300447.5     19321.38   -319768.88    573.20558 
  198550    214.38688    27.976594    957398.03   -300560.71    19230.828   -319791.54    573.46914 
  198600    214.08136   -83.314196    956873.87   -300529.43    19203.423   -319732.85    573.57428 
  198650    214.74241    3.5499403       956768   -300441.16     19262.72   -319703.88    573.68327 
  198700     214.2601   -32.450157    956702.37   -300524.68    19219.456   -319744.14    573.92903 
  198750    213.68642    44.147888    956476.89   -300482.96    19167.996   -319650.95    573.97675 
  198800    214.47243    33.351408    957003.78   -300415.79    19238.502   -319654.29    574.35572 
  198850    215.20078   -7.2093199    957143.77   -300402.59    19303.836   -319706.42    574.55614 
  198900    215.21164    8.6057507    957168.23   -300339.27    19304.811   -319644.08    574.64786 
  198950    215.29771   -30.643105    957267.77   -300396.72    19312.531   -319709.26    574.65901 
  199000    214.93574      41.3959    957380.01   -300479.51    19280.062   -319759.58    575.05087 
  199050    214.33861    38.221013    957636.28   -300558.59    19226.498   -319785.08     575.3566 
  199100    215.87096    38.332175     957798.4   -300602.23    19363.953   -319966.18    575.52701 
  199150    215.83224     44.95117    958121.47   -300433.85     19360.48   -319794.33    575.84735 
  199200    216.22182     55.87287     958403.3    -300253.4    19395.425   -319648.83    576.16367 
  199250    216.65447   -32.034808    958668.87   -300332.42    19434.234   -319766.65    576.14925 
  199300     215.6821   -18.056379    958741.34   -300324.14    19347.011   -319671.16    576.48687 
  199350    214.77086    4.2861896    958517.73   -300391.05    19265.272   -319656.32    576.45975 
  199400    215.05352   -15.757915     958474.8   -300393.29    19290.627   -319683.92    576.61589 
  199450    215.38909    18.952524    958541.43   -300445.85    19320.728   -319766.58    576.89494 
  199500     215.8415    60.430837    958505.06   -300426.75     19361.31   -319788.06    577.17863 
  199550    215.44479   -47.517106    958865.02   -300377.37    19325.725    -319703.1    577.30199 
  199600    214.50086    3.7158934    958393.32   -300388.45    19241.053    -319629.5    577.19496 
  199650    215.82923   -32.094458    958295.07   -300428.37    19360.209   -319788.58    577.31751 
  199700    214.78185    54.710344       958229   -300532.48    19266.258   -319798.74    577.48172 
  199750    213.60921   -26.952872    958134.06   -300678.79     19161.07   -319839.86    577.42835 
  199800    215.23009    10.234804    957894.81   -300609.18    19306.466   -319915.65    577.45892 
  199850     215.6961    4.9165675    958099.61   -300526.08    19348.267   -319874.35     577.5815 
  199900    215.77573   -26.820123    958352.24   -300468.33    19355.411   -319823.74    577.91988 
  199950    214.71842    16.455262    958330.69   -300474.58    19260.568   -319735.15    578.08798 
  200000    214.58627   -7.2741034    958062.72   -300491.36    19248.714   -319740.07    578.16011 
Loop time of 2543.57 on 12 procs for 200000 steps with 30094 atoms

Performance: 33.968 ns/day, 0.707 hours/ns, 78.630 timesteps/s
98.8% CPU use with 12 MPI tasks x no OpenMP threads

MPI task timing breakdown:
Section |  min time  |  avg time  |  max time  |%varavg| %total
---------------------------------------------------------------
Pair    | 1919.9     | 2166       | 2298.3     | 349.8 | 85.16
Neigh   | 58.33      | 65.483     | 69.595     |  59.2 |  2.57
Comm    | 123.44     | 259.89     | 513.51     |1040.6 | 10.22
Output  | 1.2811     | 1.3217     | 1.5877     |   7.0 |  0.05
Modify  | 39.224     | 40.388     | 41.663     |  13.2 |  1.59
Other   |            | 10.49      |            |       |  0.41

Nlocal:    2507.83 ave 2648 max 2248 min
Histogram: 4 0 0 0 0 0 0 0 0 8
Nghost:    2880.08 ave 3015 max 2658 min
Histogram: 4 0 0 0 0 0 0 0 4 4
Neighs:    0 ave 0 max 0 min
Histogram: 12 0 0 0 0 0 0 0 0 0
FullNghs:  82467.7 ave 87511 max 73151 min
Histogram: 4 0 0 0 0 0 0 0 1 7

Total # of neighbors = 989612
Ave neighs/atom = 32.884
Neighbor list builds = 13328
Dangerous builds = 0

write_data		${DIR}/data.eq-${NAME}-${TEMP}
write_data		run_0/data.eq-${NAME}-${TEMP}
write_data		run_0/data.eq-bubble_2.4nm_0-${TEMP}
write_data		run_0/data.eq-bubble_2.4nm_0-215
undump          1

reset_timestep  0

unfix           2
unfix           3
unfix           4


################################################
#######         Run Simulation         #########
################################################

log				${DIR}/log.run_${NAME}
log				run_0/log.run_${NAME}
log				run_0/log.run_bubble_2.4nm_0
