
### Dimensions ###
variable Z_G equal 10.062000000000001
variable Z_W equal 23.803019087

variable	XDIM string 78.752
variable 	YDIM string 80.86108639999017


### IMPORT ATOMS ###
read_data ../Box_Setup/data.Ibeam_240K
Reading data file ...
  orthogonal box = (0.0000000 0.0000000 0.0000000) to (78.752000 80.861086 33.944269)
  4 by 8 by 2 MPI processor grid
  reading atoms ...
  9422 atoms
  reading velocities ...
  9422 velocities
  read_data CPU = 0.023 seconds
group water type 2
2126 atoms in group water
group graphite type 1
7296 atoms in group graphite


# Define potential
#
pair_style          sw
pair_coeff * * MLC_e.sw C mW

# Add velocity/set timestep
#

fix		1 graphite setforce 0.0 0.0 0.0
velocity 	graphite set 0.0 0.0 0.0
velocity            water create ${START_TEMP} ${SEED} rot yes dist gaussian
velocity            water create 235 ${SEED} rot yes dist gaussian
velocity            water create 235 21943 rot yes dist gaussian
timestep            5.0

# Define output
#
compute 1 water msd
compute 2 water temp


thermo	            100
thermo_style custom step c_2 press vol etotal ke pe c_1[4] density

# Neighbor lists
#
neigh_modify        delay 0 every 1 check yes


# Set fixes
#
fix                 2 water momentum 10 linear 1 1 1 rescale
fix                 3 all nve
fix                 4 water temp/csvr ${START_TEMP} ${START_TEMP} 500.0 928347
fix                 4 water temp/csvr 235 ${START_TEMP} 500.0 928347
fix                 4 water temp/csvr 235 235 500.0 928347

# Run 0.05 ns equilibration
#
dump                1 all custom 100 ${DIR}/eq.${NAME}.dump id type x y z vx vy vz
dump                1 all custom 100 run_7/eq.${NAME}.dump id type x y z vx vy vz
dump                1 all custom 100 run_7/eq.ibeam_cooling_7.dump id type x y z vx vy vz
run                 10000
Neighbor list info ...
  update every 1 steps, delay 0 steps, check yes
  max neighbors/atom: 2000, page size: 100000
  master list distance cutoff = 6.6747184
  ghost atom cutoff = 6.6747184
  binsize = 3.3373592, bins = 24 25 11
  1 neighbor lists, perpetual/occasional/extra = 1 0 0
  (1) pair sw, perpetual
      attributes: full, newton on
      pair build: full/bin/atomonly
      stencil: full/bin/3d
      bin: standard
Per MPI rank memory allocation (min/avg/max) = 3.640 | 4.495 | 4.761 Mbytes
Step c_2 Press Volume TotEng KinEng PotEng c_1[4] Density 
       0          235   -349.74665    216156.16   -20108.674     1488.542   -21597.216            0   0.96737059 
     100    238.14759   -546.79791    216156.16    -20129.42    1508.4796     -21637.9   0.84285251   0.96737059 
     200    239.48785   -512.54352    216156.16   -20162.066     1516.969   -21679.035     1.357384   0.96737059 
     300    229.61529   -484.02058    216156.16   -20156.991    1454.4341   -21611.425    1.8214186   0.96737059 
     400    231.44191   -536.43161    216156.16   -20171.553    1466.0043   -21637.557    2.2103372   0.96737059 
     500    243.03628   -442.53426    216156.16   -20166.603    1539.4456   -21706.049    2.6228799   0.96737059 
     600     241.8411   -366.77692    216156.16   -20113.969     1531.875   -21645.844    3.1104852   0.96737059 
     700    236.79371   -301.43089    216156.16   -20134.009    1499.9037   -21633.913    3.4066577   0.96737059 
     800    239.30306   -346.82423    216156.16   -20123.114    1515.7986   -21638.912    3.8713814   0.96737059 
     900    240.44472   -381.41934    216156.16   -20149.807    1523.0301   -21672.837    4.1827546   0.96737059 
    1000     226.7741   -389.70197    216156.16   -20194.006    1436.4373   -21630.444    4.5425473   0.96737059 
    1100    243.22506    -296.8334    216156.16   -20177.368    1540.6414   -21718.009    4.9069577   0.96737059 
    1200    235.84283   -464.12937    216156.16    -20187.32    1493.8807   -21681.201    5.2041895   0.96737059 
    1300    238.85005   -368.75911    216156.16   -20144.623    1512.9291   -21657.552    5.4412595   0.96737059 
    1400    237.23009   -266.79547    216156.16   -20173.414    1502.6679   -21676.082    5.7799204   0.96737059 
    1500    236.54462   -462.31261    216156.16   -20213.247     1498.326   -21711.573    6.0291857   0.96737059 
    1600     235.0862   -362.17993    216156.16   -20188.622     1489.088    -21677.71    6.4107044   0.96737059 
    1700    237.67982   -367.39349    216156.16   -20191.438    1505.5166   -21696.955    6.6180394   0.96737059 
    1800    230.55438   -539.49213    216156.16   -20156.161    1460.3825   -21616.543    6.8660642   0.96737059 
    1900    240.46753   -379.28009    216156.16   -20117.385    1523.1746    -21640.56    7.1831184   0.96737059 
    2000     241.0444   -291.46538    216156.16   -20091.179    1526.8286   -21618.008    7.5557541   0.96737059 
    2100    228.77073   -445.19215    216156.16   -20180.602    1449.0845   -21629.686    7.7822807   0.96737059 
    2200    235.19706   -405.37627    216156.16   -20153.362    1489.7903   -21643.152    8.1563029   0.96737059 
    2300    234.58742   -327.35343    216156.16   -20125.103    1485.9287   -21611.032     8.538624   0.96737059 
    2400    236.94054   -296.40429    216156.16   -20135.423    1500.8338   -21636.257    8.7826838   0.96737059 
    2500    237.37763   -316.40916    216156.16   -20161.157    1503.6025    -21664.76    9.0646271   0.96737059 
    2600    231.93587   -449.20931    216156.16   -20192.998    1469.1332   -21662.131    9.4420098   0.96737059 
    2700    236.70048   -463.55661    216156.16   -20183.709    1499.3132   -21683.022    9.6325015   0.96737059 
    2800    242.24934   -381.96179    216156.16   -20132.625    1534.4609   -21667.086    9.9857007   0.96737059 
    2900    242.49522   -230.39321    216156.16   -20152.602    1536.0184    -21688.62    10.356039   0.96737059 
    3000    237.61158   -278.90384    216156.16   -20143.306    1505.0844   -21648.391    10.618629   0.96737059 
    3100    240.97348    -298.8081    216156.16   -20130.878    1526.3793   -21657.257    11.101327   0.96737059 
    3200    232.46172   -422.86543    216156.16   -20188.984     1472.464   -21661.448    11.525579   0.96737059 
    3300    228.37906   -263.79087    216156.16   -20272.288    1446.6035   -21718.892    12.049528   0.96737059 
    3400    232.21597    -188.2547    216156.16   -20204.198    1470.9073   -21675.105    12.570721   0.96737059 
    3500    237.20699   -333.73631    216156.16   -20207.317    1502.5216   -21709.838    12.937426   0.96737059 
    3600    232.46131   -319.23137    216156.16    -20195.72    1472.4614   -21668.181    13.195049   0.96737059 
    3700    237.88864   -320.12902    216156.16   -20156.637    1506.8393   -21663.476    13.538996   0.96737059 
    3800    234.03222   -337.95516    216156.16   -20152.032    1482.4119   -21634.444    13.939823   0.96737059 
    3900    235.91023   -422.56099    216156.16   -20162.103    1494.3076    -21656.41    14.366979   0.96737059 
    4000    237.99773   -322.60453    216156.16   -20188.921    1507.5303   -21696.452    14.917143   0.96737059 
    4100     235.6452   -551.87447    216156.16   -20189.894    1492.6289   -21682.523    15.474752   0.96737059 
    4200     235.2907   -407.66812    216156.16   -20199.235    1490.3834   -21689.618    15.893251   0.96737059 
    4300    228.80012   -333.68694    216156.16   -20261.644    1449.2706   -21710.915    16.280149   0.96737059 
    4400    238.72622   -175.68685    216156.16   -20215.623    1512.1447   -21727.768    16.680704   0.96737059 
    4500    235.36281   -429.44633    216156.16   -20247.271    1490.8401   -21738.112    17.000811   0.96737059 
    4600     230.3276   -330.88841    216156.16   -20272.502     1458.946   -21731.448    17.141473   0.96737059 
    4700    238.53263   -264.77931    216156.16   -20221.034    1510.9185   -21731.953    17.379259   0.96737059 
    4800    238.33868   -287.57462    216156.16   -20199.429      1509.69   -21709.119    17.509792   0.96737059 
    4900    241.55288   -379.55941    216156.16    -20159.28    1530.0494    -21689.33    17.890826   0.96737059 
    5000     232.0873   -234.63899    216156.16   -20220.716    1470.0923   -21690.808    18.116306   0.96737059 
    5100    239.98179   -270.15579    216156.16   -20199.225    1520.0978   -21719.323    18.708898   0.96737059 
    5200    233.64615   -214.47401    216156.16   -20235.013    1479.9664   -21714.979    19.461637   0.96737059 
    5300    226.46086   -324.49692    216156.16   -20297.054    1434.4532   -21731.507      19.6097   0.96737059 
    5400    230.84541   -412.71376    216156.16   -20287.535    1462.2259   -21749.761    19.587558   0.96737059 
    5500    231.84765   -292.66976    216156.16   -20274.314    1468.5743   -21742.889    19.633915   0.96737059 
    5600    232.09242   -496.62623    216156.16   -20290.964    1470.1248   -21761.089    19.809523   0.96737059 
    5700    228.02514   -299.44234    216156.16   -20266.605    1444.3617   -21710.967    20.008594   0.96737059 
    5800     232.4004   -329.10292    216156.16   -20232.293    1472.0756   -21704.368    20.207774   0.96737059 
    5900    232.63196   -351.69681    216156.16   -20261.358    1473.5423     -21734.9    20.513368   0.96737059 
    6000    232.84864   -472.47412    216156.16   -20264.755    1474.9148    -21739.67    20.955543   0.96737059 
    6100    231.11339     -355.045    216156.16   -20281.155    1463.9234   -21745.078     20.85817   0.96737059 
    6200    235.69162   -360.55824    216156.16   -20275.716    1492.9229   -21768.639    21.321929   0.96737059 
    6300      238.613   -298.74741    216156.16   -20220.032    1511.4276   -21731.459    21.533873   0.96737059 
    6400    232.83275   -384.52717    216156.16   -20265.859    1474.8142   -21740.674    21.806368   0.96737059 
    6500    229.94549   -250.01371    216156.16   -20276.662    1456.5257   -21733.188    21.900815   0.96737059 
    6600    235.56885     -339.101    216156.16   -20277.752    1492.1452   -21769.898    22.138107   0.96737059 
    6700    229.42045   -276.69381    216156.16   -20300.336    1453.1999   -21753.536    22.860561   0.96737059 
    6800    231.99663   -259.74016    216156.16   -20281.024     1469.518   -21750.542    23.235075   0.96737059 
    6900    239.49779   -301.90415    216156.16    -20241.71     1517.032   -21758.742    23.293912   0.96737059 
    7000    233.07549    -427.7967    216156.16   -20237.803    1476.3517   -21714.154     23.55736   0.96737059 
    7100    231.34453   -464.50657    216156.16   -20238.829    1465.3874   -21704.216    23.617322   0.96737059 
    7200    229.47556   -385.08858    216156.16   -20312.792     1453.549   -21766.341    23.493515   0.96737059 
    7300    224.21533   -408.44457    216156.16   -20331.724    1420.2295   -21751.953     23.68347   0.96737059 
    7400    229.62009   -489.04004    216156.16   -20291.153    1454.4645   -21745.617    23.662041   0.96737059 
    7500    230.01325   -481.65965    216156.16   -20242.538    1456.9548   -21699.493    24.053702   0.96737059 
    7600    234.69645   -364.72171    216156.16   -20193.947    1486.6193   -21680.567    24.307352   0.96737059 
    7700     237.5802   -323.46092    216156.16   -20232.855    1504.8856   -21737.741    24.560813   0.96737059 
    7800    228.56007   -491.40044    216156.16   -20284.692    1447.7501   -21732.442    24.738072   0.96737059 
    7900    230.78717   -296.38208    216156.16   -20245.384     1461.857   -21707.242     24.83622   0.96737059 
    8000    238.36378    -440.1579    216156.16   -20190.162     1509.849   -21700.011    25.268003   0.96737059 
    8100    234.97271   -404.77382    216156.16   -20180.316    1488.3691   -21668.685    25.984854   0.96737059 
    8200    238.42427   -381.27024    216156.16    -20198.35    1510.2321   -21708.582    26.332401   0.96737059 
    8300    241.77234   -380.46278    216156.16   -20174.916    1531.4395   -21706.355    26.627772   0.96737059 
    8400    246.22736   -396.58673    216156.16     -20158.2    1559.6586   -21717.859    26.855955   0.96737059 
    8500    240.35799   -529.51567    216156.16   -20210.833    1522.4807   -21733.314    27.125784   0.96737059 
    8600    238.53663   -264.42496    216156.16   -20222.043    1510.9438   -21732.987    27.256917   0.96737059 
    8700    232.91467   -380.45353    216156.16   -20241.489    1475.3331   -21716.822    27.693419   0.96737059 
    8800    234.88414   -392.35887    216156.16   -20245.316    1487.8081   -21733.124    27.924557   0.96737059 
    8900    231.14284   -295.27964    216156.16   -20269.352    1464.1099   -21733.462    28.524128   0.96737059 
    9000    230.73419   -257.73672    216156.16   -20235.547    1461.5214   -21697.068    28.688283   0.96737059 
    9100    236.28352    -414.1489    216156.16   -20241.629    1496.6721   -21738.301    28.866886   0.96737059 
    9200    236.68748   -471.57469    216156.16   -20199.021    1499.2309   -21698.252    29.032969   0.96737059 
    9300    226.51724   -565.02089    216156.16    -20251.47    1434.8103    -21686.28    29.018598   0.96737059 
    9400     234.6749   -85.754387    216156.16   -20241.503    1486.4827   -21727.985    29.347765   0.96737059 
    9500     231.2207   -368.55795    216156.16    -20269.71    1464.6031   -21734.314    29.350109   0.96737059 
    9600    238.08199   -522.89953    216156.16   -20281.846    1508.0641    -21789.91     29.64515   0.96737059 
    9700    234.04412   -307.06663    216156.16   -20242.033    1482.4873   -21724.521    29.913191   0.96737059 
    9800    229.33406   -347.41679    216156.16    -20201.98    1452.6527   -21654.633    30.154039   0.96737059 
    9900    242.28284   -422.81978    216156.16   -20216.114    1534.6731   -21750.787    31.004336   0.96737059 
   10000    233.88758   -333.64838    216156.16   -20218.378    1481.4957   -21699.873    31.136017   0.96737059 
Loop time of 14.3656 on 64 procs for 10000 steps with 9422 atoms

Performance: 300.718 ns/day, 0.080 hours/ns, 696.106 timesteps/s
98.9% CPU use with 64 MPI tasks x no OpenMP threads

MPI task timing breakdown:
Section |  min time  |  avg time  |  max time  |%varavg| %total
---------------------------------------------------------------
Pair    | 0.0017292  | 4.8936     | 11.134     | 192.5 | 34.06
Neigh   | 0.0061171  | 0.28792    | 0.63042    |  41.6 |  2.00
Comm    | 1.189      | 5.1965     | 11.681     | 151.0 | 36.17
Output  | 0.17806    | 0.17931    | 0.18128    |   0.2 |  1.25
Modify  | 0.55703    | 3.5359     | 11.527     | 223.7 | 24.61
Other   |            | 0.2725     |            |       |  1.90

Nlocal:        147.219 ave         287 max           0 min
Histogram: 16 0 6 10 0 0 0 7 11 14
Nghost:        827.844 ave        1031 max         620 min
Histogram: 11 7 13 1 0 0 1 13 7 11
Neighs:         0.00000 ave           0 max           0 min
Histogram: 64 0 0 0 0 0 0 0 0 0
FullNghs:      15009.6 ave       32129 max           0 min
Histogram: 17 15 0 0 0 0 0 9 10 13

Total # of neighbors = 960612
Ave neighs/atom = 101.95415
Neighbor list builds = 571
Dangerous builds = 0
write_data 	    ${DIR}/data.${NAME}_eq
write_data 	    run_7/data.${NAME}_eq
write_data 	    run_7/data.ibeam_cooling_7_eq
System init for write_data ...

undump              1
unfix               4



################################################
#######         Run Simulation         #########
################################################

reset_timestep      0
timestep	    10.0
log                 ${DIR}/log.run_${NAME}
log                 run_7/log.run_${NAME}
log                 run_7/log.run_ibeam_cooling_7
