
# Set production fixes - Nose/Hoover
#
fix                 4 water temp/csvr ${START_TEMP} ${END_TEMP} 500.0 928347
fix                 4 water temp/csvr 235 ${END_TEMP} 500.0 928347
fix                 4 water temp/csvr 235 225 500.0 928347


## divide "droplet" into core and surface
#region		core_reg cylinder z 135 135 44.6 20 INF units box
#region		surface_reg cylinder z 135 135 44.6 20 INF units box side out
#group		core dynamic all region core_reg
#group		surface dynamic all region surface_reg

## compute pressure core
#compute        peratom_core core stress/atom NULL
#compute        p_core core reduce sum c_peratom_core[1] c_peratom_core[2] c_peratom_core[3]
#variable       press_core equal -(c_p_core[1]+c_p_core[2]+c_p_core[3])/(3*1249982.5)


## compute pressure surface
#compute        peratom_surf surface stress/atom NULL
#compute        p_surf surface reduce sum c_peratom_surf[1] c_peratom_surf[2] #c_peratom_surf[3]
#variable       press_surf equal -(c_p_surf[1]+c_p_surf[2]+c_p_surf[3])/(3*42395)

## compute total pressure of drop
compute        peratom water stress/atom NULL
compute        p water reduce sum c_peratom[1] c_peratom[2] c_peratom[3]
variable       press equal -(c_p[1]+c_p[2]+c_p[3])/(3*50402)


# compute order parameter
compute        3 all orientorder/atom nnn NULL cutoff 3.5

# compute center of mass of bridge
compute 	4 water com

# Run simulation
thermo_style        custom step c_2 press vol etotal ke pe v_press c_1[4] c_4[*]
thermo              200
dump		     1 water custom 400 ${DIR}/prod.${NAME}.dump id type x y z vx vy vz c_3[*] c_peratom[*]
dump		     1 water custom 400 run_7/prod.${NAME}.dump id type x y z vx vy vz c_3[*] c_peratom[*]
dump		     1 water custom 400 run_7/prod.ibeam_cooling_7.dump id type x y z vx vy vz c_3[*] c_peratom[*]
run                 ${STEPS}
run                 4000000
Neighbor list info ...
  update every 1 steps, delay 0 steps, check yes
  max neighbors/atom: 2000, page size: 100000
  master list distance cutoff = 6.6747184
  ghost atom cutoff = 6.6747184
  binsize = 3.3373592, bins = 24 25 11
  2 neighbor lists, perpetual/occasional/extra = 1 1 0
  (1) pair sw, perpetual
      attributes: full, newton on
      pair build: full/bin/atomonly
      stencil: full/bin/3d
      bin: standard
  (2) compute orientorder/atom, occasional, copy from (1)
      attributes: full, newton on
      pair build: copy
      stencil: none
      bin: none
Per MPI rank memory allocation (min/avg/max) = 6.171 | 6.817 | 7.291 Mbytes
Step c_2 Press Volume TotEng KinEng PotEng v_press c_1[4] c_4[1] c_4[2] c_4[3] 
       0    233.88758   -333.64838    216156.16   -20218.378    1481.4957   -21699.873   -750.38003    31.136017    39.427429    39.227262    23.669479 
     200    230.60264    -317.5191    216156.16   -20220.126    1460.6882   -21680.814    -668.1427    32.464605    39.427126    39.228584    23.678269 
     400    233.06502   -295.39487    216156.16   -20229.703    1476.2855   -21705.989   -557.86878    33.979214    39.426645    39.229296    23.700965 
     600    241.55964   -307.68827    216156.16   -20129.902    1530.0923   -21659.994   -637.49955    35.847981    39.425776    39.231698     23.72321 
     800    241.11052   -549.10547    216156.16   -20136.186    1527.2474   -21663.434   -1665.8181    37.010325     39.42479    39.231816    23.737614 
    1000    230.69468   -260.50467    216156.16   -20229.604    1461.2712   -21690.875   -425.08662    37.825243    39.422308    39.231087    23.735892 
    1200    234.11171   -534.11101    216156.16   -20209.799    1482.9154   -21692.714   -1590.8645    38.358139    39.422148    39.227919    23.714289 
    1400    233.25365   -420.95209    216156.16   -20192.509    1477.4802   -21669.989    -1141.184    38.758664      39.4226    39.228284    23.716773 
    1600     232.5406   -464.34693    216156.16   -20179.704    1472.9636   -21652.667   -1330.2952    39.740494    39.420792    39.230328    23.734736 
    1800    236.30063   -304.74647    216156.16   -20151.447    1496.7805   -21648.227   -646.49932    41.677172    39.421892    39.232345    23.748671 
    2000    232.27709   -444.89905    216156.16   -20106.336    1471.2945    -21577.63   -1299.7516    42.656617    39.421844    39.232642    23.724718 
    2200    237.11129   -437.08759    216156.16   -20162.284    1501.9154   -21664.199   -1263.9769    43.241177    39.422083    39.233668    23.736761 
    2400    236.05661    -253.0496    216156.16   -20146.229    1495.2348   -21641.464   -414.47206    44.272377    39.421698    39.233158    23.746697 
    2600    234.91836    -306.9221    216156.16   -20191.624    1488.0249   -21679.649   -606.47475    45.368053    39.420524     39.23175    23.764841 
    2800    238.03657   -486.76901    216156.16   -20105.338    1507.7763   -21613.114   -1433.2333    46.478113    39.419499     39.23323    23.779505 
    3000    236.76168   -309.98022    216156.16     -20120.3    1499.7009   -21620.001   -670.03121    47.058809    39.419776    39.234377    23.803563 
    3200    234.18994     -493.174    216156.16   -20216.528    1483.4109   -21699.939   -1466.3329    48.660017    39.415712    39.231834    23.833849 
    3400    233.00814    -411.9318    216156.16    -20149.73    1475.9251   -21625.656    -1099.756    49.132928    39.415435    39.232839    23.831128 
    3600    236.99322   -596.53189    216156.16   -20145.294    1501.1675   -21646.462   -1868.8759    50.728073    39.416646    39.230524    23.816171 
    3800    232.74703   -389.04339    216156.16   -20125.022    1474.2712   -21599.294   -1005.9844    52.135315     39.41481    39.228988    23.811302 
    4000    236.23267   -388.46087    216156.16   -20166.273      1496.35   -21662.623   -996.86356    54.012941    39.414428     39.22968    23.827652 
    4200    239.26419   -341.90886    216156.16   -20161.945    1515.5523   -21677.497   -780.61855    55.696304    39.414794    39.228818    23.845373 
    4400    240.61634    -417.0591    216156.16   -20164.302    1524.1172   -21688.419   -1102.4973    56.585811    39.412111    39.230248    23.845241 
    4600    231.74772   -246.06334    216156.16   -20251.386    1467.9413   -21719.328   -418.51385    57.900275    39.411393    39.230565    23.834324 
    4800    239.63826   -355.25599    216156.16   -20139.849    1517.9218   -21657.771   -843.13184    58.905207    39.411763    39.230875    23.854349 
    5000    232.70059   -532.07546    216156.16   -20182.107    1473.9771   -21656.085   -1625.5419    61.101898    39.412508    39.231263    23.850506 
    5200    238.25057    -346.2153    216156.16   -20181.532    1509.1318   -21690.663   -782.03525    61.274622    39.412138    39.232303    23.857424 
    5400    231.95049   -259.49631    216156.16   -20216.759    1469.2258   -21685.985   -388.83514    62.101783    39.413317    39.233163    23.855202 
    5600    234.49108   -409.74267    216156.16   -20229.848    1485.3184   -21715.166   -1044.5254    62.950392    39.413229    39.235896    23.868101 
    5800    236.19565    -431.8154    216156.16   -20175.694    1496.1155   -21671.809   -1217.9434    63.809348    39.411909    39.235581    23.880919 
    6000    234.65695   -453.35581    216156.16   -20205.239    1486.3691   -21691.608   -1253.9438    64.885662    39.412372    39.235202    23.885366 
    6200    241.37427   -212.11029    216156.16   -20213.159    1528.9181   -21742.077   -242.01537    66.522015    39.410522     39.23329     23.89465 
    6400    235.57318   -355.66727    216156.16   -20178.283    1492.1727   -21670.456   -808.58014    68.849271    39.412365    39.231833    23.923983 
    6600    237.29254   -119.02836    216156.16   -20176.755    1503.0635   -21679.819    165.23345     69.82314    39.413499    39.232879    23.936796 
    6800    229.92419   -268.31101    216156.16   -20144.969    1456.3907    -21601.36   -469.69601    71.435751    39.413622    39.232214    23.956028 
    7000    238.44591   -168.48622    216156.16   -20126.876    1510.3692   -21637.245   -100.45841    72.607443    39.412505    39.232349    23.946664 
    7200    226.81435   -458.85665    216156.16   -20248.779    1436.6923   -21685.471   -1273.8863    74.485461     39.41284    39.232019    23.939868 
    7400    230.60273   -354.65334    216156.16   -20203.215    1460.6887   -21663.903   -805.28841    75.098307    39.412939    39.232332    23.928536 
    7600    239.31646   -429.62642    216156.16   -20082.747    1515.8834    -21598.63    -1131.841    75.513916    39.411735    39.234422     23.94367 
    7800    234.45263   -379.77201    216156.16   -20230.301    1485.0749   -21715.376   -941.07687    75.390348        39.41    39.233854    23.947066 
    8000    238.44943   -382.95442    216156.16   -20148.602    1510.3915   -21658.993   -1000.4055    76.612366    39.409989    39.234945    23.956108 
    8200    238.13703   -306.42334    216156.16   -20153.809    1508.4126   -21662.221   -624.77677    77.919655    39.407898    39.236637    23.970454 
    8400    238.22606   -430.90618    216156.16   -20106.829    1508.9766   -21615.806   -1092.5721    78.786527    39.406318    39.234805      23.9637 
    8600    240.82013   -347.12099    216156.16   -20169.249     1525.408   -21694.657   -787.16795    79.190281    39.404899    39.234132      23.9809 
    8800    229.99324   -468.75217    216156.16   -20219.857    1456.8281   -21676.685   -1362.9454    80.565049    39.404699    39.232256    23.972911 
    9000    232.15471   -412.70505    216156.16   -20199.052    1470.5193   -21669.571   -1099.7202    81.380154    39.403045    39.232524    23.966496 
    9200    237.28144    -400.2681    216156.16   -20152.035    1502.9931   -21655.028   -1040.0901    80.914937    39.402306    39.231659    23.959943 
    9400     239.3965   -338.23047    216156.16   -20203.063    1516.3904   -21719.453   -729.63209    82.186842    39.400125    39.230465    23.966201 
    9600    237.87118   -358.29112    216156.16   -20217.538    1506.7287   -21724.267   -868.10565    83.225114    39.399996    39.226805      23.9568 
    9800    235.76023    -403.0389    216156.16   -20116.635    1493.3575   -21609.992   -1048.7726    83.635962    39.401229    39.226839    23.959418 
   10000    235.07934    -320.6102    216156.16   -20169.819    1489.0446   -21658.863   -726.37657    84.301617    39.400676    39.223457    23.963943 
   10200    239.09444   -370.59344    216156.16   -20083.734    1514.4771   -21598.211   -883.42723    85.191771    39.400937    39.222145      23.9683 
   10400    237.68267   -447.12056    216156.16   -20119.575    1505.5346    -21625.11   -1208.9703    86.341676    39.396952    39.220173    23.955486 
   10600    231.39248   -513.44341    216156.16   -20228.384    1465.6912   -21694.075    -1492.671    88.118764    39.397341    39.219568    23.948036 
   10800    230.20452    -436.8774    216156.16   -20281.637    1458.1664   -21739.803   -1176.5757    89.270039     39.39908    39.215622    23.953143 
   11000    236.43438   -385.45671    216156.16   -20246.056    1497.6277   -21743.683   -1027.1671    89.326101    39.399306    39.215934    23.952043 
   11200    233.84631   -460.80331    216156.16   -20236.096    1481.2343    -21717.33   -1301.6664    90.519817    39.400289    39.213979    23.941537 
   11400    236.60896   -533.22493    216156.16   -20220.473    1498.7335   -21719.206   -1623.0305    91.740464    39.399598    39.213049    23.910563 
   11600    239.74707   -329.71989    216156.16   -20116.068     1518.611   -21634.679   -735.36548    92.955597    39.399596    39.211389    23.902868 
   11800    235.01902   -345.44802    216156.16   -20132.129    1488.6625   -21620.791    -787.8923     93.99239    39.401627    39.210343    23.907361 
   12000    240.03986   -378.89376    216156.16   -20107.076    1520.4656   -21627.542    -955.1578    94.644778    39.402207    39.208232    23.884828 
   12200    238.69038    -335.9041    216156.16   -20137.896    1511.9177   -21649.814   -740.17096    96.193038    39.401327    39.208464    23.885318 
   12400    234.43566   -352.80585    216156.16   -20173.571    1484.9674   -21658.539    -834.8503    96.373901    39.404031    39.207096    23.867828 
   12600    245.79601   -522.89826    216156.16   -20149.064    1556.9263    -21705.99   -1538.1865    98.308746    39.405377    39.205289    23.869185 
   12800    234.88823   -373.05837    216156.16   -20212.883     1487.834   -21700.717   -937.58946    98.396464    39.404522    39.203775    23.865518 
   13000    240.52834   -276.18287    216156.16   -20261.189    1523.5598   -21784.749   -513.33933    99.285106    39.405189    39.202406    23.863102 
   13200    236.16369   -322.26455    216156.16   -20281.718    1495.9131   -21777.631   -661.10698    100.39941    39.404792    39.200533    23.852336 
   13400    231.09048     -316.769    216156.16   -20351.547    1463.7782   -21815.326   -683.11261    101.46989    39.407814    39.198505    23.830634 
   13600    231.60282   -371.28197    216156.16   -20269.042    1467.0235   -21736.066   -966.67854    102.30027    39.408115    39.199549    23.817424 
   13800    237.04334   -440.82064    216156.16   -20227.632     1501.485   -21729.117   -1165.8164    103.64101     39.40813    39.198428    23.815703 
   14000    238.70081   -444.00192    216156.16   -20174.958    1511.9838   -21686.942   -1274.0361    104.82486    39.406056    39.196828    23.842906 
   14200    238.34297   -434.62223    216156.16   -20211.194    1509.7171   -21720.911   -1175.1101    105.98683     39.40707    39.198649    23.848373 
   14400    226.89634   -281.82566    216156.16   -20242.647    1437.2117   -21679.859   -536.85664    106.44044     39.40657    39.196886    23.838273 
   14600    238.29225   -298.13293    216156.16   -20185.409    1509.3958   -21694.805   -620.16326    107.18141    39.404769     39.19792    23.829878 
   14800    237.31721   -193.71052    216156.16    -20169.85    1503.2198   -21673.069   -167.13917    107.50236    39.404299    39.201048    23.840185 
   15000    233.35006   -368.48623    216156.16   -20186.689    1478.0909    -21664.78   -857.19529    108.71209    39.404411     39.20173    23.837083 
   15200    237.02855   -375.97333    216156.16   -20131.372    1501.3913   -21632.764   -937.78953    109.94488    39.404912    39.204055    23.827685 
   15400    233.17543   -409.19471    216156.16   -20236.423    1476.9848   -21713.408   -1070.5748    111.99304    39.403562    39.205987    23.822265 
   15600    244.41058   -371.84903    216156.16   -20098.173    1548.1507   -21646.323   -921.17037    113.49177    39.403828    39.205597    23.830587 
   15800    236.13642   -332.52915    216156.16   -20141.855    1495.7404   -21637.595   -714.80293    114.71782    39.403559    39.204137    23.818178 
   16000     233.4885   -446.41736    216156.16   -20163.132    1478.9678     -21642.1   -1264.0666    116.30435    39.402478    39.204449     23.81331 
   16200     238.2503   -276.06678    216156.16   -20160.427    1509.1301   -21669.557   -523.26693    116.30234    39.399324    39.206979    23.832519 
   16400    234.97633   -343.74044    216156.16   -20209.795    1488.3921   -21698.187   -814.05152    116.30319    39.398581    39.208416     23.83371 
   16600    241.99685   -483.85665    216156.16   -20121.632    1532.8616   -21654.493   -1437.2625    117.69068    39.397288    39.209842     23.83614 
   16800    231.71109   -229.63729    216156.16   -20206.652    1467.7093   -21674.361   -300.79202    118.29811    39.396266    39.209415    23.836041 
   17000    227.88742   -359.07435    216156.16   -20235.013    1443.4894   -21678.502   -904.72207     120.2732    39.395674    39.208944    23.857385 
   17200     233.5709   -287.07731    216156.16   -20220.991    1479.4898   -21700.481   -564.06678     121.2025    39.395606    39.208939    23.857024 
   17400    226.73031   -413.57351    216156.16    -20311.26      1436.16    -21747.42   -1093.1282    122.14044    39.393032    39.209584    23.832007 
   17600    233.04997   -331.18311    216156.16   -20210.819    1476.1901   -21687.009   -692.27802    122.63775    39.391649     39.20938    23.845684 
   17800    228.22869   -304.72238    216156.16    -20230.02     1445.651   -21675.671    -632.8253    123.36366    39.390817     39.20768    23.854633 
   18000    238.77743   -295.00537    216156.16   -20180.433    1512.4691   -21692.902   -598.82804    125.21032    39.394043    39.208023    23.888573 
   18200    238.49865   -397.01957    216156.16   -20159.954    1510.7032   -21670.657    -1015.646    125.60314    39.395993    39.209312       23.885 
   18400    231.60555   -312.09443    216156.16   -20126.828    1467.0408   -21593.869   -673.39244    126.28971    39.396976    39.209567    23.881722 
   18600    241.06603   -189.41238    216156.16   -20086.023    1526.9656   -21612.989   -170.98682    127.18511    39.398853    39.211927    23.901245 
   18800    234.25753   -590.36101    216156.16   -20140.969    1483.8391   -21624.808   -1823.3942    129.13134    39.398413    39.213548     23.90384 
   19000    234.57082   -277.72563    216156.16   -20065.785    1485.8235   -21551.609   -522.18942    131.36913    39.398532    39.212356    23.903511 
   19200     233.4844   -374.02885    216156.16   -20148.287    1478.9419   -21627.229   -962.18601    132.20845    39.398515    39.210557    23.920286 
   19400    238.00424   -265.68127    216156.16    -20126.26    1507.5715   -21633.831   -479.57139    132.11719    39.395869    39.211147    23.918107 
   19600    238.95969    -468.6735    216156.16   -20159.703    1513.6236   -21673.327   -1383.5155    134.67721    39.392609    39.209585    23.929593 
   19800    236.48073   -268.95707    216156.16   -20129.993    1497.9213   -21627.915   -482.70497    136.28399    39.390414       39.208    23.922503 
   20000    236.21603   -456.20428    216156.16   -20164.671    1496.2446   -21660.916   -1238.8706    137.93654     39.38953    39.208424    23.923256 
   20200    233.24341   -340.54895    216156.16   -20234.469    1477.4154   -21711.884   -770.33991    137.22546    39.388888    39.207549    23.927069 
   20400    242.95082   -423.75941    216156.16    -20162.34    1538.9042   -21701.244   -1159.4763    136.71863    39.387878    39.206949      23.9446 
   20600     238.5396   -202.03916    216156.16   -20256.253    1510.9626   -21767.215   -217.78588    136.42219     39.38877     39.20646    23.951862 
   20800    237.40109   -205.57746    216156.16   -20178.996    1503.7511   -21682.747   -278.06644    137.46226     39.38857    39.204386    23.939698 
   21000    233.61742   -395.53946    216156.16   -20201.674    1479.7844   -21681.458   -1005.3945     138.7186    39.388932    39.203797    23.937183 
   21200     234.3121   -265.65881    216156.16    -20165.49    1484.1847   -21649.675   -478.51954    139.05746    39.386344    39.204581     23.92571 
   21400      230.091   -481.59475    216156.16   -20165.818    1457.4473   -21623.265   -1373.5202    139.84743     39.38475    39.204039     23.93018 
   21600    238.82941   -361.02084    216156.16    -20073.16    1512.7984   -21585.958   -867.18614    139.19965    39.384007    39.202557    23.893525 
   21800    238.34287    -375.3866    216156.16   -20206.479    1509.7165   -21716.195   -965.79667     140.5885     39.38464      39.2005    23.908447 
   22000    227.50201    -446.8501    216156.16   -20269.593    1441.0481   -21710.641   -1274.9639    140.25582    39.382841    39.199124    23.914351 
   22200    228.40203   -395.33477    216156.16   -20307.852     1446.749   -21754.601   -988.13399    139.94019    39.382578    39.199805    23.913237 
   22400    241.53978   -404.64451    216156.16   -20189.069    1529.9665   -21719.035   -1029.0673    141.58129    39.379607    39.200266    23.892528 
   22600    232.60849   -349.62378    216156.16   -20205.115    1473.3937   -21678.509    -773.7125    142.41831    39.375265    39.202651    23.884136 
   22800    240.46941   -461.63129    216156.16   -20162.773    1523.1865    -21685.96     -1289.89    143.90655    39.376443    39.201368    23.905573 
   23000    228.79793   -551.82943    216156.16   -20230.375    1449.2567   -21679.632    -1711.365    144.69223    39.376005    39.200695    23.909488 
   23200    239.08702   -229.53468    216156.16   -20147.475    1514.4301   -21661.905   -317.71422     145.2931    39.376027    39.200844    23.885394 
   23400    232.71831   -371.11432    216156.16   -20164.236    1474.0893   -21638.325   -923.97768    147.32333    39.377743    39.200797    23.877428 
   23600    234.52094   -439.71027    216156.16   -20107.772    1485.5075   -21593.279   -1222.3541    148.39891    39.378712    39.200766     23.86533 
   23800    239.52484   -286.13456    216156.16   -20130.921    1517.2033   -21648.124    -595.8806    148.93814    39.377339    39.201298    23.864797 
   24000    238.46714   -474.03266    216156.16   -20182.559    1510.5037   -21693.062   -1345.2779     149.7658    39.376611    39.203303    23.866021 
   24200    237.79913    -513.8882    216156.16   -20184.764    1506.2723   -21691.036   -1544.4586    150.39035    39.376021    39.204302    23.875408 
   24400     231.6099   -311.83043    216156.16   -20234.443    1467.0684   -21701.512    -650.3331    151.54172    39.375097    39.203756    23.889132 
   24600    230.35183   -331.94619    216156.16   -20250.481    1459.0995    -21709.58   -764.95252    152.18618    39.376509    39.199563    23.892241 
   24800    227.85484   -461.56082    216156.16   -20241.286     1443.283   -21684.569   -1324.3083    153.25551    39.375839    39.200242    23.896036 
   25000    237.14366   -462.13973    216156.16   -20256.157    1502.1204   -21758.277   -1303.9342    155.38478    39.377788    39.200006    23.919397 
   25200    225.07681   -393.43441    216156.16   -20343.847    1425.6863   -21769.533   -1026.9083    155.56943    39.379167    39.201011    23.922391 
   25400    234.84545   -451.23713    216156.16   -20216.243    1487.5631   -21703.806   -1271.6708    155.07153    39.377306    39.202826     23.93184 
   25600    245.06816   -378.54016    216156.16   -20069.268     1552.316   -21621.584   -913.30051    156.54149    39.375969    39.204321    23.944865 
   25800    244.44471   -386.14592    216156.16   -20110.393    1548.3669    -21658.76   -1021.0804    157.22245     39.37648    39.204208    23.920931 
   26000    234.63048   -353.58085    216156.16   -20151.066    1486.2014   -21637.267   -859.16177     157.8351    39.377773    39.208403    23.907973 
   26200    236.07902   -383.32185    216156.16   -20143.101    1495.3768   -21638.478   -966.82693    159.21089    39.379544    39.212166    23.926204 
   26400    228.52344   -368.79899    216156.16   -20201.682     1447.518     -21649.2   -821.09351    159.98893    39.379058    39.213562    23.914896 
   26600    245.07057   -383.79343    216156.16   -20109.511    1552.3312   -21661.843   -995.19312    160.80765    39.380143    39.212821    23.897998 
   26800    234.83516   -563.77985    216156.16   -20154.704    1487.4979   -21642.202   -1727.9357    163.58144    39.380913    39.212825    23.898538 
   27000    238.10913   -276.29607    216156.16   -20110.384     1508.236    -21618.62   -517.62334    165.28698    39.380021     39.21456    23.897195 
   27200    238.15692   -546.81303    216156.16   -20139.377    1508.5387   -21647.915   -1646.4186    165.15405    39.381782    39.218078    23.877389 
   27400    235.02816   -422.58403    216156.16   -20118.048    1488.7204   -21606.768   -1175.9101    165.57432    39.385347    39.221156     23.85519 
   27600    230.24797   -581.55591    216156.16   -20238.966    1458.4416   -21697.408    -1780.826    167.34778    39.385631    39.222883     23.85589 
   27800     235.1046   -411.19569    216156.16   -20126.994    1489.2046   -21616.198   -1094.0738    169.71149    39.386472    39.224382    23.844914 
   28000    234.54296   -244.18546    216156.16   -20212.734     1485.647   -21698.381   -460.25919    169.70326     39.38598    39.224256    23.806834 
   28200    232.13866   -444.84763    216156.16   -20183.452    1470.4176    -21653.87   -1283.9018    170.74631    39.387232    39.225844    23.813221 
   28400    234.15162   -392.73701    216156.16   -20171.801    1483.1682   -21654.969   -1004.4169    172.59022     39.38791    39.226462    23.827723 
   28600    233.81231   -414.18036    216156.16    -20191.43    1481.0189   -21672.449    -1119.209    172.47636    39.385431    39.225248    23.845046 
   28800     228.3119   -397.56853    216156.16   -20160.119    1446.1781   -21606.297   -1040.6651    173.42092    39.383457    39.225697    23.819376 
   29000     236.7931   -272.12538    216156.16   -20130.542    1499.8999   -21630.442   -498.22497    175.08947    39.382321    39.223764    23.816507 
   29200    234.91902   -468.52963    216156.16   -20074.286    1488.0291   -21562.315   -1353.7501    175.99916    39.380457    39.222734    23.819333 
   29400    233.58027   -351.44775    216156.16   -20095.961    1479.5491    -21575.51   -857.02474    176.72867    39.379941    39.224184    23.795745 
   29600    236.13801   -376.20442    216156.16       -20135    1495.7504   -21630.751   -957.83674    177.98231    39.379777    39.224397    23.798186 
   29800    231.88512   -395.53805    216156.16   -20243.076    1468.8117   -21711.888   -1020.0698    180.23747    39.380387    39.224807    23.805328 
   30000    232.08988   -334.49185    216156.16   -20288.671    1470.1087   -21758.779   -713.74632     179.7176    39.378904    39.226213    23.810232 
   30200    224.81502   -466.51625    216156.16   -20232.163    1424.0281   -21656.191   -1339.9553     180.2296    39.377806    39.226621    23.803929 
   30400    236.50318   -361.45426    216156.16   -20188.531    1498.0635   -21686.595   -918.40988    182.18109    39.379568    39.227774    23.818962 
   30600    229.98848   -393.65926    216156.16    -20231.25     1456.798   -21688.048   -1039.2311     182.3523    39.380763    39.230147    23.827919 
   30800    230.69894   -500.20161    216156.16   -20210.267    1461.2981   -21671.565   -1476.0261    184.43685    39.379844    39.229777     23.80413 
   31000    237.25323   -414.69346    216156.16   -20183.269    1502.8144   -21686.084   -1126.8212    184.13829     39.38028       39.227     23.79133 
   31200    236.47138    -462.8724    216156.16   -20151.995    1497.8621   -21649.857    -1300.393    185.08224    39.378962     39.22739    23.774712 
   31400    241.58612   -393.73129    216156.16   -20126.074    1530.2599   -21656.334   -1028.2821    187.05094    39.379553    39.227247    23.768466 
   31600    229.80047   -320.99618    216156.16    -20178.32     1455.607   -21633.927   -673.91568    187.16743    39.381012    39.227442    23.725482 
   31800    236.69349   -404.34691    216156.16   -20090.754     1499.269   -21590.023   -1084.5686    188.13777    39.378048    39.228405     23.70977 
   32000    229.52583   -214.51752    216156.16   -20180.138    1453.8674   -21634.005   -260.02701    188.15819    39.377541    39.227998     23.71346 
   32200    230.40109    -420.7033    216156.16   -20163.376    1459.4115   -21622.787   -1132.7076    189.49292    39.379579    39.228044    23.693638 
   32400    232.56142   -505.18437    216156.16   -20158.018    1473.0955   -21631.113    -1491.147    191.17132    39.381318    39.226684    23.692904 
   32600    237.60113   -305.63249    216156.16   -20107.069    1505.0181   -21612.087   -638.12105     192.3824    39.381178    39.227133    23.689594 
   32800    236.49642   -121.88034    216156.16   -20135.256    1498.0207   -21633.277    114.21802    193.26682    39.381129    39.227099    23.674897 
   33000    241.30266   -492.91856    216156.16   -20119.241    1528.4645   -21647.706   -1482.8525    193.34835     39.37935     39.22628    23.685222 
   33200    235.07228   -490.55451    216156.16     -20178.4    1488.9999     -21667.4   -1461.2455    194.34404    39.378164    39.224471     23.69056 
   33400    232.67205   -315.15228    216156.16   -20192.841    1473.7963   -21666.637   -695.69578    195.14044    39.376314    39.223644    23.693292 
   33600    229.63819   -312.06837    216156.16   -20242.622    1454.5791   -21697.201   -661.18371    196.36895    39.376051    39.223337    23.676052 
   33800    242.16213   -382.05583    216156.16   -20057.471    1533.9085   -21591.379   -945.21242    197.04788     39.37553    39.220948    23.675071 
   34000    235.54797   -424.06652    216156.16   -20157.696     1492.013   -21649.709   -1172.1663    198.19639     39.37336     39.22328    23.673975 
   34200    228.68954   -546.03333    216156.16   -20158.627    1448.5702   -21607.197   -1719.1753    199.14593    39.374027    39.222771    23.695556 
   34400    239.29732   -352.58162    216156.16   -20216.404    1515.7622   -21732.166   -873.64012    200.04003    39.374119    39.222183    23.719351 
   34600    235.31139   -470.91003    216156.16   -20093.615    1490.5144    -21584.13    -1333.108    202.29045    39.376771    39.220366    23.721726 
   34800     235.9429   -384.29733    216156.16   -20181.377    1494.5145   -21675.892   -949.24106    203.83185    39.377327    39.221364    23.742088 
   35000    232.70086    -516.0077    216156.16   -20202.223    1473.9788   -21676.202   -1533.2279    205.55758    39.379165    39.222219    23.757618 
   35200    236.33652   -521.51841    216156.16   -20098.524    1497.0079   -21595.532   -1577.2591    206.26315    39.380444    39.222397    23.759053 
   35400    235.88028   -420.33841    216156.16   -20139.443    1494.1179    -21633.56   -1074.2753    208.11916    39.382005    39.222861    23.758204 
   35600    231.45977   -336.13119    216156.16   -20177.387    1466.1174   -21643.505   -754.13042    209.12813    39.382518    39.219032    23.754132 
   35800    241.50582   -457.09694    216156.16   -20095.884    1529.7513   -21625.636   -1331.6036     209.9841    39.384369    39.218772     23.76655 
   36000    233.89956   -484.35961    216156.16   -20186.422    1481.5716   -21667.994    -1398.241    210.18409    39.383859    39.217369    23.748979 
   36200    229.73822   -382.86151    216156.16   -20183.971    1455.2127   -21639.184   -958.97352    210.60656     39.38309    39.217287    23.752525 
   36400    237.72347   -385.05212    216156.16   -20138.167    1505.7931   -21643.961   -1022.0345    210.95434    39.382429    39.215571    23.766197 
   36600    236.60487   -361.89553    216156.16   -20137.873    1498.7076   -21636.581   -867.94257    211.03815     39.38273    39.213333    23.751998 
   36800    230.92346   -492.09621    216156.16   -20198.708    1462.7203   -21661.429   -1413.2021    211.10084    39.382494    39.213652    23.744488 
   37000    230.80033   -458.76731    216156.16   -20194.313    1461.9404   -21656.253   -1322.3319    212.90633    39.381972    39.214395    23.726506 
   37200    235.47752   -243.94436    216156.16   -20197.692    1491.5668   -21689.258   -399.09541    214.01474    39.382341    39.216158    23.713138 
   37400    229.40514    -408.0276    216156.16   -20202.763     1453.103   -21655.866   -1083.5764     217.3452    39.385046    39.215033    23.707132 
   37600    221.52835   -512.84189    216156.16   -20199.039    1403.2096   -21602.249   -1550.5104    216.99316    39.386893    39.218054    23.683196 
   37800    227.67256     -323.462    216156.16   -20225.754    1442.1284   -21667.882   -748.33462    217.72215    39.385306    39.217795    23.677006 
   38000    234.78232    -377.6304    216156.16   -20108.215    1487.1632   -21595.378   -980.64003    217.57255    39.384017    39.217621    23.674671 
   38200    237.22834   -393.36046    216156.16   -20133.816    1502.6568   -21636.473   -1023.2196    217.21337    39.384874    39.217559    23.674483 
   38400    232.82177   -417.56154    216156.16    -20074.65    1474.7446   -21549.395   -1124.4048    219.54809    39.384898    39.216725     23.66553 
   38600    236.52174   -354.60655    216156.16   -20110.461     1498.181   -21608.642    -834.7359    220.33765     39.38644    39.216479     23.65768 
   38800    236.08949   -475.31513    216156.16   -20111.448    1495.4431   -21606.891   -1386.3726    222.54632    39.385614    39.216129    23.667056 
   39000    238.74828   -474.85769    216156.16    -20088.13    1512.2845   -21600.414   -1391.1321    222.86852    39.385187    39.215725    23.677893 
   39200    232.02411   -405.66408    216156.16   -20148.631    1469.6921   -21618.324   -1040.2643    224.58847    39.382442    39.215337    23.696085 
   39400    239.91054    -532.3717    216156.16   -20150.485    1519.6464   -21670.131   -1551.7008    225.45394    39.383574    39.215794    23.696258 
   39600      235.397   -341.84712    216156.16   -20103.461    1491.0567   -21594.518   -811.19317    226.33698    39.384865    39.214374    23.699813 
   39800    231.46734   -303.41964    216156.16   -20128.622    1466.1654   -21594.788   -629.17638    225.57777    39.385399    39.211516    23.711202 
   40000    241.33962    -519.4304    216156.16   -20081.453    1528.6986   -21610.152    -1608.322    227.60234    39.386894    39.211119    23.690814 
   40200    239.77152   -307.05289    216156.16   -20112.337    1518.7659   -21631.102   -668.99112     227.7572    39.390058    39.212992    23.694494 
   40400    239.02986    -464.0351    216156.16   -20188.761    1514.0681   -21702.829   -1347.9675    228.30644    39.391292    39.213071    23.698301 
   40600    244.49942    -577.2378    216156.16   -20107.577    1548.7134    -21656.29   -1814.3021    229.80189    39.394114    39.212569    23.719431 
   40800    235.26011   -346.21463    216156.16   -20216.184    1490.1896   -21706.373   -832.89361    230.83256    39.394459    39.213028    23.724451 
   41000    232.08618   -501.11447    216156.16   -20211.437    1470.0852   -21681.522   -1489.0572    232.76066    39.394066    39.214128    23.708394 
   41200    240.78666   -106.39003    216156.16   -20119.825     1525.196   -21645.021    210.68771    234.38755    39.393672    39.214138    23.691675 
   41400    236.28669   -317.28318    216156.16    -20157.37    1496.6922   -21654.062   -662.76009    234.80193    39.394193    39.215523    23.668189 
   41600    236.05747   -364.54781    216156.16   -20142.595    1495.2403   -21637.836   -868.44193     236.0376    39.396108    39.216395    23.668462 
   41800    235.70785     -400.298    216156.16   -20160.599    1493.0257   -21653.624   -1022.8961    237.12912    39.397142    39.216605    23.660697 
   42000    239.08545   -514.98093    216156.16   -20190.743    1514.4202   -21705.163   -1491.0272    237.09601    39.398865    39.217308    23.661229 
   42200    230.72467   -330.29065    216156.16   -20247.245    1461.4612   -21708.706   -791.32877    238.12232    39.398638    39.215858    23.643925 
   42400    234.67402   -314.74655    216156.16   -20170.278    1486.4772   -21656.755    -664.4303    239.09673    39.401588    39.214614    23.647118 
   42600    237.76776   -382.23702    216156.16   -20231.066    1506.0736    -21737.14     -956.028    239.63348    39.401481    39.212549     23.61896 
   42800    237.25311   -340.34741    216156.16   -20175.423    1502.8137   -21678.237   -824.05511    240.84535    39.400247    39.211977    23.591616 
   43000    238.20372   -370.94713    216156.16   -20184.222    1508.8351   -21693.057   -904.16325    241.68674    39.400697    39.212132    23.584186 
   43200    233.52899   -414.33147    216156.16   -20181.831    1479.2243   -21661.055    -1069.412    240.68139    39.403596    39.213385    23.585154 
   43400    234.46656   -296.36034    216156.16   -20170.937    1485.1631     -21656.1   -601.96495    240.97756    39.405406    39.212784    23.589209 
   43600    232.15013   -370.42345    216156.16   -20210.208    1470.4903   -21680.698   -905.84283    241.66186    39.403784    39.212394    23.583854 
   43800    236.85155   -336.67181    216156.16   -20225.911    1500.2701   -21726.181   -748.28062    242.40972    39.403544    39.212343    23.609075 
   44000    238.09572   -383.75737    216156.16   -20274.994     1508.151   -21783.145   -941.84888    243.86581    39.404201    39.211694    23.642378 
   44200    238.09339   -267.48786    216156.16   -20255.375    1508.1362   -21763.511   -471.61436    243.96014    39.405787    39.210176    23.636072 
   44400    231.05067   -403.83129    216156.16   -20263.157    1463.5261   -21726.684   -1051.7491    243.96439    39.406666    39.208488    23.640388 
   44600    233.74807   -575.41632    216156.16   -20261.961     1480.612   -21742.573   -1785.3091    244.69344    39.405531    39.208039    23.628371 
   44800    229.56733   -429.40111    216156.16   -20255.316    1454.1303   -21709.447   -1148.0035    246.04721     39.40578    39.207243     23.65756 
   45000    234.71498   -486.76743    216156.16   -20221.301    1486.7367   -21708.038   -1382.9014    246.75586    39.407856    39.206841    23.655838 
   45200    236.48784   -414.03076    216156.16   -20192.004    1497.9663    -21689.97   -1041.8408    246.36109    39.407629    39.205658    23.649361 
   45400    229.48062   -471.85575    216156.16    -20273.59    1453.5811   -21727.171   -1284.8778    247.88185    39.410156    39.206602    23.682096 
   45600    237.18542   -436.49089    216156.16   -20182.131     1502.385   -21684.516   -1195.5896    249.66785    39.412235    39.207997     23.69816 
   45800    242.11834   -515.55592    216156.16   -20233.051    1533.6312   -21766.682   -1516.0571    251.13024    39.410113     39.20705     23.72372 
   46000    243.03511    -404.4043    216156.16   -20160.463    1539.4382   -21699.901   -1034.8283    250.78081    39.408077    39.207867    23.736461 
   46200    237.77806   -430.32068    216156.16   -20129.907    1506.1389   -21636.045    -1107.869    252.74676    39.407058    39.209408     23.73148 
   46400    233.09837   -344.25202    216156.16   -20194.735    1476.4967   -21671.232   -836.43058    252.13471    39.407415    39.210429    23.749544 
   46600    238.51638   -439.54595    216156.16   -20204.541    1510.8156   -21715.356   -1234.2432    253.65969    39.407315    39.213033     23.75495 
   46800      235.738   -361.59995    216156.16   -20187.013    1493.2167    -21680.23   -861.84853    254.22451    39.405783    39.212729    23.739214 
   47000     231.2033   -592.44525    216156.16   -20185.775    1464.4929   -21650.267   -1882.9972    255.06932    39.406562    39.214215    23.752616 
   47200    229.95176   -374.75923    216156.16   -20249.179    1456.5654   -21705.745   -906.28579    255.10745      39.4081    39.217556     23.76918 
   47400    233.17769   -410.25477    216156.16   -20220.383    1476.9991   -21697.382   -1072.4102    256.34698    39.408269    39.220181    23.782262 
   47600    233.25946   -250.47873    216156.16   -20217.179    1477.5171   -21694.696   -466.30781    258.00309    39.408832    39.221603    23.792078 
   47800    227.37277   -323.25239    216156.16   -20196.707    1440.2295   -21636.936   -770.67188    258.29402    39.408924    39.221131    23.788991 
   48000    229.63759   -425.98889    216156.16   -20182.389    1454.5753   -21636.965   -1145.6106    259.24154    39.408784    39.222459    23.805108 
   48200    234.34559   -301.70794    216156.16   -20194.536    1484.3969   -21678.933   -629.77013    261.62629    39.409505    39.222479    23.795451 
   48400    237.36978   -424.10898    216156.16   -20196.406    1503.5527   -21699.959   -1175.7116    262.39558    39.410353    39.222912    23.795493 
   48600    227.71732   -519.43952    216156.16   -20239.042    1442.4119   -21681.454   -1506.0926    264.84706    39.407939    39.225195    23.785024 
   48800    239.40232   -470.29419    216156.16   -20204.659    1516.4273   -21721.087   -1307.5543    265.14948    39.408091    39.226466    23.791212 
   49000    229.13537   -335.77307    216156.16   -20212.428    1451.3941   -21663.822   -796.72824    266.32139    39.406733    39.223196    23.783613 
   49200    236.65095   -339.67946    216156.16   -20164.858    1498.9995   -21663.858   -722.78396    266.93532    39.407358    39.222399    23.786159 
   49400     231.0725   -392.52877    216156.16   -20255.073    1463.6644   -21718.738   -1000.2807    268.51254    39.407575    39.219227    23.779531 
   49600    233.72409   -513.87984    216156.16   -20235.413    1480.4601   -21715.873   -1551.0013    268.31166    39.408334    39.220556    23.763833 
   49800    232.85657   -439.08684    216156.16   -20211.713    1474.9651   -21686.678   -1216.0844    268.72479    39.408077    39.218867    23.756147 
   50000    225.46021    -449.1856    216156.16   -20232.768    1428.1149   -21660.883    -1283.452    270.47052    39.409201    39.218633    23.767109 
   50200    237.02497   -373.00864    216156.16   -20155.751    1501.3686    -21657.12   -913.44007    272.55971    39.409158    39.218189    23.760465 
   50400    236.63916   -438.10065    216156.16   -20197.224    1498.9248   -21696.148   -1164.8179    272.98302    39.408412    39.217928    23.733593 
   50600    245.62325   -447.12734    216156.16   -20107.734    1555.8321   -21663.566    -1232.503    272.66082    39.410904    39.219309    23.714258 
   50800    229.99455   -386.44672    216156.16   -20273.584    1456.8364   -21730.421   -988.02777    273.10431    39.408919    39.217429    23.717856 
   51000    226.74754   -494.43887    216156.16    -20213.13    1436.2691   -21649.399   -1452.9018      274.648    39.407203    39.213509    23.706886 
   51200     233.2385   -424.71249    216156.16   -20207.361    1477.3843   -21684.745   -1149.2754    276.02228    39.408414     39.21413    23.691718 
   51400    233.62722   -433.50208    216156.16   -20192.564    1479.8465    -21672.41   -1177.7381    277.05035    39.411073    39.212132    23.670837 
   51600    232.68283   -322.05592    216156.16   -20236.265    1473.8646    -21710.13   -733.76695    277.81939    39.409094    39.211701    23.660819 
   51800     230.9351   -337.57519    216156.16   -20222.545     1462.794   -21685.339   -783.35484    278.81088    39.407451    39.210617    23.652873 
   52000    224.79768   -182.82604    216156.16    -20258.83    1423.9182   -21682.748   -86.877786    278.99758    39.408189     39.20873    23.654174 
   52200    232.37936   -223.67286    216156.16   -20248.306    1471.9423   -21720.249    -279.1672    281.59624    39.407688     39.20739    23.665614 
   52400    235.22906   -495.68171    216156.16   -20284.166    1489.9929   -21774.159   -1461.6943    281.80062    39.407292    39.206765    23.673244 
   52600    236.91589   -423.86266    216156.16   -20192.267    1500.6777   -21692.945   -1165.2029    282.81426     39.40949    39.204401    23.671584 
   52800    237.15188   -398.10358    216156.16    -20146.97    1502.1725   -21649.143   -1044.4595    284.59555    39.408896    39.203654    23.666403 
   53000    236.15645   -559.55283    216156.16   -20150.317    1495.8672   -21646.184   -1761.0559    285.20016    39.407916    39.205575    23.649975 
   53200    232.41785   -245.27229    216156.16   -20235.229    1472.1861   -21707.415    -366.1699    283.40285    39.407751      39.2068    23.656462 
   53400    234.97455   -237.51803    216156.16   -20219.331    1488.3808   -21707.712   -345.66934    284.47304    39.407095    39.209762    23.661947 
   53600    230.72656   -492.74415    216156.16   -20258.685    1461.4731   -21720.158   -1396.1772     283.6735    39.409369    39.210132    23.681581 
   53800    226.07007   -378.45577    216156.16   -20209.232    1431.9778    -21641.21   -920.01606    285.32408    39.409002    39.212076     23.69847 
   54000    238.60857   -351.57567    216156.16   -20180.806    1511.3995   -21692.206   -884.81602     285.8601    39.409761    39.213562    23.685594 
   54200    241.15499    -384.6315    216156.16   -20126.211    1527.5291    -21653.74    -989.5828    286.44708    39.411963    39.212367    23.662042 
   54400     246.5922   -535.77191    216156.16   -20115.539    1561.9696   -21677.508   -1654.2796    286.63428    39.410201     39.21446    23.696819 
   54600    240.55294   -425.07703    216156.16   -20124.696    1523.7155   -21648.411   -1139.2598    288.03376    39.410567    39.216705    23.711309 
   54800    244.17277    -402.1282    216156.16    -20148.35    1546.6444   -21694.995   -1065.0115    288.39629    39.411554    39.213829    23.728763 
   55000      237.649   -306.23966    216156.16   -20110.292    1505.3214   -21615.613   -678.78794     288.6518    39.411441    39.213376    23.729679 
   55200    230.47348   -327.62877    216156.16   -20249.103      1459.87   -21708.973   -754.50318    289.73499    39.411992    39.214235    23.731761 
   55400    240.49224   -394.14109    216156.16   -20217.481    1523.3311   -21740.812   -1054.6951    288.65143    39.414132    39.214838    23.734563 
   55600     234.1341   -337.12791    216156.16   -20213.052    1483.0572   -21696.109   -794.13092    288.32499    39.418291    39.214592    23.753084 
   55800    241.11974   -271.94741    216156.16   -20078.781    1527.3058   -21606.087   -523.49849    289.01091    39.418334    39.214467    23.761074 
   56000    235.74539   -406.92259    216156.16   -20136.955    1493.2635   -21630.219   -1055.1821    289.98975    39.416877    39.216475    23.761515 
   56200    236.80476   -510.45632    216156.16   -20134.965    1499.9738   -21634.939   -1524.4831    291.54851    39.415465     39.21636    23.759369 
   56400    229.82056   -390.91016    216156.16   -20253.733    1455.7343   -21709.467   -1002.6811    293.88865    39.417204    39.215471    23.768553 
   56600    229.12005   -234.29963    216156.16   -20304.795    1451.2971   -21756.092   -363.29532    292.80192    39.416935    39.214691    23.754503 
   56800    238.29861   -419.04552    216156.16   -20212.682    1509.4361   -21722.118   -1125.4822    295.71279     39.41678    39.218191     23.74875 
   57000    230.74479   -315.16051    216156.16   -20283.232    1461.5886    -21744.82   -690.62265    298.49768    39.417673    39.216891    23.793822 
   57200    235.07157   -314.33896    216156.16   -20194.675    1488.9953   -21683.671   -683.13557    299.27241    39.417592     39.21728    23.779947 
   57400    230.87756   -392.49285    216156.16   -20253.481    1462.4296    -21715.91   -977.91185    299.25092    39.418908    39.216749    23.776855 
   57600    227.98427   -276.69628    216156.16   -20318.436    1444.1029   -21762.539    -531.8821    300.98544    39.421283    39.220131    23.781531 
   57800    240.91463   -455.62324    216156.16   -20241.804    1526.0066   -21767.811   -1299.8482    302.29339    39.424194    39.222325    23.814694 
   58000    233.55981   -448.83028    216156.16   -20230.414    1479.4196   -21709.834   -1221.2574    302.08288    39.425152     39.22167    23.806596 
   58200    238.06992   -481.31012    216156.16   -20180.966    1507.9876   -21688.953   -1412.2485    302.50353     39.42636    39.219308    23.812552 
   58400    236.66447   -399.67725    216156.16   -20182.857    1499.0851   -21681.942   -1058.7071    304.39237    39.426841    39.218501    23.832133 
   58600    226.77883   -297.46791    216156.16   -20234.377    1436.4673   -21670.844   -608.50792     305.2275    39.425421     39.21835     23.83281 
   58800    234.39378   -304.84735    216156.16   -20194.518    1484.7021   -21679.221    -623.7659    307.15531    39.422639    39.220793    23.843504 
   59000    237.56093   -338.06527    216156.16   -20122.585    1504.7635   -21627.349    -788.7578    308.56909    39.420608    39.220358    23.834564 
   59200     234.0431   -199.84691    216156.16   -20169.926    1482.4808   -21652.407   -217.08619    308.58824     39.41918    39.219458    23.815771 
   59400    230.43797   -366.63742    216156.16    -20210.01    1459.6451   -21669.655   -918.02159    308.51361    39.418262    39.216554    23.833893 
   59600    232.67077   -394.62049    216156.16   -20269.005    1473.7882   -21742.793   -977.00853    307.91064    39.418251    39.214505      23.8468 
   59800       238.23   -404.48158    216156.16   -20224.589    1509.0016   -21733.591   -1082.4729    309.95924    39.419226    39.210194     23.84453 
   60000    235.71781   -318.21488    216156.16   -20180.398    1493.0888   -21673.487   -749.62875    311.39131    39.419735    39.210533    23.857039 
   60200    237.36298    -271.8537    216156.16   -20208.233    1503.5097   -21711.743   -571.41122    312.84426    39.422131    39.211071    23.867777 
   60400    232.39496   -387.51083    216156.16   -20206.008    1472.0411   -21678.049   -973.55733    312.94158    39.425321    39.210712     23.87833 
   60600    243.08239   -282.84256    216156.16   -20193.456    1539.7377   -21733.193   -557.62489    313.56576    39.428471    39.210102    23.869855 
   60800    237.13024   -269.05732    216156.16   -20152.192    1502.0354   -21654.227   -484.32636    313.14356     39.42941    39.207461    23.883399 
   61000    235.88605   -261.99315    216156.16   -20229.516    1494.1545    -21723.67   -452.67787    315.10523    39.431812    39.204824    23.881033 
   61200    232.30649   -288.64948    216156.16   -20160.297    1471.4807   -21631.777   -588.89093    315.60717    39.431626    39.204819    23.874874 
   61400    239.10194   -441.82835    216156.16   -20180.757    1514.5246   -21695.281   -1247.7978    316.86366    39.433164     39.20453    23.865988 
   61600    236.11703   -470.98737    216156.16   -20191.746    1495.6175   -21687.364   -1357.2265    318.06119    39.433363    39.204618     23.86578 
   61800     232.1905   -438.37165    216156.16   -20226.083     1470.746   -21696.829   -1262.4998    319.38372    39.435051    39.205277    23.871877 
   62000    235.33865   -443.11977    216156.16   -20167.303    1490.6871    -21657.99   -1249.7867    320.27363    39.436487    39.203738    23.862685 
   62200    239.06382   -357.67983    216156.16   -20128.886    1514.2831   -21643.169   -883.17934    320.73225    39.436359    39.202543    23.866023 
   62400    244.34171   -242.50038    216156.16   -20126.486    1547.7145   -21674.201   -406.87512    320.38481    39.438253    39.204291    23.861482 
   62600    233.62117   -381.86037    216156.16   -20193.044    1479.8082   -21672.852   -939.94167    321.19999    39.437244    39.202669    23.879347 
   62800    224.21772   -435.26937    216156.16   -20288.933    1420.2447   -21709.177   -1212.9574    321.72173    39.438342    39.204366    23.890486 
   63000    238.45046   -458.32302    216156.16   -20154.563     1510.398   -21664.961   -1300.4089    321.46851    39.437882    39.202376    23.881385 
   63200    233.35407   -477.05038    216156.16   -20155.739    1478.1163   -21633.856   -1345.6873    321.92237    39.438771    39.200819      23.8749 
   63400    230.03897   -366.82746    216156.16   -20235.249    1457.1178   -21692.366   -948.17282    322.29411    39.437906    39.203923    23.850127 
   63600    228.42542   -488.87225    216156.16   -20215.418    1446.8971   -21662.315   -1448.7799    324.29658     39.43705    39.202301    23.839657 
   63800    229.16875   -529.48344    216156.16   -20217.874    1451.6056    -21669.48   -1620.7478    324.03847    39.437298    39.203226    23.859856 
   64000    243.56102   -319.27123    216156.16   -20134.387    1542.7694   -21677.156   -723.99114    325.70257    39.438769    39.201882    23.879344 
   64200    232.91215   -146.87408    216156.16   -20144.282    1475.3171   -21619.599     4.842905    326.54777    39.438225    39.201204    23.867828 
   64400    233.22814   -410.14111    216156.16   -20131.033    1477.3186   -21608.352   -1123.0251    326.95038    39.437871    39.202268    23.860411 
   64600    229.36753   -410.38831    216156.16   -20156.318    1452.8647   -21609.182   -1107.8152    328.24885    39.439279    39.203912    23.875633 
   64800    238.45943   -381.47651    216156.16   -20159.423    1510.4548   -21669.877   -921.22592    330.80031    39.439348    39.204181    23.877159 
   65000    239.98317   -451.41709    216156.16   -20088.496    1520.1065   -21608.602    -1208.179    331.14763    39.440136    39.203683    23.887134 
   65200    237.38964   -467.14116    216156.16   -20154.482    1503.6785   -21658.161   -1294.2699    333.88512    39.441149    39.203171    23.891427 
   65400    233.73871   -383.44758    216156.16   -20169.255    1480.5528   -21649.807   -944.63308    334.49211    39.439475    39.203886    23.899757 
   65600    232.41099   -260.23323    216156.16   -20098.567    1472.1427    -21570.71   -488.69594    334.22699    39.440129    39.204833    23.891319 
   65800    237.51479   -229.18938    216156.16   -20113.514    1504.4713   -21617.985   -315.16962    335.18417    39.440671    39.207187    23.889686 
   66000    231.97371   -312.77635    216156.16   -20113.091    1469.3728   -21582.464   -697.01364    337.49035    39.440803    39.205579    23.907194 
   66200    227.01746    -420.7784    216156.16   -20181.055    1437.9788   -21619.034   -1168.7012    339.18507    39.441393    39.206198    23.908065 
   66400    235.71277   -326.76899    216156.16   -20162.209    1493.0569   -21655.266   -742.26215    341.19345    39.441741    39.206836     23.91705 
   66600    231.61303   -439.86313    216156.16   -20209.465    1467.0882   -21676.554   -1221.5645    339.87903    39.441532    39.207897    23.898267 
   66800    223.59668    -468.5501    216156.16   -20208.164    1416.3109   -21624.475   -1317.1193    340.74499    39.440656    39.207503    23.881299 
   67000    227.05664   -404.78914    216156.16   -20237.301     1438.227   -21675.528   -1064.7438    341.27008    39.441602     39.20756    23.862039 
   67200    233.93661   -487.26683    216156.16       -20188    1481.8063   -21669.806   -1452.2007     343.3386     39.44352     39.20876    23.869067 
   67400    234.20508   -338.06171    216156.16   -20128.852    1483.5068   -21612.359   -766.59916    347.05765    39.445772    39.207987    23.841844 
   67600    240.26539   -283.61589    216156.16   -20081.402    1521.8942   -21603.296   -598.73732    349.43701    39.448059    39.209487    23.838223 
   67800    238.08553   -328.74155    216156.16   -20137.706    1508.0865   -21645.792   -771.65771    348.43073    39.448272    39.209592    23.843239 
   68000    232.44874   -331.88541    216156.16    -20196.58    1472.3818   -21668.962   -773.12698    347.66267    39.446711    39.209851    23.834459 
   68200    235.84033     -346.088    216156.16   -20190.293    1493.8649   -21684.158   -761.15872    348.10713    39.449095    39.205514    23.820002 
   68400    237.13908   -508.38466    216156.16   -20144.112    1502.0914   -21646.203   -1471.4652    346.94149    39.450911    39.204587    23.810193 
   68600    237.39491   -434.44737    216156.16   -20194.421    1503.7119   -21698.133    -1223.071    348.42277     39.45129    39.205275     23.80355 
   68800    237.97745   -381.90985    216156.16   -20142.228    1507.4019    -21649.63   -986.89951    347.97164    39.450137    39.206041    23.812867 
   69000    234.88451   -368.73322    216156.16    -20141.39    1487.8105     -21629.2   -893.68494    348.32404    39.447086     39.20531    23.825658 
   69200     236.5437   -368.63332    216156.16   -20235.357    1498.3202   -21733.677   -931.30482    348.85309    39.447343    39.208212    23.819148 
   69400    230.09146   -450.23961    216156.16   -20283.214    1457.4502   -21740.664   -1271.8327    351.16809    39.446518    39.210164    23.806287 
   69600    239.53603   -244.86221    216156.16   -20127.093    1517.2743   -21644.368   -411.22339    352.80766    39.448907    39.211341    23.794491 
   69800    235.60687   -535.00401    216156.16   -20248.212    1492.3861   -21740.598   -1617.1696    351.02448    39.448277    39.211636     23.80974 
   70000    239.30576   -347.07068    216156.16   -20239.823    1515.8156   -21755.638   -835.18794    351.35312    39.449864    39.211055    23.832883 
   70200    234.50475   -499.95603    216156.16   -20205.886     1485.405   -21691.291   -1440.9531    353.02982    39.450912    39.210943    23.820102 
   70400    238.65794    -297.4587    216156.16   -20161.452    1511.7122   -21673.165   -627.55566    354.13088    39.449751    39.210837    23.842872 
   70600    234.13824   -464.02355    216156.16    -20229.96    1483.0834   -21713.043   -1315.9552    354.64383    39.449221    39.212338    23.850506 
   70800    230.53588   -332.88183    216156.16   -20250.504    1460.2653   -21710.769   -799.70461    356.63267    39.446745    39.212981    23.840261 
   71000    232.77031   -393.60164    216156.16   -20267.688    1474.4187   -21742.107   -1060.9489    358.09879    39.446226    39.213356    23.832762 
   71200    233.13851   -400.18287    216156.16   -20252.188    1476.7509   -21728.939   -1064.4349    357.81265    39.445546    39.212512    23.820351 
   71400     226.4247   -369.44383    216156.16   -20263.383    1434.2242   -21697.607   -929.35862    356.75447    39.446436    39.212493    23.829676 
   71600    233.73859   -549.73142    216156.16   -20198.907    1480.5519   -21679.459   -1677.3846     358.1346    39.447731    39.215512    23.821934 
   71800    228.92829   -465.29064    216156.16   -20266.078    1450.0824   -21716.161   -1281.2185    357.92768    39.445756    39.215186    23.821271 
   72000    231.61872   -319.60911    216156.16   -20227.383    1467.1243   -21694.508   -682.67106    357.10194    39.444652    39.217258    23.795068 
   72200    239.44734   -245.49699    216156.16   -20105.825    1516.7125   -21622.537   -415.40334    358.30788    39.444427    39.218976    23.785291 
   72400    237.40933   -401.13068    216156.16   -20205.987    1503.8032    -21709.79   -1033.1441    359.38257    39.443618    39.221616    23.777835 
   72600    238.33694     -273.273    216156.16   -20201.192    1509.6789   -21710.871   -510.18502    360.46616     39.44296    39.224391    23.788352 
   72800    236.51384   -226.88608    216156.16   -20229.728     1498.131   -21727.859   -271.99676    361.45361    39.441331    39.228024    23.798101 
   73000     234.4296   -427.96199    216156.16    -20241.56     1484.929   -21726.489   -1184.1012    361.21174    39.440736    39.230394    23.773786 
   73200    234.62153   -592.88641    216156.16    -20146.36    1486.1447   -21632.505   -1822.3127     362.3655    39.442053    39.233081    23.778509 
   73400    233.44284   -324.40649    216156.16   -20170.009    1478.6786   -21648.687   -724.32705    361.51189    39.440567    39.233479    23.775232 
   73600    241.67344   -410.79163    216156.16   -20175.513    1530.8131   -21706.326   -1068.0346    363.65344    39.438558    39.235268    23.782779 
   73800    225.99848   -379.25261    216156.16   -20297.465    1431.5244   -21728.989   -982.99515     363.5879    39.439266    39.236494    23.769287 
   74000    225.70014   -474.23968    216156.16   -20278.374    1429.6347   -21708.009    -1391.016    363.60289    39.438941    39.236644    23.760612 
   74200    230.80536    -452.9181    216156.16   -20188.192    1461.9722   -21650.164   -1291.5353    365.43436    39.437882    39.235741    23.742571 
   74400    237.50747   -388.51026    216156.16   -20172.596    1504.4249   -21677.021   -1017.4182    365.22631    39.437015    39.234755    23.719591 
   74600    225.94651   -371.95141    216156.16    -20254.05    1431.1952   -21685.245   -908.41828    365.53771    39.437902    39.235305    23.716487 
   74800    232.80826   -340.00983    216156.16   -20235.319     1474.659   -21709.978      -778.16    366.97243    39.435205    39.235333    23.692481 
   75000    223.07141   -525.80729    216156.16   -20224.819    1412.9837   -21637.803   -1580.5107    367.39022    39.433102    39.236395    23.688041 
   75200    233.25824    -232.9826    216156.16   -20135.579    1477.5093   -21613.089   -310.55916    369.89887    39.433736    39.238372    23.667435 
   75400    233.56944   -496.16561    216156.16   -20209.052    1479.4805   -21688.533   -1463.8724    371.78053      39.4325    39.239651    23.667595 
   75600    240.53782     -352.599    216156.16   -20177.732    1523.6198   -21701.351   -862.05801    371.62121    39.434243    39.238889     23.66228 
   75800    242.06169   -245.11255    216156.16   -20105.971    1533.2723   -21639.243   -395.23206    370.43865    39.436773    39.240657    23.642946 
   76000    234.89426   -286.07709    216156.16   -20122.368    1487.8722    -21610.24    -532.4893     370.9155    39.436918    39.241777    23.642146 
   76200    228.86499   -476.34415    216156.16   -20170.742    1449.6815   -21620.424   -1348.5038    371.69807    39.434499    39.243137    23.663645 
   76400    231.41927    -496.3828    216156.16   -20159.164    1465.8609   -21625.025   -1458.5929    372.28065    39.431596    39.242848    23.703741 
   76600    237.51795   -466.74856    216156.16   -20161.819    1504.4913    -21666.31   -1341.2644    372.22496    39.430031    39.243013    23.709794 
   76800    232.59366   -324.05259    216156.16   -20218.046    1473.2997   -21691.346   -698.93233    372.91878    39.429378    39.243338    23.700341 
   77000    241.12588   -395.36789    216156.16   -20196.141    1527.3447   -21723.485   -1011.6033    375.35518    39.430571    39.243636    23.700859 
   77200    237.26034   -480.64737    216156.16   -20179.489    1502.8595   -21682.349   -1380.8304    375.26106    39.430248    39.244606    23.707778 
   77400    231.03951   -353.45658    216156.16   -20180.448    1463.4554   -21643.904    -862.0277    375.69483    39.431584    39.247042    23.699789 
   77600    239.64519   -401.68514    216156.16   -20201.227    1517.9657   -21719.192   -1074.3994    376.05238    39.430409    39.248036    23.677969 
   77800    243.00144   -371.51904    216156.16   -20196.576    1539.2249     -21735.8   -935.68936    376.85492    39.428666    39.248904    23.674775 
   78000    233.58325   -417.33953    216156.16   -20226.962     1479.568    -21706.53   -1154.2903    377.31453    39.427842    39.248224    23.681918 
   78200    232.71152   -574.26072    216156.16    -20152.55    1474.0463   -21626.596   -1784.6219    378.35743    39.424501    39.250916    23.704123 
   78400    232.88275   -406.31608    216156.16    -20173.28    1475.1309   -21648.411   -1084.4015    379.57485    39.425537    39.252282    23.702182 
   78600     237.4199   -316.30391    216156.16   -20192.025    1503.8702   -21695.895   -706.28274    381.53707    39.424687    39.251765    23.691099 
   78800    230.86016   -340.94989    216156.16   -20193.438    1462.3194   -21655.757     -820.381    383.78716    39.426823    39.252277    23.690489 
   79000    243.27137   -171.43951    216156.16   -20178.437    1540.9347   -21719.372   -100.39778    383.62612    39.426168    39.252407    23.686844 
   79200    237.75401   -452.26578    216156.16   -20180.242    1505.9865   -21686.228   -1242.6855    383.33029    39.426321    39.250244    23.710946 
   79400    240.45738   -302.50695    216156.16   -20172.569    1523.1103   -21695.679   -615.74634    384.33476    39.425063    39.250385    23.691483 
   79600    233.67829   -464.16515    216156.16   -20263.989      1480.17   -21744.159   -1356.8982    385.75564    39.425539    39.249848    23.702107 
   79800    235.38083   -382.71303    216156.16   -20251.997    1490.9543   -21742.951   -945.26495    384.74321    39.424246    39.250545    23.692874 
   80000    229.66824   -417.47275    216156.16   -20239.643    1454.7695   -21694.413   -1124.3081    384.35485    39.425057    39.250242    23.680473 
   80200    229.48864   -534.08846    216156.16   -20283.281    1453.6318   -21736.913   -1611.6894    386.26549    39.425998    39.249428    23.719083 
   80400    234.90374    -354.2014    216156.16     -20253.4    1487.9323   -21741.332   -864.19505    387.78378    39.424354    39.249162    23.729605 
   80600    237.27115   -400.17044    216156.16   -20229.585     1502.928   -21732.513   -1024.2849    388.96566    39.422328    39.248917    23.729915 
   80800    238.80046   -481.66791    216156.16    -20211.36     1512.615   -21723.975   -1348.8128    389.88267    39.423036    39.250682    23.735415 
   81000    233.12448   -356.45183    216156.16   -20211.401    1476.6621   -21688.063   -801.62162    390.41012    39.423689    39.253267    23.719392 
   81200    229.31177   -301.12612    216156.16   -20180.545    1452.5115   -21633.057   -650.13285    393.35529    39.424374    39.255238    23.714111 
   81400    228.15661   -320.21367    216156.16       -20153    1445.1945   -21598.195   -672.59116    394.88482    39.423283    39.255276    23.719491 
   81600    235.16646   -441.68868    216156.16   -20221.473    1489.5964    -21711.07    -1211.623    396.27368    39.422945    39.256316    23.715653 
   81800     229.7741   -487.87713    216156.16   -20253.757      1455.44   -21709.197   -1419.3098    396.26148    39.423045     39.25465    23.726017 
   82000    236.70329   -375.09406    216156.16   -20212.011    1499.3311   -21711.342   -968.88682    394.62501    39.424352    39.254141    23.762596 
   82200    237.01187   -234.53755    216156.16   -20127.816    1501.2857   -21629.102   -290.09051    396.63948    39.422278    39.252921     23.74489 
   82400    237.95193   -364.09658    216156.16   -20180.418    1507.2402   -21687.659   -885.37749    397.19324     39.42206     39.25122    23.742731 
   82600    237.46469   -560.66836    216156.16   -20108.941    1504.1539   -21613.095   -1692.8155    399.75572    39.421326     39.24907    23.756329 
   82800    238.86107   -320.65764    216156.16   -20186.866    1512.9989   -21699.865   -679.86915    400.68975    39.425139    39.248489    23.732447 
   83000    237.53678   -370.79727    216156.16    -20126.92    1504.6105   -21631.531   -905.67499    401.34163    39.425057    39.246874    23.717068 
   83200      232.331   -394.83387    216156.16   -20170.857     1471.636   -21642.493   -988.85935    402.41576    39.425598    39.246694    23.721547 
   83400    232.60731   -460.87698    216156.16   -20160.288    1473.3862   -21633.674   -1334.9514    403.88282    39.426464    39.247091     23.72177 
   83600    237.93287   -442.70367    216156.16   -20214.756    1507.1195   -21721.876   -1228.2331    404.40201    39.425617    39.248695    23.723006 
   83800    236.30714   -356.61254    216156.16   -20216.025    1496.8218   -21712.847   -859.19567      403.801     39.42924     39.24592    23.725667 
   84000    236.05647   -430.50642    216156.16   -20234.548    1495.2339   -21729.782   -1191.2374    404.62016     39.42854    39.244568    23.733412 
   84200    235.80397   -335.99607    216156.16   -20219.223    1493.6345   -21712.858   -774.76604    403.96314    39.431054    39.240415    23.715736 
   84400    233.06364   -263.78994    216156.16   -20272.109    1476.2767   -21748.386   -479.93633    404.34706    39.432503    39.235132    23.705137 
   84600    238.58096   -128.82139    216156.16   -20223.265    1511.2246    -21734.49    74.046643    403.60456    39.430462    39.236016    23.680208 
   84800    238.03519   -355.36177    216156.16   -20235.414    1507.7676   -21743.182   -866.96658    404.85435    39.431178    39.235727    23.687428 
   85000    238.03039   -211.61562    216156.16   -20209.936    1507.7372   -21717.673   -292.38562    407.34745    39.432872    39.234967    23.677461 
   85200    228.57328   -186.98348    216156.16   -20221.566    1447.8338     -21669.4   -135.99797    409.18546    39.433965    39.236044    23.668202 
   85400    234.48229   -334.61447    216156.16   -20250.849    1485.2627   -21736.112   -745.04189    408.82464    39.434612    39.236153    23.688454 
   85600    234.32811   -410.71614    216156.16   -20245.018    1484.2861   -21729.304    -1063.828    410.92102    39.434152    39.234744    23.685551 
   85800    231.88549   -311.62303    216156.16   -20159.157     1468.814   -21627.971   -669.47452     414.1522     39.43443     39.23601    23.676033 
   86000    234.34079   -460.82091    216156.16   -20161.178    1484.3664   -21645.544   -1308.2708     415.1731    39.434996    39.236462    23.692882 
   86200    238.55774   -384.08976    216156.16   -20158.009    1511.0776   -21669.086   -951.77831     416.7188    39.435043    39.236391    23.687491 
   86400    230.99606   -341.64512    216156.16   -20194.219    1463.1802     -21657.4   -830.38653    417.49858    39.435633     39.23551    23.690312 
   86600    235.54605   -313.63664    216156.16   -20127.746    1492.0008   -21619.746   -695.17447    416.77023    39.434476    39.236475    23.713165 
   86800    225.67568   -403.17071    216156.16   -20214.941    1429.4797   -21644.421   -1032.0723    417.31372    39.434215     39.23781     23.69824 
   87000    237.41783   -433.56961    216156.16   -20149.886    1503.8571   -21653.743   -1157.8212    419.58034    39.433737    39.238669    23.683956 
   87200    238.17266    -557.7307    216156.16   -20137.046    1508.6383   -21645.684   -1706.7382    419.85271    39.432699    39.239385    23.657402 
   87400    226.53493     -408.052    216156.16   -20221.836    1434.9224   -21656.758   -1081.6374    420.32333     39.43167    39.239568    23.657989 
   87600    232.32789   -409.76821    216156.16   -20145.344    1471.6163    -21616.96   -1092.8603    420.55599    39.430128    39.241509    23.654315 
   87800    238.55122   -374.71087    216156.16   -20201.614    1511.0362    -21712.65   -953.11698    421.94662    39.428758    39.242019     23.66643 
   88000    233.03621   -389.15758    216156.16   -20212.485    1476.1029   -21688.588   -1026.6488    421.70413    39.430458    39.242548    23.667189 
   88200    229.84626   -454.87725    216156.16    -20216.61    1455.8971   -21672.507   -1270.6289    421.94701    39.433607    39.241526    23.687527 
   88400    236.11338   -352.51742    216156.16   -20139.954    1495.5944   -21635.548   -843.33215     421.7395    39.432973    39.242797    23.697158 
   88600    234.97556   -343.49337    216156.16   -20182.258    1488.3872   -21670.645   -830.64655    422.68844    39.432069    39.242392    23.679225 
   88800    226.82508   -353.85916    216156.16   -20175.342    1436.7603   -21612.102   -830.02184      424.385    39.433027    39.241993    23.652042 
   89000    236.69611   -281.56695    216156.16   -20181.098    1499.2855   -21680.384   -563.20558     425.7053    39.432823    39.237884    23.642126 
   89200    236.18014   -345.02396    216156.16    -20215.07    1496.0173   -21711.087   -819.65146    426.43602    39.432373    39.235561    23.648613 
   89400    242.55908   -475.36086    216156.16    -20189.88    1536.4229   -21726.303   -1378.1157    427.25043    39.434299    39.234877    23.634963 
   89600    226.87317   -349.46518    216156.16   -20310.717    1437.0649   -21747.782   -830.14277    427.56575    39.434444    39.234873    23.636169 
   89800     235.4198   -242.01746    216156.16    -20219.32    1491.2011   -21710.521   -376.23232    428.93366     39.43407    39.234746    23.618596 
   90000    234.63727   -501.78537    216156.16   -20233.175    1486.2444    -21719.42   -1478.4354    430.75377    39.432529    39.232526    23.623927 
   90200    230.63927   -238.66271    216156.16   -20255.694    1460.9202   -21716.615   -364.74113    431.38128    39.432433    39.233335    23.607237 
   90400    237.73718   -398.12678    216156.16   -20175.594    1505.8799   -21681.474   -1065.1786     433.5817    39.432644     39.23406    23.577542 
   90600    231.21599   -396.44126    216156.16   -20213.673    1464.5733   -21678.246   -1008.2967    435.88637    39.430691    39.236817    23.569338 
   90800    229.99438   -276.25709    216156.16   -20171.043    1456.8353   -21627.878   -541.87136    436.09191    39.428723    39.236242    23.592476 
   91000     233.9957   -344.75794    216156.16   -20209.969    1482.1805    -21692.15   -795.01817    436.03164    39.425333    39.237254    23.588288 
   91200    230.03873   -246.69376    216156.16   -20263.214    1457.1163    -21720.33   -400.82953    435.86586    39.425345    39.235636    23.588012 
   91400    237.26727   -434.03414    216156.16    -20202.97    1502.9034   -21705.874   -1226.7349    437.73193    39.423996    39.235119    23.589506 
   91600    233.02067   -269.93784    216156.16   -20141.209    1476.0045   -21617.214   -472.77247    435.66535    39.424304    39.235746     23.58936 
   91800    239.76396   -457.50447    216156.16   -20134.758     1518.718   -21653.476   -1261.0092    435.51895    39.423137    39.236575    23.621736 
   92000    237.91073   -329.01552    216156.16   -20135.364    1506.9793   -21642.344   -732.95982    436.62611    39.423905    39.237224    23.616819 
   92200    235.66546   -408.99133    216156.16   -20151.526    1492.7572   -21644.284   -1054.2767    437.38164    39.424288    39.236525    23.620106 
   92400     236.3632   -462.67991    216156.16   -20139.692    1497.1768   -21636.868    -1316.785    438.60797    39.424244    39.237778    23.645678 
   92600    248.39635   -215.29327    216156.16   -20097.466    1573.3975   -21670.864   -204.60005    439.30516    39.424829    39.235596    23.674199 
   92800    233.25757   -352.82743    216156.16    -20202.08    1477.5051   -21679.585   -818.12407    441.31555    39.425036    39.233902    23.670573 
   93000    226.48716   -390.98334    216156.16   -20246.855    1434.6198   -21681.475    -1024.007    442.42914    39.423668    39.229121    23.669501 
   93200    229.42182   -268.35098    216156.16   -20240.725    1453.2086   -21693.933   -427.68496    442.34133    39.423896    39.227879    23.662708 
   93400    230.91275   -462.61699    216156.16    -20308.54    1462.6525   -21771.192    -1300.609    442.89127     39.42376    39.227744    23.657768 
   93600    238.37592   -448.41333    216156.16   -20275.846    1509.9258   -21785.772    -1256.513    442.48632    39.422773    39.230142    23.687718 
   93800    233.71745   -414.90131    216156.16   -20315.492     1480.418    -21795.91   -1106.9546    443.12464    39.426166    39.232604    23.697554 
   94000    231.13816   -468.39895    216156.16   -20282.194    1464.0803   -21746.275   -1323.9538    442.37104    39.428059    39.234615    23.722305 
   94200    237.89211   -373.94171    216156.16   -20182.174    1506.8613   -21689.035   -887.25425    441.69008    39.430265    39.235755    23.713918 
   94400    238.09445   -252.92488    216156.16   -20226.525     1508.143   -21734.668   -399.88049    442.66822    39.430064    39.236256    23.719962 
   94600    232.63911    -389.8627    216156.16   -20212.522    1473.5876    -21686.11   -972.16695    443.79807    39.432633    39.236679    23.717705 
   94800    237.34565   -334.55836    216156.16   -20201.909    1503.3999   -21705.309   -762.38943    444.31381    39.434477    39.235255    23.723456 
   95000    234.88343   -439.19124    216156.16   -20252.113    1487.8037   -21739.917   -1198.3981    443.28749    39.434821    39.235373    23.742159 
   95200     234.6574   -426.52427    216156.16   -20228.744    1486.3719   -21715.116   -1119.7058    443.54487    39.434168    39.236357    23.746226 
   95400    236.79313   -385.15712    216156.16   -20208.145    1499.9001   -21708.045   -1029.0632    443.47739     39.43724    39.237352    23.739822 
   95600    235.51671   -346.65942    216156.16   -20219.931     1491.815   -21711.746   -779.52425    445.60825    39.434581    39.240873    23.760001 
   95800    235.57137   -426.66385    216156.16   -20217.544    1492.1612   -21709.705   -1134.0569     447.7015    39.433626    39.240305    23.774459 
   96000     237.1488   -484.94985    216156.16    -20199.92     1502.153   -21702.073   -1356.5118    447.95803    39.433179    39.239012    23.759543 
   96200    244.21788   -490.68478    216156.16   -20145.557    1546.9301   -21692.487   -1429.0971    447.38834    39.433508    39.236315    23.775358 
   96400    236.50382   -312.00728    216156.16   -20238.063    1498.0676    -21736.13   -664.11823    447.14558    39.432382    39.235391    23.777126 
   96600    229.86195   -390.38128    216156.16   -20256.127    1455.9964   -21712.124   -983.31233    447.98583    39.432214     39.23407    23.776946 
   96800    235.59757   -430.74066    216156.16   -20179.231    1492.3272   -21671.558   -1185.1993    449.10001    39.432117    39.234485    23.772517 
   97000    236.38238   -436.09978    216156.16   -20192.817    1497.2983   -21690.116   -1251.4746    450.92261     39.43103    39.234875     23.75687 
   97200    237.29046   -276.35525    216156.16   -20187.448    1503.0503   -21690.499   -558.66103    452.09768    39.432866    39.234499    23.756841 
   97400    236.12789    -337.7684    216156.16   -20143.815    1495.6863   -21639.501    -786.1929    453.28735    39.433914    39.233314    23.740758 
   97600    242.71128   -264.76335    216156.16   -20127.611     1537.387   -21664.998   -498.23997    452.57783    39.433588    39.231793    23.726652 
   97800    233.16636    -500.0279    216156.16   -20158.141    1476.9273   -21635.068   -1478.6819    452.68975     39.43469    39.230842    23.728521 
   98000    229.97892   -363.08656    216156.16   -20190.024    1456.7374   -21646.761     -873.136    453.09137    39.435999    39.232424     23.70847 
   98200    233.93629   -400.50441    216156.16   -20197.308    1481.8042   -21679.112   -1015.4721    453.63189    39.437978    39.232624    23.704188 
   98400    233.77095    -551.5126    216156.16   -20146.872     1480.757   -21627.629   -1716.8444    455.57204    39.439298    39.233741    23.717203 
   98600     231.0599   -521.22637    216156.16    -20156.12    1463.5846   -21619.705   -1604.9853     456.8771     39.44091    39.236289     23.72414 
   98800     237.4531   -371.19085    216156.16   -20106.931    1504.0805   -21611.012    -945.3297    457.02233    39.441874    39.237883    23.702944 
   99000    236.90897   -596.59214    216156.16    -20219.75    1500.6338   -21720.384   -1912.5298    458.68523    39.443862    39.240798    23.679713 
   99200    229.68491   -405.64742    216156.16   -20225.662    1454.8751   -21680.537   -1081.8587     458.5024    39.444611    39.240399    23.684892 
   99400    232.96286   -272.56468    216156.16   -20192.957    1475.6383   -21668.595   -501.33862    457.99482    39.443274    39.242241    23.684458 
   99600    237.15027   -270.63111    216156.16   -20200.124    1502.1623   -21702.286   -495.35311    460.62387     39.44314    39.243937    23.676869 
   99800    239.80587   -316.34205    216156.16   -20239.544    1518.9835   -21758.528   -685.48736    462.96885    39.442051    39.243247    23.647487 
  100000    234.37317   -308.02978    216156.16   -20234.078    1484.5715    -21718.65   -628.48893    462.09795    39.437376    39.244019    23.611743 
  100200    233.40667   -292.24346    216156.16   -20279.299    1478.4495   -21757.749   -599.36567    463.98571    39.438036    39.243053    23.590502 
  100400    242.15907   -515.84208    216156.16   -20202.067    1533.8892   -21735.956   -1544.4279    466.22888    39.435454    39.240267    23.601488 
  100600    234.94705   -396.17598    216156.16   -20188.954    1488.2066   -21677.161   -1105.5933     464.0881    39.433945    39.241688    23.604641 
  100800    230.91593   -505.40995    216156.16   -20249.753    1462.6726   -21712.425    -1522.749     466.5362    39.432069    39.242157    23.604488 
[...]
 3976000    217.66733    -311.3751    216156.16    -22227.22    1378.7531   -23605.973   -633.15368    5721.5608    40.868954    39.673787    23.746374 
 3976200    219.83054   -279.53701    216156.16   -22233.497    1392.4553   -23625.952   -524.68703    5720.3643    40.868874    39.673979    23.744581 
 3976400    230.18693   -297.17997    216156.16   -22238.851     1458.055   -23696.906   -608.33771    5722.0083    40.868764    39.674045    23.746249 
 3976600    218.60928   -380.09448    216156.16   -22226.746    1384.7196   -23611.466   -964.22171    5722.0048    40.869272    39.674633     23.74623 
 3976800    226.21855   -215.79656    216156.16   -22164.335    1432.9184   -23597.253   -255.16227    5721.9815    40.870301    39.675258    23.744929 
 3977000    223.64296   -131.44629    216156.16   -22262.821     1416.604   -23679.425    114.22472    5722.8311    40.870992    39.675263    23.742459 
 3977200    231.42745   -410.38168    216156.16   -22175.984    1465.9127   -23641.897   -1050.2197    5723.1133    40.871261    39.676536    23.738112 
 3977400    226.64858   -375.43902    216156.16   -22182.203    1435.6422   -23617.845   -937.56484    5723.5981    40.871086    39.676811    23.739286 
 3977600    221.40582   -151.36154    216156.16   -22209.357    1402.4335   -23611.791    8.9825531    5721.6524    40.871244    39.677995    23.737279 
 3977800     219.9512    -165.0616    216156.16   -22202.144    1393.2196   -23595.364   -22.715991    5722.4823    40.872031    39.678311    23.737704 
 3978000    218.86058    -430.4032    216156.16    -22228.91    1386.3113   -23615.222   -1144.8338    5723.2973    40.872296      39.6784    23.738957 
 3978200    223.42648    -371.3901    216156.16   -22164.208    1415.2328    -23579.44    -917.7238    5724.8597     40.87195    39.678568    23.737599 
 3978400    221.91635   -185.63509    216156.16   -22240.351    1405.6673   -23646.019   -78.419737    5722.8581    40.871937    39.679456    23.731051 
 3978600    229.22262   -66.406541    216156.16   -22200.948    1451.9468   -23652.895    422.40661    5721.7432    40.872282    39.679448    23.734039 
 3978800    224.10712   -284.30476    216156.16   -22177.047    1419.5441   -23596.591   -528.92119    5722.3342    40.871712    39.679038    23.734637 
 3979000    220.18936   -416.43326    216156.16   -22201.004    1394.7282   -23595.732   -1073.1326    5721.3964    40.869605     39.67931    23.732006 
 3979200    219.77281   -307.76381    216156.16   -22223.149    1392.0896   -23615.239   -576.28288    5720.3923    40.869318    39.679023    23.737952 
 3979400    226.68661   -140.58883    216156.16   -22187.843    1435.8831   -23623.726    93.755465    5720.5661    40.869677    39.679439    23.732649 
 3979600    222.90956   -268.07088    216156.16   -22205.116    1411.9585   -23617.074   -480.48402    5720.9426    40.868342    39.678648    23.728221 
 3979800    221.22406   -324.05334    216156.16   -22194.895    1401.2822   -23596.177   -680.86954    5722.2922    40.867637    39.678109    23.732803 
 3980000    221.55749   -287.57539    216156.16   -22210.777    1403.3942   -23614.171   -541.95884    5722.4275    40.868075    39.678835     23.73322 
 3980200    224.84667   -236.36035    216156.16   -22205.641    1424.2286    -23629.87    -352.7217    5722.3028    40.868231    39.679565     23.73335 
 3980400    224.64361   -228.69157    216156.16   -22169.123    1422.9424   -23592.066   -308.78253    5722.6605    40.867709    39.679489     23.73278 
 3980600    226.98297   -287.47031    216156.16   -22121.184    1437.7604   -23558.944   -557.78653    5721.6709    40.866976    39.679506    23.736846 
 3980800    224.65099   -378.62309    216156.16   -22165.338    1422.9891   -23588.327   -946.69078    5722.5821    40.866856    39.680312     23.73235 
 3981000    230.17921   -192.62991    216156.16   -22188.988    1458.0061   -23646.994   -107.77872      5722.85     40.86601    39.680077    23.724958 
 3981200    225.19226   -201.23923    216156.16   -22188.737    1426.4176   -23615.154   -151.40215    5721.4718    40.865526    39.680461    23.728181 
 3981400    226.67964   -260.46664    216156.16   -22168.567     1435.839   -23604.406   -451.81746     5722.679    40.865449    39.681584    23.728626 
 3981600    223.12546   -255.39077    216156.16    -22223.88    1413.3261   -23637.206   -426.79784    5721.9641    40.865719    39.682144    23.723618 
 3981800    224.65297   -326.83981    216156.16     -22206.2    1423.0016   -23629.202   -703.26424    5722.7874    40.865227    39.683328    23.721069 
 3982000    227.37221   -291.39189    216156.16   -22255.427    1440.2259   -23695.653   -598.80012    5723.1106    40.865488    39.684135    23.722713 
 3982200     214.9284   -303.17333    216156.16   -22286.896    1361.4041     -23648.3   -603.00853    5722.1078     40.86576    39.684862    23.722615 
 3982400    223.28652   -203.96545    216156.16   -22209.207    1414.3462   -23623.553   -202.16297    5722.2127    40.865688    39.685773      23.7203 
 3982600    224.76424   -329.03999    216156.16   -22224.434    1423.7064    -23648.14   -725.46714    5722.0115    40.865789    39.687606    23.722173 
 3982800    221.11857   -428.09019    216156.16   -22167.972     1400.614   -23568.586   -1133.4851     5723.184    40.865881    39.689212    23.722894 
 3983000    229.30206   -204.63737    216156.16   -22143.145      1452.45   -23595.595   -191.12203    5721.3316    40.866001    39.690669      23.7244 
 3983200    226.58798   -230.60556    216156.16   -22172.761    1435.2584    -23608.02   -324.42194    5722.4684    40.866904    39.691674    23.722625 
 3983400    228.17213   -286.98317    216156.16   -22141.065    1445.2928   -23586.358   -502.56461    5723.3624    40.866954    39.692107    23.726687 
 3983600    223.03099   -272.26027    216156.16    -22207.54    1412.7277   -23620.267   -408.70214    5722.4398    40.867798    39.691894    23.727246 
 3983800    228.49028   -254.12315    216156.16   -22200.808     1447.308   -23648.116   -424.18829    5721.7806    40.868079    39.692756    23.727461 
 3984000    227.55816   -228.17925    216156.16     -22201.8    1441.4037   -23643.203   -282.56403    5721.7692     40.86793    39.693441    23.727215 
 3984200    219.86671   -333.80936    216156.16    -22172.33    1392.6844   -23565.015   -724.52039    5722.9674    40.868119    39.695119    23.726444 
 3984400    221.26416   -321.36134    216156.16   -22228.973    1401.5361   -23630.509   -707.68944    5723.3144    40.868116    39.696171    23.726067 
 3984600    223.27213   -250.16363    216156.16   -22236.139    1414.2551   -23650.394   -388.18668    5722.5536    40.867362    39.696896    23.729266 
 3984800    222.56878    -245.2367    216156.16    -22196.54    1409.7999    -23606.34   -373.18268    5723.3637    40.867583    39.696944    23.732757 
 3985000    222.82487   -311.47107    216156.16   -22237.608    1411.4221    -23649.03   -653.18929    5724.4478    40.868135    39.698455    23.732715 
 3985200    223.76497   -391.68093    216156.16   -22189.953    1417.3769   -23607.329   -1005.0247    5724.9321    40.867214    39.699993    23.727171 
 3985400    225.18928   -305.11757    216156.16   -22214.522    1426.3988    -23640.92   -621.21246    5723.4468    40.867977    39.700885    23.727872 
 3985600    225.17617   -305.13544    216156.16   -22171.004    1426.3157    -23597.32   -656.23332    5722.3359    40.867618    39.701515      23.7298 
 3985800    220.00389   -295.99442    216156.16    -22186.94    1393.5533   -23580.493   -589.18028    5724.3364    40.868229    39.701909    23.725508 
 3986000    235.16038   -347.17627    216156.16   -22112.565    1489.5579   -23602.123   -813.02811    5724.6386    40.867707    39.703704    23.725699 
 3986200    227.41454   -222.33932    216156.16   -22142.522    1440.4941   -23583.016   -265.01892    5724.0174    40.867727     39.70328    23.732416 
 3986400    223.42887   -235.15376    216156.16   -22229.652    1415.2479     -23644.9   -313.10751    5722.2731    40.867903     39.70376    23.737521 
 3986600    220.25656   -281.28978    216156.16   -22193.025    1395.1538   -23588.179   -515.35953    5724.5497    40.868038    39.704934    23.735442 
 3986800    228.12272   -279.11631    216156.16   -22201.278    1444.9798   -23646.258   -516.26811    5723.9564    40.868043    39.704642    23.736958 
 3987000    229.02721   -230.88481    216156.16   -22172.555    1450.7091   -23623.264   -283.17294    5725.6638    40.867573    39.704252    23.738996 
 3987200    223.55401   -229.11404    216156.16   -22268.934    1416.0406   -23684.975   -317.85609     5725.711    40.868442    39.703879    23.741292 
 3987400    221.08645   -289.55215    216156.16   -22225.635    1400.4105   -23626.045   -578.45288    5724.5346    40.868697     39.70326    23.738924 
 3987600    224.79961   -222.10714    216156.16    -22160.17    1423.9305     -23584.1    -294.8763    5724.2428    40.868142    39.702458    23.736883 
 3987800    221.22711   -285.20226    216156.16   -22208.304    1401.3015   -23609.606   -557.58769    5725.7048     40.86825    39.702187    23.735348 
 3988000    227.65191   -362.31937    216156.16   -22172.518    1441.9976   -23614.515   -857.67008    5726.2986    40.868741    39.701578    23.732003 
 3988200    229.33992    -295.0385    216156.16   -22206.418    1452.6898   -23659.108   -613.89673    5725.8874    40.868719    39.701083    23.737702 
 3988400    227.76997   -130.82404    216156.16   -22186.066    1442.7454   -23628.811    116.78855    5723.9921    40.869272    39.701779    23.738022 
 3988600    220.05253   -387.77922    216156.16   -22232.788    1393.8614   -23626.649   -1012.4945    5723.6269    40.869072    39.701711    23.739256 
 3988800    220.60618   -353.75885    216156.16   -22228.806    1397.3684   -23626.174   -872.18194    5725.2726    40.869193    39.701607    23.740381 
 3989000    228.22552   -363.77436    216156.16   -22164.741     1445.631   -23610.372   -862.13923    5724.6702    40.869802    39.701053    23.739729 
 3989200    223.76937   -295.31839    216156.16   -22195.294    1417.4047   -23612.699   -610.06797     5725.084    40.869658    39.701567    23.740962 
 3989400    224.50834   -230.98393    216156.16   -22229.357    1422.0855   -23651.443   -298.40039    5723.6468    40.869874     39.70238    23.737546 
 3989600    221.55443    -198.6485    216156.16   -22147.003    1403.3748   -23550.378   -191.07785    5724.3115     40.87066    39.703509    23.736844 
 3989800    225.83493   -254.58057    216156.16   -22177.602    1430.4884   -23608.091   -413.88071    5725.1104    40.870066    39.703718    23.742329 
 3990000    221.82762   -417.93348    216156.16   -22224.674    1405.1053   -23629.779   -1101.8602    5726.4295    40.869931    39.704497      23.7365 
 3990200     225.3199   -187.16463    216156.16   -22212.633    1427.2261   -23639.859   -89.589449    5723.3144    40.870176     39.70503    23.740934 
 3990400    231.53965   -160.47713    216156.16   -22190.968    1466.6234   -23657.592   -12.737419    5723.8468    40.870429    39.704655    23.742767 
 3990600    222.09357   -283.32487    216156.16   -22228.678    1406.7899   -23635.468   -501.85657    5722.8932    40.869804    39.704251    23.739736 
 3990800    224.72836    -201.7695    216156.16   -22197.391    1423.4792    -23620.87   -142.73565    5722.9576    40.870397    39.704337    23.733717 
 3991000    228.72536   -207.25384    216156.16   -22161.249    1448.7971   -23610.046   -203.96027    5724.1402    40.871043     39.70474    23.734494 
 3991200    225.05299   -261.21483    216156.16   -22141.559    1425.5354   -23567.094   -450.91379    5724.5788    40.871199    39.704699    23.729441 
 3991400     229.1461   -283.53687    216156.16   -22141.915    1451.4621   -23593.377   -519.88115     5723.493    40.872371    39.703891    23.730878 
 3991600    223.15263   -257.66302    216156.16   -22188.325    1413.4982   -23601.824   -422.87268     5725.205    40.872928    39.703448    23.735054 
 3991800    220.05162   -117.11805    216156.16   -22249.638    1393.8557   -23643.494    195.15607    5723.2085     40.87355    39.703463    23.736049 
 3992000    223.32588   -240.91721    216156.16   -22196.531    1414.5955   -23611.127   -366.28726    5724.1796    40.873621    39.704188     23.73028 
 3992200    224.35329   -385.77681    216156.16   -22176.504    1421.1034   -23597.607    -941.5269    5724.0401    40.874302    39.705172    23.728951 
 3992400    223.84164   -320.86867    216156.16   -22188.532    1417.8625   -23606.395   -679.40745    5724.9257    40.874566    39.707006    23.737548 
 3992600    229.00415   -225.73583    216156.16   -22188.249     1450.563   -23638.812    -284.8082    5722.8747     40.87428     39.70804    23.739557 
 3992800    225.72928   -187.90356    216156.16   -22188.596    1429.8192   -23618.416   -138.39468    5723.3976    40.873619    39.708441    23.737014 
 3993000    217.60866   -307.74669    216156.16   -22266.491    1378.3814   -23644.873    -609.3818      5722.71    40.874893    39.708345    23.732815 
 3993200    225.69656   -317.20316    216156.16   -22185.407     1429.612   -23615.019   -637.74261    5723.7072    40.875786    39.708711    23.734621 
 3993400    230.91553    -292.2088    216156.16   -22148.379    1462.6701   -23611.049   -578.51994    5723.7651    40.876926    39.708611    23.736748 
 3993600    224.78937   -210.41574    216156.16   -22159.044    1423.8656   -23582.909   -201.08957    5722.7628    40.876998    39.709239    23.733023 
 3993800    225.94383   -204.91408    216156.16   -22182.809    1431.1783   -23613.987   -206.16734    5723.9075    40.878261    39.709273    23.732291 
 3994000    226.73731   -199.38718    216156.16   -22187.219    1436.2043   -23623.423   -207.82847    5723.7135    40.877971    39.709478     23.73344 
 3994200    222.71939   -355.38322    216156.16   -22205.225    1410.7539   -23615.979   -794.52263    5723.4587    40.878564    39.710388    23.728435 
 3994400    221.88273   -268.40638    216156.16   -22181.595    1405.4543    -23587.05   -487.97782    5724.2552     40.87871    39.710534    23.728278 
 3994600     222.4168   -183.83539    216156.16   -22247.625    1408.8373   -23656.463   -93.636558    5723.8485    40.878519    39.709701    23.731061 
 3994800    226.58477   -230.19701    216156.16   -22145.004    1435.2381   -23580.243   -315.94011    5723.2641    40.878882    39.710219    23.731495 
 3995000    226.59162   -270.40765    216156.16   -22158.981    1435.2815   -23594.263    -465.6524     5723.532    40.879423    39.709631    23.736356 
 3995200    220.94906    -275.7595    216156.16   -22211.737    1399.5403   -23611.277   -489.78239    5723.2239    40.878376    39.709912    23.746722 
 3995400    224.42372   -369.65103    216156.16    -22149.34    1421.5495    -23570.89   -886.73776    5723.9743    40.880045    39.709644     23.74604 
 3995600    230.82116    -209.5619    216156.16   -22089.232    1462.0723   -23551.304    -175.0471    5722.4763    40.878956    39.709461    23.750264 
 3995800    228.28147   -249.97063    216156.16   -22116.159    1445.9853   -23562.145   -386.29403    5722.4409    40.878901    39.709034    23.747926 
 3996000    228.92127   -276.15484    216156.16   -22067.981     1450.038   -23518.019   -487.26592    5724.9282    40.879759    39.708018    23.745978 
 3996200      222.763   -300.56056    216156.16   -22150.933    1411.0302   -23561.964   -603.14248    5723.6241    40.879762    39.708683    23.745735 
 3996400    223.76446   -257.37582    216156.16    -22192.07    1417.3736   -23609.443   -414.09726    5723.5969    40.879869    39.709073    23.736361 
 3996600    224.82158   -283.20696    216156.16   -22168.625    1424.0696   -23592.694    -576.1485    5723.3988    40.879604    39.710029    23.744756 
 3996800    222.91229   -272.20383    216156.16   -22197.055    1411.9758   -23609.031   -489.69377    5724.7781    40.880613    39.710114    23.745322 
 3997000    235.07936   -331.97522    216156.16   -22098.515    1489.0447    -23587.56   -728.33807    5724.7799    40.880347    39.710524    23.743696 
 3997200    227.68298   -289.63728    216156.16   -22155.599    1442.1944   -23597.793   -524.86747    5723.6716    40.881181    39.710916    23.743708 
 3997400    222.46468   -124.23671    216156.16   -22205.322    1409.1405   -23614.462    163.07478    5724.2542    40.880016    39.710786    23.742566 
 3997600    225.30566   -221.34552    216156.16   -22130.532     1427.136   -23557.668   -277.56835    5723.8243    40.879841    39.710891    23.736287 
 3997800    214.82721   -368.00606    216156.16   -22256.026    1360.7631   -23616.789   -901.27488    5725.6308    40.880087    39.712008    23.742702 
 3998000    221.56059   -253.11309    216156.16   -22183.059    1403.4138   -23586.473   -392.80819    5724.4936    40.879019    39.712268    23.744526 
 3998200    222.78483   -170.38857    216156.16   -22226.243    1411.1685   -23637.411    -79.72391    5723.0842    40.879745    39.711597    23.745794 
 3998400     234.7964   -201.51282    216156.16   -22100.398    1487.2524    -23587.65    -209.1891    5723.5823    40.879883    39.711317    23.743926 
 3998600    223.01231   -335.60801    216156.16   -22196.604    1412.6094   -23609.213   -725.86322    5725.6192    40.879862     39.71208    23.750432 
 3998800    219.78599   -270.04285    216156.16   -22183.298    1392.1731   -23575.471   -490.59107    5723.4416     40.88035    39.712651    23.750165 
 3999000    227.52186   -309.55948    216156.16    -22127.95    1441.1739   -23569.124   -677.97152     5723.739    40.880453    39.712572    23.754772 
 3999200    228.02882   -250.33781    216156.16   -22190.588     1444.385   -23634.973   -419.45881    5723.5875    40.880723     39.71229    23.753417 
 3999400    221.79938   -305.47576    216156.16   -22230.225    1404.9264   -23635.152   -607.85937    5723.0605    40.881114    39.712186    23.748198 
 3999600    219.60373   -232.12058    216156.16   -22237.759    1391.0186   -23628.778   -319.10227    5722.4114    40.881324     39.71072    23.742108 
 3999800    226.77307   -306.91443    216156.16   -22153.186    1436.4308   -23589.617   -658.81376    5723.8531    40.882037     39.71121    23.751749 
 4000000    223.49312    -315.7424    216156.16   -22158.453    1415.6549   -23574.108   -649.38606    5722.7441      40.8823    39.711278    23.746582 
Loop time of 5797.26 on 64 procs for 4000000 steps with 9422 atoms

Performance: 596.143 ns/day, 0.040 hours/ns, 689.981 timesteps/s
99.0% CPU use with 64 MPI tasks x no OpenMP threads

MPI task timing breakdown:
Section |  min time  |  avg time  |  max time  |%varavg| %total
---------------------------------------------------------------
Pair    | 3.8825     | 1828.2     | 4064.6     |3666.0 | 31.54
Neigh   | 4.4319     | 210.83     | 462.28     |1130.8 |  3.64
Comm    | 695.85     | 2111.4     | 4178.8     |2521.2 | 36.42
Output  | 126.02     | 126.28     | 126.71     |   1.5 |  2.18
Modify  | 333.23     | 1406.2     | 4240.5     |4122.8 | 24.26
Other   |            | 114.3      |            |       |  1.97

Nlocal:        147.219 ave         289 max           0 min
Histogram: 16 0 4 12 0 0 0 7 14 11
Nghost:        829.703 ave        1046 max         624 min
Histogram: 8 11 10 3 0 0 6 7 13 6
Neighs:         0.00000 ave           0 max           0 min
Histogram: 64 0 0 0 0 0 0 0 0 0
FullNghs:      14863.5 ave       32276 max           0 min
Histogram: 16 16 0 0 0 0 0 10 11 11

Total # of neighbors = 951264
Ave neighs/atom = 100.96200
Neighbor list builds = 425914
Dangerous builds = 0
write_data 		${DIR}/data.${NAME}_run
write_data 		run_7/data.${NAME}_run
write_data 		run_7/data.ibeam_cooling_7_run
System init for write_data ...
Total wall time: 1:36:51
