LAMMPS data file via write_data, version 7 Aug 2019, timestep = 5000000

4098 atoms
1 atom types

8.6646345380639644e-02 5.1333353654616410e+01 xlo xhi
8.6646345380639644e-02 5.1333353654616410e+01 ylo yhi
8.6646345380639644e-02 5.1333353654616410e+01 zlo zhi

Masses

1 18.15

Atoms # atomic

3196 1 2.5409554073751110e+01 1.3899805299292893e+01 1.4746486590080023e+01 1 0 -1
3326 1 2.9635563143273567e+00 1.4541519490527817e+01 6.4508150687337062e-01 2 1 1
3401 1 6.5388879203384569e+00 1.5762552800645890e+00 3.2649408554343600e+00 1 -1 -1
741 1 5.2776876568304036e+00 8.7299428111014132e-01 9.1823932466829605e-01 -1 0 0
2393 1 1.0762701338502097e+01 2.4854715006119994e+00 1.4573650036186319e+00 0 2 1
3840 1 1.6033427120503397e+01 1.3543674224085511e+00 1.8701846468259677e+00 2 2 2
2126 1 1.8638812800315151e+01 2.1384373455132164e+00 1.6029693532690863e+00 1 -2 -1
2629 1 2.3424022004165252e+01 1.5711671642197984e+00 1.9792942167446559e+00 -2 0 0
67 1 2.9145409501549286e+00 3.5329784357461134e+00 2.5874530310995327e+00 1 0 -2
2051 1 2.5489814367108723e+00 2.0930619037535955e+01 5.3388219371634293e-01 1 -1 -1
2648 1 5.0489719836282276e+00 5.2819641973582980e+00 3.0455063869755969e+00 2 0 3
238 1 8.7684863407265770e+00 4.4376477973004036e+00 9.5803594921296864e-01 -3 1 0
2434 1 7.3841264496893535e+00 3.9981251535391973e+00 3.1272582702709819e+00 1 -1 1
3745 1 1.4593825154179699e+01 3.3739158773078834e+00 3.2959533266748435e+00 1 0 -1
1304 1 1.4665867360645636e+01 5.5099341157389210e+00 1.7070704366303067e+00 -1 -1 1
3424 1 1.7548173766601582e+01 6.3965586929915172e+00 1.3486673724148401e+00 0 3 -1
3070 1 2.2358402295584057e+01 5.6151534953399151e+00 1.7667240886008775e+00 1 1 1
2277 1 2.4482446023306530e+01 4.0842906583320255e+00 1.9375432084965085e+00 0 2 3
81 1 2.7967489021806826e+00 8.1116413310441047e+00 5.1845585502702485e-01 -1 -1 2
2251 1 4.2369363973524227e-01 1.8032139177705901e+01 1.4305764528263273e+01 0 -1 -2
2757 1 5.0710157142764807e+00 6.9708517428472900e+00 9.6565272585616713e-01 2 1 1
3897 1 9.4289420860224169e+00 6.8144813873681223e+00 1.2133199413303828e+00 1 -2 -1
3039 1 7.3425046222872332e+00 8.5666867376100555e+00 1.0181613627503630e+00 1 -1 1
2750 1 1.3668016472215205e+01 7.5813593491937246e+00 3.0269548213385558e+00 0 -3 1
2854 1 2.3240872938896196e+01 8.4159183439554699e+00 1.8352497557596832e+00 1 -1 2
2803 1 2.2993795779780393e+00 9.8432147418401374e+00 2.3652258065583425e+00 1 0 1
3923 1 2.5608015251945435e+01 1.7740845077086440e+00 1.0268841765708382e+01 -1 0 2
2222 1 4.6094712297030327e+00 1.1213415758931882e+01 2.9555974942781713e+00 0 0 1
4076 1 5.0619943288699272e+00 1.2894791419152696e+01 8.8121124069316348e-01 2 0 2
1841 1 6.5161251520805274e+00 9.6831269099724011e+00 3.3621346632077578e+00 -1 2 1
2072 1 9.5420704416384776e+00 1.2847486115944093e+01 1.5193218322735769e+00 0 0 1
1989 1 1.3475986396748413e+01 9.9464774103309512e+00 1.7226875365577652e+00 1 2 1
2249 1 1.6110404846862938e+01 1.0609460186056326e+01 1.2062043326195067e+00 1 -1 1
215 1 1.7297097121104002e+01 1.0468275200583610e+01 3.4828524637516542e+00 -3 0 2
1405 1 2.1248730842085642e+01 1.0134477494746651e+01 1.8534416356722212e+00 -1 1 -1
2633 1 2.1628593916798529e+01 1.2504045458845772e+01 2.0267982074617521e+00 -1 -2 2
3258 1 2.5558041296141901e+01 1.5596089464855758e+01 2.6102591773945307e+00 1 0 0
3044 1 2.4171767125754919e+00 1.6059630318422045e+01 2.7472436102256190e+00 2 0 0
1933 1 7.4247928836110493e+00 1.4321586150026945e+01 9.6590090594968225e-01 2 0 2
2160 1 6.9134469303826114e+00 1.5990938533465769e+01 2.8592516315398835e+00 1 -2 1
3256 1 1.1611081363305745e+01 1.4559289667909445e+01 1.8001335807244274e+00 1 1 1
1670 1 1.3745892997087374e+01 1.3274907368356446e+01 2.2789082821389264e+00 2 0 -1
1730 1 1.6093925085652820e+01 1.4480400145018240e+01 3.1826839824285096e+00 0 2 -1
3488 1 2.6195060968013131e+00 2.5545815628680209e+01 1.3569573478253639e+01 -1 -1 2
3755 1 1.9637126366937842e+01 1.4339113238705188e+01 1.7964407361753165e+00 2 -1 0
1847 1 6.7526791377102011e+00 1.8016924849555640e+01 1.6772249084829323e+01 0 1 2
3494 1 4.5836006571921031e+00 1.7559619619763644e+01 2.8598869179344031e+00 0 -1 -1
2508 1 4.5205403421219152e+00 1.9212893209519326e+01 6.8197702334697829e-01 0 0 0
3176 1 9.0559165597043059e+00 1.8812561250493715e+01 1.0220237367484479e+00 1 2 1
3128 1 1.3720408312896435e+01 1.9256692562147535e+01 1.8843372913134602e+00 2 3 1
1223 1 1.7982324399611819e+01 1.7922865600470505e+01 5.4393732453136501e-01 1 0 0
3603 1 2.0122459880124698e+01 1.6779001381153314e+01 1.3518810624748994e+00 1 -1 0
844 1 2.4222816581939393e+00 2.2492263930388187e+01 2.6558594242400848e+00 3 -1 -1
1788 1 2.4093993281095791e+01 2.5448308535175894e+01 1.0534484122854158e+01 2 3 -2
2859 1 6.5841968986116255e+00 2.2410797644190094e+01 3.1281881670793208e+00 1 -1 -1
3162 1 6.6955270371732416e+00 2.0673927447994629e+01 1.1974564476640530e+00 -1 0 1
2942 1 1.1325786623121576e+01 2.0517357046136787e+01 1.4409043259811387e+00 2 0 0
733 1 1.5628563272715008e+01 2.1222045146791153e+01 2.2714841900527536e+00 -2 -1 1
3504 1 2.5585968457829694e+01 1.1490374684811041e+01 1.7494391296530232e-01 -1 3 1
2491 1 1.7989983093632919e+01 1.9708270952926156e+01 2.4261369836567122e+00 3 0 1
746 1 1.9910841039916249e+01 2.1589820477206146e+01 2.9406674332327265e+00 1 1 2
3429 1 2.2138455588269050e+01 1.9683988133309040e+01 3.5406013784426804e+00 2 -1 2
3853 1 2.3995051419304254e+01 2.0163699870773424e+01 1.6061294801038701e+00 2 1 0
2995 1 2.5202091117824788e+00 2.4920842355731381e+01 1.9702911216965704e+00 1 0 1
3006 1 4.7482529381126071e+00 2.5393903822174824e+01 4.3916163308847417e-01 1 1 2
1891 1 6.5338861211330714e+00 2.4958696743742816e+01 2.2817636775816821e+00 0 0 1
3302 1 8.9343733002655128e+00 2.5323242100496064e+01 1.1297652612947382e+00 -1 1 0
2227 1 1.1300727276177636e+01 2.4739183732402580e+01 2.7241917790844004e+00 1 0 2
2610 1 3.9227656214431916e-01 6.8423425435763097e+00 4.3694897803786628e+00 1 0 0
3681 1 7.6739857457834282e-01 2.0806854838717790e+01 1.3638720044931652e+01 1 -1 -1
4092 1 2.4559835250485776e+01 6.7709282736397043e+00 1.2653009501627729e+01 0 1 2
2924 1 2.0492674237312438e+00 2.6090214328647776e+00 4.6852292303636309e+00 2 -1 2
2655 1 4.4973164869698357e+00 2.5363730340447194e+01 1.5632128893773487e+01 1 2 0
1919 1 4.5412432588501792e+00 1.3622278336834897e+00 5.2327068030161135e+00 1 1 1
3455 1 1.1900733396459288e-01 2.2570847015853136e+01 1.5730174213098852e+01 -1 2 0
2342 1 1.1945188473137330e+01 2.5961645055366223e+00 3.8655301900676511e+00 1 -1 -1
674 1 1.8388763141760645e+01 1.8742413841014720e+00 5.9082384582920326e+00 0 2 1
2851 1 1.9952114248861562e+01 2.4931063563057188e+00 3.8550629604741431e+00 0 0 1
1016 1 2.1810109123022777e+01 7.1691948203846967e-01 4.1218216364752234e+00 1 0 0
4015 1 2.3049565376768182e+01 1.0594306313917805e+00 6.3485327869176462e+00 -1 0 0
2146 1 8.5560425639688518e+00 4.4136407632939134e+00 5.5766699195382063e+00 1 2 2
1251 1 1.1323119849715969e+01 4.9207160960741687e+00 4.9443205374839030e+00 0 1 2
3975 1 1.6263801826939467e+01 3.6483507648769047e+00 5.6135342289473069e+00 -1 0 0
2020 1 1.7050535560748585e+01 6.2400276517529427e+00 5.7786380269801159e+00 0 0 1
935 1 2.0787725904745702e+01 4.9988586947683400e+00 3.7059965698637543e+00 0 0 1
1310 1 2.1805667057238981e+01 5.0941237454276189e+00 6.1448991861588906e+00 2 1 1
806 1 1.5274926161486158e+01 2.3280938585636545e+01 1.5484481578691002e+01 1 1 1
230 1 2.4997288445254520e+00 8.4117480616644507e+00 4.6178212393144138e+00 -1 -1 -2
1595 1 4.6636602602399622e+00 6.7251497347316702e+00 5.1923156443870981e+00 2 0 1
4043 1 6.7763361735901242e+00 8.3350737112774720e+00 5.6568957276089602e+00 -2 1 2
2557 1 8.8211372261370009e+00 7.1336748590847092e+00 6.5540902209116005e+00 2 -2 1
3153 1 1.0860853729336915e+01 7.1445262171974617e+00 3.3847757339515563e+00 0 0 -1
2658 1 1.0996614960311737e+01 1.0050695549361764e+01 4.1080083790232962e+00 2 1 -1
342 1 1.4857990322378955e+01 8.0574969594313437e+00 5.3463819073343517e+00 3 0 1
2841 1 1.8708774031410233e+01 6.7379000890596528e+00 3.8776648284590816e+00 0 0 0
3929 1 1.9629353455603393e+01 9.1196329758919195e+00 3.8716730841801361e+00 -2 0 0
3379 1 2.0718270737533388e+01 9.1117446445175023e+00 6.3969284977607632e+00 -1 2 -1
2325 1 2.3051099201680969e+01 7.6843098852267753e+00 6.4220428719388476e+00 3 1 -1
1556 1 2.4480588878843431e+01 8.2033220989992195e+00 4.4232225110301124e+00 -1 -1 1
3462 1 1.7287532458208803e+00 9.6195729710144651e+00 6.9220238615675065e+00 1 -1 -2
3301 1 8.4988576421504920e+00 1.1470571341175754e+01 3.8366169706226350e+00 1 0 2
1984 1 8.1536930606756446e+00 1.3107443305149445e+01 6.0094121781373691e+00 -1 2 0
3682 1 1.2484422196553913e+01 1.2780820211439341e+01 7.0643653870787801e+00 1 -1 1
3990 1 1.3344094910434826e+01 1.1815630229856703e+01 4.6042355215904456e+00 0 -1 2
2308 1 1.5517755444896993e+01 1.0511892839471585e+01 5.3284766652285960e+00 -2 0 0
2198 1 2.1263108531713790e+01 1.1834725587035015e+01 6.4104689312538676e+00 1 0 2
1672 1 2.5149382973917607e+01 1.0883047140942985e+01 4.5617993138301065e+00 0 0 1
341 1 2.2952919233706027e+01 1.2720135248817453e+01 4.4565250264525638e+00 -1 2 1
22 1 3.2510930391064502e-01 4.8821226210059798e+00 2.3571450326457999e+00 3 3 -1
3010 1 2.2059458554574003e+00 1.4599089925167146e+01 5.0532119851859685e+00 0 2 0
738 1 4.6333371006123185e+00 1.2831552734214000e+01 5.1459480195928657e+00 1 0 0
2006 1 6.2291718582509041e+00 1.4991640022824614e+01 5.5282471468867795e+00 -1 1 2
3557 1 1.0484959054501841e+01 1.4447032755761844e+01 6.0420194452335148e+00 1 3 -1
3559 1 1.1459553151044554e+01 1.6154560396887163e+01 4.0395546081930522e+00 1 2 1
3694 1 1.8004627950344027e+01 1.2977092301524866e+01 3.8144820374992618e+00 0 1 1
3224 1 1.8958968694164195e+01 1.2972541472158646e+01 6.2100995331719444e+00 1 1 -1
1944 1 2.3659957098893230e+01 1.5298167006107409e+01 4.4777975962715084e+00 -1 0 -1
3634 1 2.4630252374033464e+01 1.5917379658361567e+01 7.0601582020265887e+00 2 -1 0
1809 1 1.9959141387098895e+00 1.8527536629367361e+01 6.3998782699463908e+00 0 0 1
1196 1 4.2779161794890177e+00 1.9351987581362941e+01 4.9034394142092506e+00 2 1 -1
1403 1 6.3398445121511262e+00 1.9084738257342980e+01 6.8885801694955457e+00 0 2 2
1176 1 8.8593284115364312e+00 1.7517460992501146e+01 3.4986035094753802e+00 0 -2 0
636 1 8.5864393273581623e+00 1.9272383688832939e+01 5.4876248267697667e+00 -1 -2 1
2969 1 1.2859446793573817e+01 1.9525028750903061e+01 6.5466760512870072e+00 3 -1 0
349 1 1.3280940899826982e+01 1.8180445906532682e+01 4.2952598497948165e+00 -1 0 2
1478 1 1.5730504618314347e+01 1.6866469692059173e+01 4.8711441736767043e+00 -1 0 2
544 1 1.7828721501197769e+01 1.8775069484606480e+01 4.8922123304739538e+00 -2 -1 -1
1330 1 2.1539375803737475e+01 1.7018539146683665e+01 3.8065521163151432e+00 1 2 0
2463 1 1.9700160743049018e+01 1.7040616510082828e+01 5.9081396579967498e+00 -2 2 -1
162 1 4.3741772731889546e+00 2.1760552481016596e+01 4.2080453497349550e+00 1 1 0
3217 1 8.7125287318214006e+00 2.1782041226493373e+01 4.8931022230975101e+00 2 0 -1
1980 1 1.1001268263932218e+01 2.2147098715598464e+01 3.4242750777075099e+00 1 -1 0
211 1 1.3090503988994618e+01 2.1882335986139907e+01 5.2748457838925740e+00 1 1 1
3630 1 1.5726880233049048e+01 2.2265793099055870e+01 4.6838805548732836e+00 0 0 1
811 1 1.7541692242064371e+01 2.1124181321959238e+01 6.4963188070912903e+00 0 -2 1
1966 1 1.9588486373367243e+01 2.2879171836581452e+01 6.7527594648015157e+00 1 1 1
2083 1 2.3224592720230085e+01 2.0366050832590982e+01 5.9060418930488234e+00 2 -1 0
1892 1 1.2435480095658830e+01 4.6175846272044496e-01 5.3326203805994083e+00 0 0 1
1103 1 3.7969529465661784e+00 2.3183961322778220e+01 6.5848470210171799e+00 0 1 0
3146 1 9.0010883235862493e-01 1.4318697748364773e+01 1.2691959414381454e+01 -1 2 -1
2721 1 1.9112227935494186e+01 2.3997099160577079e+01 4.4202028101121904e+00 -1 -1 2
686 1 1.6480949013216634e+01 2.4832248776567777e+01 4.1884495380037601e+00 1 -2 0
3427 1 2.2321521824843913e+01 2.2798675902691652e+01 7.0082617352365810e+00 -1 1 -1
2845 1 2.3423147913274381e+01 2.5183562407005905e+01 6.1487857884195121e+00 0 -3 1
1360 1 1.8021249068622760e+00 2.9171336426260477e+00 9.1048666677283165e+00 1 0 1
707 1 5.6315805797375305e+00 1.7280536059305109e+00 7.4988691823449329e+00 0 0 0
1848 1 4.2322127160345486e+00 1.6471317964136469e+00 9.7933778943692005e+00 2 0 1
3092 1 8.5538350603474456e+00 2.1142758143693707e+00 7.3576036010987229e+00 1 2 1
3081 1 9.8373810406355204e+00 2.9040252633553769e+00 9.4428719681228763e+00 1 0 -1
2190 1 1.1923013066952313e+01 1.0034793746330215e+00 9.8299804225166607e+00 2 -2 1
2139 1 1.3490450328114028e+01 5.2735576780138271e-01 7.6482449388478164e+00 -1 -1 -1
2664 1 1.4437896154919111e+01 2.9144681414711155e+00 7.4704494129025374e+00 0 -1 1
3807 1 1.7855902668649062e+01 1.5173918393208363e+00 9.9722298317198099e+00 1 -1 1
2180 1 1.9630483548382252e+01 2.0558206945573874e+00 8.3241312900245266e+00 0 -2 0
1056 1 2.1582699749628169e+01 4.9492827100517983e-01 8.5378711460514598e+00 -3 3 0
530 1 2.0242207597982222e+00 4.1318913016185022e+00 6.8203725393115242e+00 0 0 0
1644 1 4.3094457926982779e+00 5.2064710403055123e+00 7.4348939812679502e+00 -1 0 0
229 1 6.5828021464403950e+00 4.5828331713737693e+00 8.4079952211321256e+00 0 1 2
2783 1 8.3106219948888000e+00 6.6326432013710193e+00 9.0399143335985119e+00 1 0 0
1094 1 1.2554655094913329e+01 5.0361815755847150e+00 7.1504358967237254e+00 -1 -2 0
906 1 1.0972134288464369e+01 5.4290192595269300e+00 9.4794735691369851e+00 1 -2 0
625 1 1.5395072619542679e+01 3.2629922244898948e+00 9.8800424818655017e+00 0 0 1
638 1 1.6413921572648125e+01 5.7999286368581293e+00 9.9415390452415426e+00 2 1 2
989 1 2.0279774960005312e+01 4.7876080627016471e+00 8.3981975989772852e+00 -1 1 1
1074 1 2.4178947292268063e+01 3.4780458004761998e+00 6.0903707522161312e+00 1 -1 -1
2453 1 4.4270914269701365e+00 2.2733776860219425e+01 1.6641367569512198e+01 1 0 2
38 1 3.5202002993891313e+00 6.1731244594459405e+00 9.8096085103137796e+00 1 -1 -1
92 1 2.0783716113283472e+00 8.2266565628001818e+00 9.1465344150133614e+00 2 1 1
3845 1 7.2996339947355988e+00 8.8371908941959809e+00 1.0265205650232346e+01 0 0 1
2110 1 1.1078641980358872e+01 9.0785379302088440e+00 6.5657557112187819e+00 3 1 2
97 1 1.3416875626384840e+01 7.6801459367863476e+00 7.2316671308896998e+00 -1 0 0
3042 1 1.4355733824766359e+01 7.4429713829616979e+00 9.7277392851079920e+00 -1 0 3
265 1 1.8156543667389254e+01 6.2588228608545684e+00 8.2491298037949736e+00 0 -1 1
1104 1 1.9055593261972682e+01 8.9819662190149163e+00 8.3043227670295838e+00 0 1 -1
977 1 2.4019401292145343e+01 8.2445354566313469e+00 8.6565423369994345e+00 1 -1 1
2830 1 3.9115358102697444e+00 1.1546548044664435e+01 7.3497785822951682e+00 -1 0 1
3551 1 6.1864075295219614e+00 9.8969120601099689e+00 7.9309544584227325e+00 3 1 3
375 1 8.2044571007947678e+00 1.1697099905304968e+01 8.1579613509404361e+00 -2 -1 -1
2445 1 1.0705297239093282e+01 1.1047308773025790e+01 8.5286108447466074e+00 4 -2 0
1757 1 1.5994159767756029e+01 1.2268743151221308e+01 9.7733109055676941e+00 -1 -2 1
2703 1 1.7438011629130813e+01 1.1080693658140449e+01 7.4438469308229527e+00 -1 -3 -1
2773 1 2.2379027547750091e+01 1.2549400744011786e+01 8.7822933628407789e+00 -1 0 0
2856 1 2.2624043581623742e+01 1.0033804524202813e+01 1.0332684446490450e+01 -1 -1 -1
1791 1 1.7794615895661405e+00 1.6035318954571490e+01 7.2382316725289808e+00 3 0 0
917 1 3.6882398008735637e+00 1.3103833032348016e+01 9.6623685885776229e+00 2 -3 1
1318 1 3.7518975000736030e+00 1.5576269741901626e+01 8.9748103739345026e+00 1 -1 1
1898 1 6.2567384789833049e+00 1.6475837354279104e+01 7.9761241087324297e+00 0 0 1
2719 1 8.0954298971967447e+00 1.5736884476284587e+01 9.6741523530877398e+00 1 0 0
140 1 1.2537186031896386e+01 1.5716115483277278e+01 9.8744608531469051e+00 0 0 -2
2672 1 1.4292197615572707e+01 1.4161659660061760e+01 8.6981407762813916e+00 1 -2 -1
984 1 1.8383367027014817e+01 1.5353671401454749e+01 7.6283382804225353e+00 0 1 1
421 1 1.9156858233956996e+01 1.5493512445880830e+01 1.0323566238258223e+01 -1 1 -2
3474 1 2.1719943425319585e+01 1.5064994793620546e+01 9.8593192270701184e+00 0 1 1
3863 1 2.5026633442653011e+01 1.3353328721776837e+01 8.0522989774397615e+00 -1 1 -1
3317 1 1.0482314304271444e+01 1.6075676209202555e+01 8.1395263121038628e+00 1 2 -1
3991 1 1.0393362500769429e+01 1.8823899511834906e+01 7.3882822585045327e+00 0 0 -2
813 1 1.5874418873939931e+01 1.5947468058126598e+01 7.3810056386642815e+00 -1 0 3
1743 1 1.4818402618370452e+01 1.8202109676311192e+01 8.2681371428352826e+00 0 1 1
1426 1 2.1270822300147273e+01 1.8985125084440156e+01 7.2595036631993297e+00 0 0 -1
3725 1 2.2954900745551623e+01 1.7121694005173875e+01 8.5388031169100653e+00 0 -2 0
2971 1 1.4909922632139603e+00 2.0024555304258371e+01 8.3413425322718400e+00 2 0 3
2219 1 5.7808802938742572e+00 2.0460739354520779e+01 9.3534282592271278e+00 -1 -1 2
2804 1 9.9401304159835711e+00 2.0581647661698256e+01 9.5154316120317990e+00 0 -1 -2
3371 1 1.6108102715648986e+01 2.0344705671029963e+01 8.5453678355360818e+00 1 1 -1
2929 1 1.4667203740277538e+01 2.2664904827231926e+01 9.3913173616701506e+00 1 -1 1
1853 1 1.7971880149510227e+01 2.0177230306699400e+01 1.0494571407685726e+01 -1 -1 2
2996 1 2.0209722389971777e+01 2.1001707559077097e+01 9.1749220961769229e+00 2 1 0
1661 1 1.4093249096203351e+00 2.2566467233787115e+01 7.5661184848185208e+00 0 -2 2
1237 1 1.0863010391450159e+00 2.4195947407398574e+01 9.8141296582152275e+00 0 1 1
1592 1 6.0911099911534121e+00 2.2803552925529708e+01 8.3117720493603979e+00 0 -2 -1
3693 1 8.5460075423974882e+00 2.3486233446107928e+01 7.0295686796733410e+00 -1 -1 0
2300 1 1.0518022683085789e+01 2.3039852960226703e+01 8.8024180965841481e+00 3 -2 0
4093 1 1.2741687308689217e+01 2.3284815527979738e+01 7.5857262840108701e+00 0 -1 -1
1904 1 1.6167244334687105e+01 2.4815743112572271e+01 8.5782490528966857e+00 -2 0 1
823 1 1.8730807421476275e+01 2.4336526211623717e+01 8.7385835344011529e+00 1 1 0
1759 1 2.3577437719572053e+01 2.2991512571500596e+01 9.5441230207913765e+00 1 2 3
1465 1 1.6181450193873594e+01 1.6048988201390841e+01 1.0134567207924468e+00 -1 1 0
2684 1 1.9964885439225395e+00 6.4770398083246861e-01 1.3569142395837874e+01 3 -2 -1
2327 1 8.3311235051306749e+00 2.7285554137705867e+00 1.1638159080567844e+01 1 -2 -1
1389 1 1.5024177519071975e+01 6.3378591358360481e-01 1.3322254193970563e+01 0 0 1
843 1 1.3804977326189366e+01 2.1176500342132063e+00 1.1388756030995490e+01 1 2 1
3756 1 1.9232424231787185e+01 1.3254904667063614e+00 1.2336701517883828e+01 0 1 -1
2949 1 1.7395734551599983e+01 1.8954345611153753e+00 1.4000736644410566e+01 0 1 2
3824 1 2.1833061344479400e+01 2.8888733577107639e+00 1.2305859285263846e+01 2 1 1
130 1 2.1531755694165827e+01 1.3904215586344588e+01 1.6950695154691076e+01 0 0 0
3710 1 2.2957722727844402e+01 9.9290625672398747e-01 1.0723146113702006e+01 2 1 2
2292 1 2.4493350193051389e+00 3.5767536644903379e+00 1.3674750328767672e+01 -2 -2 1
3936 1 1.9712286144236884e+00 4.5707809377738835e+00 1.1275588241556937e+01 1 2 2
794 1 5.8235412085521947e+00 3.4446320951023295e+00 1.0890115674673646e+01 1 0 0
885 1 5.2955718596283763e+00 4.0706359033161350e+00 1.3487378995807971e+01 -2 2 3
3161 1 1.2675878210400171e+01 6.3143248340568032e+00 1.1435072545111185e+01 2 2 0
1965 1 9.7083769370587643e+00 4.0414821588030172e+00 1.3686248184556185e+01 1 1 1
2617 1 1.3787888536318334e+01 4.4301908207564207e+00 1.3056421699592770e+01 2 2 1
2090 1 1.6487052673988892e+01 4.7302578784242533e+00 1.3615833150486809e+01 1 2 -1
2050 1 2.1242850536531307e+01 5.3485793479666981e+00 1.0976458790830256e+01 0 0 -1
1638 1 2.4107026983908970e+01 6.1075987490263488e+00 9.9225448634931155e+00 -2 1 -2
655 1 3.7203602696053961e-01 1.9251130473965834e+01 4.5445784608505058e-01 1 1 -1
842 1 5.1639795710161875e+00 7.6795814219081198e+00 1.1428600755734106e+01 -1 -2 0
466 1 4.2768960055842236e+00 9.9731229649442934e+00 1.2311765277464504e+01 2 -2 0
3592 1 8.6963434156756829e+00 8.7979317895959657e+00 1.2601418812620789e+01 -1 2 1
1164 1 1.1723013694822500e+01 8.8876817912031409e+00 1.2727007760041809e+01 -2 1 -1
658 1 1.5692987526172717e+01 8.7869603698300782e+00 1.3517207038878745e+01 -1 1 1
1060 1 1.7515894584218920e+01 6.7967277046080161e+00 1.2216890662141630e+01 0 -1 0
3353 1 2.0245104068571653e+01 7.2593553714637560e+00 1.2338341077407007e+01 -1 1 -1
2194 1 1.8319461580981569e+00 9.9844773641739337e+00 1.1116876349553072e+01 1 -2 -2
3228 1 1.2606048478708374e+00 1.2519241978905587e+01 1.0679446975888533e+01 0 0 0
18 1 5.6343199333588592e+00 1.2436276852889616e+01 1.1644409004965551e+01 0 2 -2
3339 1 1.2078589397597320e+01 1.0830589390125219e+01 1.1051876478181930e+01 1 -1 2
2620 1 1.5037933584480628e+01 9.9150937773722330e+00 1.0972211977779288e+01 0 0 -1
3344 1 1.8919117117444564e+01 1.1558343314464125e+01 1.2747952484214236e+01 -1 0 -1
3803 1 2.0080072938561845e+01 9.5563246125605854e+00 1.1081095605192100e+01 -2 -1 3
1271 1 2.3779529762635665e+01 1.0459562516332934e+01 1.2833209450671268e+01 0 2 -1
3798 1 2.4360035639864066e+01 1.3003941346437841e+01 1.2415181192005353e+01 0 -1 1
3537 1 2.4968344425942732e-01 2.5117598046323181e+01 1.0291239883882158e-01 0 3 0
2872 1 5.2773442540781694e+00 1.4343363569893606e+01 1.3916227408550304e+01 1 -3 -1
3024 1 7.8600537813476494e+00 1.3034187792884451e+01 1.0390256611122469e+01 0 -1 0
2678 1 9.4777816025676582e+00 1.3410564250284047e+01 1.2674950325114294e+01 1 1 0
3644 1 1.1879087920247400e+01 1.3492902315445480e+01 1.1971973573153210e+01 -1 1 2
521 1 1.7629759885875682e+01 1.3575566357294163e+01 1.1621267584122684e+01 -1 0 2
3652 1 2.2190475116312069e+01 1.4207095131077269e+01 1.2388412474596681e+01 0 0 -2
1535 1 8.6434902404405967e-01 1.6711077184932261e+01 1.2062281980071026e+01 0 0 -2
2429 1 3.5902804794725744e+00 1.6989813688678758e+01 1.1242614290736057e+01 1 1 0
4038 1 5.7343420391747753e+00 1.6843197521744120e+01 1.3224995376601493e+01 1 0 -2
3732 1 8.0564626286432617e+00 1.7012666776796948e+01 1.1857548640237152e+01 -2 2 1
306 1 1.0375266599083615e+01 1.9034236785922598e+01 1.3456504316207937e+01 1 -1 1
3920 1 1.3738354234578654e+01 1.7801988015350652e+01 1.0736287854058276e+01 -1 0 0
2254 1 1.5854259590349743e+01 1.7391801052629866e+01 1.2629599187815604e+01 0 -1 -3
1332 1 1.8340757121489979e+01 1.7647653078719244e+01 1.1642528862280550e+01 0 1 2
558 1 2.4563610871680915e+01 1.8323912436464891e+01 1.0281600742910685e+01 0 0 0
2695 1 2.3752799409192821e+01 1.8798774683391713e+01 1.2900084280284380e+01 1 1 -1
2165 1 2.9941161497377751e+00 2.1276698901579568e+01 1.2536741665124532e+01 2 -1 0
312 1 3.4080947185008035e+00 1.9733507782014925e+01 1.0356846200889859e+01 2 -1 -2
2199 1 7.7132430823391349e+00 1.9995085592888856e+01 1.1281810473668282e+01 1 -2 -1
1274 1 7.2214032695463635e+00 2.1641271121075661e+01 1.3332405699221008e+01 1 0 -1
1002 1 1.1839451685822148e+01 1.9504626495186475e+01 1.1332343947429232e+01 0 0 3
1806 1 1.3379789689670433e+01 2.1864453065371293e+01 1.1596091708636417e+01 1 0 -1
1349 1 1.5183523113043210e+01 2.1659421000716442e+01 1.3526481180588073e+01 1 2 -1
3440 1 1.7680108249840327e+01 2.1740944130069209e+01 1.2588365498775293e+01 1 1 1
2643 1 2.2276888406570347e+01 2.1116617618136551e+01 1.3238806347986566e+01 2 1 1
1435 1 2.1585775309192055e+01 2.2436255054017526e+01 1.0860095960862258e+01 0 0 0
1281 1 1.4560234619989016e+01 7.1243068512708527e+00 1.6950599065204059e+01 0 0 1
384 1 3.2356682948801083e+00 2.3758895039815862e+01 1.1669550206376702e+01 -2 -1 -1
382 1 5.5147694661116349e+00 2.4471664209048555e+01 1.0263961363612816e+01 1 0 1
2432 1 7.3017389361777818e+00 2.4148829721106662e+01 1.2292899713099224e+01 2 0 2
2034 1 9.8582480525390217e+00 2.4456617227609858e+01 1.1057465838426205e+01 2 -1 -2
443 1 1.1794905409784244e+01 2.3981702922650566e+01 1.2823274356192568e+01 0 0 1
2747 1 1.9269644648279368e+01 2.3792161547695198e+01 1.1380144309179027e+01 1 0 0
1425 1 6.2719480558653578e+00 2.4414111998699011e+00 1.5058186163409976e+01 -3 3 -1
929 1 8.7639394422386747e+00 2.2437176204502851e+00 1.5582239026634552e+01 2 1 -2
1144 1 1.2296186215679038e+01 3.3170617652512058e+00 1.4790645629662016e+01 0 2 1
1448 1 1.0515442689441906e+01 2.3295460203516090e+01 1.5146358708365170e+01 -2 0 1
201 1 1.3072508587343387e+01 7.0738179439434246e-01 1.4999502918562797e+01 1 1 -2
2336 1 1.8457100685013490e+01 1.6270921709689135e+00 1.6563746000975620e+01 3 0 1
305 1 2.0655394026371795e+01 8.6584003770126372e-01 1.5956260294700080e+01 -3 1 0
870 1 2.2416390990217021e+01 2.8691202013643609e+00 1.4940281535848305e+01 1 -1 -1
1689 1 2.4823238993962342e+01 1.5719054121006450e+00 1.5211939510684124e+01 1 -1 2
3181 1 4.0794105523444552e-01 2.5062361505777751e+01 1.5020264245998375e+01 0 2 -1
3492 1 1.1795163824188861e+00 4.6404805677399237e+00 1.5788161088992769e+01 2 3 1
598 1 8.9256702037843265e+00 6.7563885324807522e+00 1.3885145573764875e+01 -1 -1 0
2887 1 1.9555451649413300e+01 2.0413175525164458e+01 1.4163755516884903e+01 1 -1 0
3089 1 1.7060562297340162e+01 6.2885161123900382e+00 1.5746119702528132e+01 2 0 -1
3615 1 2.2339214877706663e+01 5.3170230337114051e+00 1.6267841000025090e+01 1 3 0
2038 1 2.5339026979315953e+01 3.9512155419177453e+00 8.7559572558279690e+00 0 -1 1
1907 1 6.0249075360585262e+00 6.5348199764601915e+00 1.3691428089941843e+01 -1 2 2
3416 1 4.5146120291928673e+00 7.7078745348550086e+00 1.5451530888738411e+01 1 1 -2
639 1 9.3432692087119378e+00 7.3886705521791498e+00 1.6319744337985227e+01 1 0 2
3043 1 1.3549981985583276e+01 9.0792513869891458e+00 1.5084141418351207e+01 1 -1 1
549 1 1.6695082887626828e+01 1.8986073381703839e+01 1.6699200557992050e+01 1 2 0
1090 1 1.9043443985015529e+01 8.4584706284292750e+00 1.6083919930049703e+01 -1 3 -2
3363 1 2.1493321360968562e+01 7.6755528404932569e+00 1.4831968940948400e+01 0 -2 0
3617 1 2.0258699801965889e+00 1.1602848621251518e+01 1.5612171580770958e+01 -2 3 0
2214 1 4.4024129693839198e+00 1.0269775096074181e+01 1.5041639982569992e+01 1 0 0
2800 1 6.4631140627267740e+00 1.1719470021421053e+01 1.5383382632174097e+01 -1 1 3
2883 1 8.9748969872974236e+00 1.1133069310335843e+01 1.4238314114740756e+01 1 1 0
767 1 1.0773947108796165e+01 9.6509629837787170e+00 1.6195296565389942e+01 -1 2 -1
1820 1 1.3677283813909090e+01 1.1899589994616209e+01 1.5984117537335099e+01 -1 1 0
3239 1 1.7728803343587753e+01 1.0478474789177090e+01 1.4904763837260097e+01 1 0 -2
143 1 1.6802546635160990e+01 1.2687889842974020e+01 1.5686495167213591e+01 1 0 -1
2923 1 2.0910043770299392e+01 1.2959052923090235e+01 1.4312566782076850e+01 0 0 0
3752 1 2.2211882753964947e+01 1.0427531102304208e+01 1.4937237865403977e+01 0 1 0
1049 1 2.4363515375422317e+01 2.5264520522279824e+01 1.4829708732735443e+00 0 -1 1
765 1 5.1107041759555227e-01 1.2920179013200718e+01 3.1339594038015178e-01 2 1 1
2819 1 2.6677902044997412e+00 1.3891379857487559e+01 1.4927636199249777e+01 0 0 0
3540 1 6.2055273283797341e+00 1.4313064712102264e+01 1.6531783751354993e+01 3 1 1
3514 1 8.5482251985299609e+00 1.5900292104701503e+01 1.6207067477024740e+01 0 2 1
3395 1 9.9498294480723466e+00 1.6154140977924925e+01 1.4038559997060640e+01 0 0 0
1350 1 1.2661103446193689e+01 1.5889951481877278e+01 1.5601596029425179e+01 2 0 1
3509 1 1.3822750643135128e+01 1.3640718379190858e+01 1.3891490019166401e+01 0 0 0
2908 1 1.6278784424307979e+01 1.4823017329579431e+01 1.3586874556887620e+01 2 0 2
2756 1 3.3957004289775665e+00 5.4866946722835594e+00 1.6979803625816920e+01 1 2 2
2039 1 3.0235235064142230e+00 2.1128601347418585e+00 6.2851044419247926e-01 2 2 1
4046 1 2.3526635562336804e+01 1.5443572029358334e+01 1.5840452600779010e+01 3 1 2
1462 1 3.4856305992644609e-01 1.1430463436442398e+01 2.4511274567486927e+00 2 1 1
1407 1 2.4567076529978786e+00 1.8163734073345871e+01 1.6237479065327548e+01 0 0 -2
591 1 4.8070863439409868e+00 1.8419413245075333e+01 1.5043018435253890e+01 3 -1 2
2135 1 8.7438899754226149e+00 2.4653619759764233e+01 1.6359566796365748e+01 2 -2 -2
3382 1 1.2684633596513642e+01 1.8455109524641244e+01 1.5065107727413849e+01 0 0 -2
2978 1 1.4965072815975400e+01 1.9152952884250325e+01 1.4437670378348617e+01 0 0 3
6 1 1.9713272315293633e+01 1.7856610940671686e+01 1.3937756958168105e+01 1 -1 -1
2777 1 1.7799828117356356e+01 1.6574928300447052e+01 1.5639704195734653e+01 1 0 2
438 1 2.5359330910704479e+01 2.2522188357027886e+01 1.6526553050284343e+00 -1 -1 1
2283 1 2.2218015836645566e+01 1.6702333246954787e+01 1.3613499192943340e+01 -1 1 0
1311 1 1.7645802070914261e+01 2.1486412805597173e+01 1.6069930792483149e+01 0 1 -2
214 1 4.7295406795950807e+00 2.1044614328170461e+01 1.4352807267422921e+01 0 0 1
1442 1 2.5340798630862221e+01 2.1044551681557547e+01 1.0150369060766886e+01 0 0 2
436 1 9.1410680040183347e+00 2.0931379117653126e+01 1.4791142773082859e+01 -1 0 1
2577 1 1.2647816880552096e+01 2.2665124906562529e+01 1.6658102270444530e+01 0 1 -2
2985 1 8.3117579639500718e+00 1.3888733830364883e-01 1.2737538958299192e+01 0 0 -1
1607 1 6.9668674810666698e+00 2.5660427178429604e+01 1.4612784078754494e+01 1 1 2
3771 1 9.3686097148689018e-01 6.9571217533720198e-01 1.4265949808534226e-01 3 1 2
709 1 7.8565921413070585e+00 2.0312888847609823e+01 1.6883471185565252e+01 1 1 0
1948 1 1.8556249131646027e+01 1.4471258086037333e+01 1.7042145498271871e+01 0 0 0
249 1 9.8969709467756282e+00 1.1759447821791397e-01 5.7626074609620836e+00 1 0 -1
1114 1 1.6519968554804620e-01 1.7554285186314658e+01 2.6223504883908109e+00 0 1 1
2419 1 2.5602475145473466e+01 1.1537734741266728e+01 1.6282449384870791e+01 2 0 3
4071 1 2.4289612733375601e-01 1.2742873485555767e+01 4.7107445819552751e+00 2 1 0
3554 1 1.2140247991249323e+01 2.0031836744990876e+01 1.6815219931998161e+01 1 1 0
531 1 2.5070066310924915e+01 6.0436085205170862e+00 1.7094573648164108e+01 2 1 -1
3496 1 6.6683539355140562e+00 8.0733183409600180e+00 1.7024402477014274e+01 1 0 -1