LAMMPS data file via write_data, version 7 Aug 2019, timestep = 200000

4098 atoms
1 atom types

2.6861580756603942e-01 5.1151384192432026e+01 xlo xhi
2.6861580756603942e-01 5.1151384192432026e+01 ylo yhi
2.6861580756603942e-01 5.1151384192432026e+01 zlo zhi

Masses

1 18.15

Atoms # atomic

1278 1 5.9143682647376261e+00 1.8397512937415448e+00 4.1298670831705309e+00 0 1 0
229 1 1.1923093057249082e+01 3.5584946254380605e+00 2.2989810133875768e+00 0 0 0
1584 1 1.5074312393011704e+01 2.0581563380811856e+00 6.1508089947586697e-01 0 1 1
3634 1 2.4906253213697042e+01 1.7028155747091620e+01 1.2740396775549984e+01 0 1 0
402 1 1.1577756521060270e+01 1.6161994330092178e+01 4.6426255044875286e-01 0 0 1
2782 1 1.6443193252237396e+01 5.2013424696255883e-01 9.6014570544296323e+00 1 0 0
3184 1 3.3735997854643278e+00 3.9256648429113428e+00 1.5270941695062379e+00 0 1 0
438 1 2.8634267637806277e+00 1.9113873638857928e+01 6.2535413618709057e-01 0 0 0
936 1 8.1438188389132158e+00 4.7048253207715369e+00 1.0988069925503923e+00 0 0 1
2015 1 1.1709828701836045e+01 6.9173117369178163e+00 3.8565659939389492e+00 0 1 1
88 1 1.7846980617912418e+01 5.2750757728113173e+00 7.0692084259032473e-01 0 0 0
3013 1 1.4293025182454031e+01 4.9297843614824597e+00 1.1314825318294803e+00 1 0 1
1268 1 2.4493557672980550e+01 2.4889662962225167e+01 1.0702287289441680e+01 0 0 0
820 1 1.0010829914125967e+01 2.4617667298673904e+01 1.1053891074734526e+01 0 0 1
2250 1 2.0598003792699568e+01 2.8587340013284739e+00 2.4564037799769247e+00 0 0 0
1294 1 2.1774597935011823e+01 5.5643677735907273e+00 2.3897177994233374e+00 0 1 1
3578 1 4.3136465341496404e+00 1.2595961111618033e+00 1.4136254350742931e+01 1 0 0
2149 1 1.0126079729182733e+01 2.5561937705021091e+01 1.4418522203146547e+00 0 0 0
3960 1 3.4102672638070630e+00 7.7220602919241852e+00 3.7888685951595096e+00 1 0 1
1175 1 6.0802973573192007e+00 8.8984324113237108e+00 2.4464767182936074e+00 0 0 0
2685 1 1.2386607271374707e+01 5.8321857594902182e-01 1.0230213129429375e+01 1 1 0
3461 1 1.7402502322616357e+01 9.3704589346438887e+00 2.5522909697101590e+00 0 1 1
928 1 2.1594138321911302e+01 9.9383555776167967e+00 1.5872294235409088e+00 0 0 1
2758 1 2.3513160027563249e+01 8.2565594058954765e+00 1.9128589887425935e+00 0 0 1
2593 1 1.1117933244748093e+00 1.2692672362317422e+01 1.4484106812874657e+01 1 0 0
113 1 1.9657178062195353e+01 1.8443580830291946e+01 4.2102543503323908e-01 -1 0 0
1190 1 1.9636287274637076e+00 1.9835304246971928e+00 4.8692813821722121e+00 0 1 0
846 1 1.3247632605548972e+01 2.5635390496160927e+01 1.3577075778810219e+01 0 0 1
1138 1 1.5670369065989926e+01 3.9585768969911089e-01 1.3667492541155388e+01 0 1 0
855 1 9.0675731100022716e+00 9.3437482722706822e+00 2.2466869198088379e+00 0 0 1
3605 1 1.0070823276938990e+01 6.6687855388250679e+00 1.9146003975168056e+00 1 1 1
1938 1 1.3825548390154925e+01 9.1556895527849917e+00 3.4676008889302499e+00 0 0 1
849 1 2.5505765386715542e+01 6.1138838966542446e+00 1.0288332394980902e+01 0 0 1
1915 1 1.7214195033108464e+01 1.2385662669371035e+01 2.7488185349085321e+00 0 0 1
4042 1 2.4164228895941775e+01 6.6815821523814334e+00 5.9316663547166595e+00 0 1 1
1979 1 2.2542158649498106e+01 1.2498909571831710e+01 1.6053421691195482e+00 0 1 1
2755 1 2.8718190060786997e+00 2.2731444515597357e+01 5.1732812788237914e-01 1 0 0
2092 1 1.3511362375677063e+01 2.5366082726057169e+01 6.4381207721605564e+00 0 0 0
546 1 1.6599812088387271e+01 1.8125878987473087e+00 1.5551724462886181e+01 0 0 0
230 1 1.0609843084193102e+01 2.3494840565511961e+01 1.6002533440137576e+01 0 0 0
50 1 2.5493239904948460e+01 9.4790821015348232e+00 1.5631520755959018e+01 0 0 1
1228 1 9.5396773099789307e+00 1.1203050951430113e+01 4.1895214748335681e+00 0 0 0
2069 1 1.1340563044545167e+01 1.2885977182682867e+01 2.4482273906616707e+00 1 0 0
2608 1 9.8975938060295672e+00 1.9092211815113540e+01 1.6370698889967073e+01 1 0 0
152 1 1.5924783425399738e+01 1.5021675290025200e+01 6.2694220956683755e-01 0 0 0
3030 1 2.1097369420340399e+01 1.7806392432366454e+01 1.5527094943398792e+01 0 0 1
538 1 2.2612129951179188e+01 2.4677584819668500e+01 1.8288532677399112e+00 0 0 0
999 1 1.6580402365499676e+01 2.5390415129681344e+01 7.2521670008219576e+00 0 0 1
2037 1 1.3872854161861602e+01 8.5130439034079011e+00 6.8928811804701540e-01 0 1 1
1917 1 6.4074039276693195e+00 2.5466568327674757e+01 7.6429215223399014e+00 0 0 1
2435 1 1.1798338491378610e+01 1.5309547767155859e+01 3.4610563775118899e+00 1 0 0
1830 1 1.2279358043751159e+01 1.8346875535802916e+01 1.8785302279113389e+00 0 1 1
701 1 1.6453619780489579e+01 1.6541064173333396e+01 2.9590467433202723e+00 0 0 1
127 1 3.4775180555331691e+00 1.5518897932351258e+01 1.6433158117230530e+01 0 0 0
1616 1 1.3434102646221835e+00 1.6511697794805140e+00 1.4272829363748496e+01 0 0 0
311 1 2.4428737130296394e+01 1.9480798378137102e+01 2.7806277605658307e+00 0 0 0
4088 1 3.6808995494763019e+00 2.2615813488877318e+01 3.8906673676010115e+00 0 0 0
1043 1 6.4375515143467936e+00 2.0625723129239095e+01 4.2460340044498199e+00 0 0 0
905 1 8.9553100681368409e+00 2.3328518646220498e+01 2.8414625872083370e+00 0 0 1
845 1 1.3208891346989390e+01 2.2279179506272332e+01 3.6300775771638185e+00 0 0 1
3736 1 1.0780039345889209e+01 2.1197553292798215e+01 2.5223929027426824e+00 1 0 1
639 1 1.7717407785650352e+01 1.8835300445373083e+01 2.3786774263520871e+00 0 0 1
3004 1 1.6558264285445791e+01 2.1324578937053698e+01 2.5754476502746639e+00 0 0 1
2006 1 2.1038777877021818e+01 2.2774791628458843e+01 2.7709217359033569e+00 -1 0 1
1381 1 2.1287640101209664e+01 1.9832142221947670e+01 2.8468276156344730e+00 0 0 0
984 1 8.7251647112219928e+00 1.6523585852837201e+01 1.1512128898125695e+00 0 0 1
1333 1 2.1966391119052133e+00 2.4753197659963796e+01 6.2977517572416577e+00 0 0 0
2669 1 1.9548480197971461e+01 1.3435410221121955e+00 1.5652558647570718e+01 0 0 1
1402 1 1.1140297577489449e+00 1.2467949229313840e+01 4.5659153857169912e+00 0 1 0
863 1 1.8186298702197991e+01 2.4453104596491162e+01 1.2394757787080732e+01 0 0 1
42 1 1.9219824453048986e+00 2.3671544311925427e+01 1.2225126990842696e+01 0 0 0
1985 1 1.8580183500982603e+01 2.2681911443818230e+01 1.4524807768078221e+00 0 0 1
864 1 5.5264282085184178e+00 5.3849029966960904e-01 1.7751873925693822e+00 0 0 1
1039 1 2.0412171296793719e+01 1.3856201216326824e+01 3.3185950577541179e-01 0 0 0
1862 1 4.0773869599979982e+00 3.6459821598817865e+00 3.9152466642075150e+00 0 1 1
1922 1 1.5619981375843848e+01 2.4844046342613289e+01 1.1880811992707919e+01 0 0 1
2010 1 8.7195225483941243e+00 1.5996713188476324e+00 5.7702714284657057e+00 0 1 1
2719 1 8.4063765317272043e+00 2.8261791792609481e+00 8.6135132628728943e+00 1 0 1
1647 1 1.1568758410326552e+01 1.8059070935659349e+00 4.3017325717062072e+00 0 1 1
1289 1 1.3978028999868725e+01 2.0964431721774792e+00 6.0441255834440799e+00 0 1 0
1955 1 1.8217051813852724e+01 2.6848715563952812e+00 4.0506071024377652e+00 0 1 1
2945 1 1.9807938680660055e+01 1.7652764490591855e+00 6.4121104171950059e+00 0 0 1
400 1 1.4659874893463781e+01 2.4848917644852371e+01 4.1105222402963921e+00 0 0 0
236 1 1.7035359289841912e+00 7.7469789079889271e+00 6.1398655133998536e+00 0 0 0
2228 1 8.1548666820286915e+00 4.1176411234718300e+00 3.8554051435850165e+00 1 0 0
1975 1 1.2424622352068264e+01 7.0931421554607805e+00 7.9943305884826472e+00 0 1 1
2084 1 1.4416756317247733e+01 5.4121821860429229e+00 4.3675802587550629e+00 0 0 0
3570 1 1.7721921997133357e+01 5.7566393235788489e+00 3.2945306153862353e+00 0 1 0
2315 1 2.1871757797309961e+01 1.6962111626170548e+00 4.9014117016894243e+00 0 0 0
3240 1 2.3390413177455752e+01 3.7235455576137841e+00 5.9958277648230212e+00 0 1 0
2154 1 2.7432487271643238e+00 2.2784251005292688e+01 1.4841670616277014e+01 1 0 0
454 1 2.3786842540855568e+00 1.0734130472474607e+01 2.4134346913722151e+00 1 0 0
725 1 7.0097081739994298e+00 6.7127696388518929e+00 4.4264516865209931e+00 0 1 0
2 1 1.0288497966715072e+01 6.7281336558178220e+00 9.9710500463457734e+00 0 0 1
3267 1 1.5400782677742207e+01 1.0330608726059587e+01 6.2471838408176223e+00 1 1 0
1002 1 1.6090059072580438e+01 7.6684412264347745e+00 4.7794081622457742e+00 0 0 1
847 1 1.8118382074196592e+01 9.4202850413883201e+00 6.5132342720447518e+00 0 0 1
809 1 2.0374663340609619e+01 6.3228133310271515e+00 4.2720645883117401e+00 0 0 1
2400 1 1.3023183075251297e+00 2.1548418401182399e+01 2.7902859724430815e+00 1 -1 0
2374 1 2.2806408201071648e+01 8.3711269764651810e+00 4.6559115387078940e+00 0 0 0
708 1 2.7258151412916680e+00 1.4502481401410114e+01 5.3711350912910323e+00 0 0 1
3147 1 4.8788566266602924e+00 1.0717865167234550e+01 4.2139026272543525e+00 1 1 0
280 1 1.1333391032312527e+01 8.4060635602900788e+00 5.6530049236478783e+00 0 0 0
2445 1 1.8390391174846599e+01 1.3105194962422097e+01 5.1520162430853640e+00 1 0 0
3444 1 2.2488351823816114e+01 1.3654144129049019e+01 4.1045066478960228e+00 0 0 0
3565 1 2.3677184600776378e+01 1.1025335807926533e+01 4.9058425868325335e+00 0 1 1
767 1 3.6446532835115395e+00 1.5313323273223087e+01 2.7084944529964790e+00 0 0 1
3372 1 6.3060592068778067e+00 1.4644580680765829e+01 3.0676414701668957e+00 1 1 0
3617 1 7.2241146093343724e+00 1.2502459376004570e+01 4.5291964731933252e+00 0 1 0
3596 1 1.4393022375080715e+01 1.1967456149600542e+01 3.7341456100573809e+00 1 0 1
3183 1 1.3357572725391542e+01 1.4027460796719273e+01 5.5523187731814980e+00 1 1 0
1608 1 1.6620763263037443e+01 1.2896556514717497e+01 7.2222110872641867e+00 0 0 0
887 1 1.8621445594014723e+01 1.5844323055238879e+01 4.4805046883758557e+00 0 0 1
41 1 2.1318069245922981e+01 1.6199251963451026e+01 3.7242532752002830e+00 0 0 0
3868 1 2.4586636739587124e+01 1.5255518614024057e+01 4.0804336693479701e+00 0 0 1
1485 1 1.8447824073091961e+00 1.6243522925254070e+00 1.1324996281997304e+00 0 1 0
2088 1 3.2220927755081470e+00 1.7789727071662185e+01 3.2321019929930186e+00 1 0 0
1972 1 3.6639167541061699e+00 1.9615973495482116e+01 6.6786654722044840e+00 0 1 1
344 1 5.4836985205568904e+00 1.8295136488449419e+01 4.8284369218931031e+00 0 0 0
773 1 9.8326699448072219e+00 1.7133852593728353e+01 4.0350039239369719e+00 0 0 1
161 1 8.5987652852495629e+00 1.9449398347160912e+01 2.6985628116919491e+00 0 0 0
1615 1 1.4043319563725449e+01 1.7868403912394694e+01 3.8263838334115587e+00 0 0 1
2186 1 1.3244880178307552e+01 1.7228570007624459e+01 6.3444467551995531e+00 0 0 0
4023 1 1.8962800814089732e+01 1.7533087997898051e+01 6.4513138283528617e+00 1 0 1
935 1 2.3260533104519080e+01 1.7905329286777956e+01 4.8342158900061820e+00 0 0 1
1797 1 1.0291382389137231e+00 2.1852747791326390e+01 7.7259049399961688e+00 0 0 1
1107 1 3.7587657247823838e+00 2.2464731534527481e+01 6.4508940888038566e+00 0 0 0
2695 1 6.1038847248427412e+00 2.2908982242322693e+01 7.6698939449208119e+00 1 0 0
4041 1 7.9797409597459499e+00 2.1655590318516044e+01 6.3176022045065281e+00 1 -1 1
3333 1 1.2160354229912526e+01 2.1097724691416669e+01 7.7847861432217362e+00 0 0 0
991 1 1.4796176675483503e+01 2.0422147308312745e+01 4.7646233241935665e+00 1 0 1
3011 1 1.4576657121334641e+01 1.9487453562983717e+01 7.6177634121938418e+00 1 0 1
2964 1 1.9115973820789318e+01 1.9874656717138286e+01 4.9188705758742026e+00 0 0 1
1417 1 1.7433083136107808e+01 2.1445545986575997e+01 6.2174505995373588e+00 0 0 1
2022 1 2.2025384832710021e+01 2.0256924985379548e+01 6.3826334412972487e+00 -1 1 1
3154 1 2.1638669313860539e+01 2.2756547100669636e+01 5.5503949343360404e+00 0 0 0
837 1 2.4662180484206704e+01 2.0657486150157009e+01 6.9465065070238063e+00 0 0 1
2128 1 2.5579367057692682e+01 2.2877655237728689e+00 6.9330979303976550e+00 0 0 0
17 1 9.8568436512633539e+00 2.3621618985491246e+01 5.4818134241391947e+00 0 0 0
1696 1 1.2229774072099811e+01 2.2887851859758566e+01 6.0153290378651327e+00 0 0 1
1095 1 1.6978024885443908e+01 2.3864992509363315e+01 4.9620190131653272e+00 0 1 0
2318 1 3.0980467698434828e+00 1.8532634389260611e+01 1.6286365128207461e+01 1 1 0
1658 1 7.6771751846626524e-01 6.4396622011420508e+00 1.3327886859927688e+01 0 1 0
1486 1 3.9886022485811528e+00 2.5084900988757902e+01 1.0849854709029676e+01 0 0 0
1220 1 2.4220128674994246e+01 2.3840834599049298e+01 5.1580749650010862e+00 0 0 0
1247 1 1.6121381579949579e+00 1.9923226466831747e+00 1.1740291737235236e+01 0 1 0
35 1 6.8389457764661294e+00 2.0452865991485356e+00 1.4834824752597115e+01 0 0 0
973 1 1.5616365903017453e+01 2.7288762278533629e+00 3.4062287283629020e+00 0 0 1
886 1 4.8576928394535956e+00 2.3845469537810517e+00 9.1164660909466306e+00 0 0 1
2291 1 2.3552340198397292e+00 3.0917553439026069e+00 7.5579047804992427e+00 1 0 0
2607 1 1.3110268236673379e+01 2.3953725861646735e+01 1.0111748915832683e+00 0 0 1
1069 1 1.7963413079711819e+00 6.4402715757955544e+00 1.9399071557922836e+00 0 1 0
805 1 1.1199455224176349e+01 3.1979788835220044e+00 9.1332239762818901e+00 0 0 1
3292 1 2.4807913162874502e+01 2.1131969670431697e+01 4.6270622191680122e-01 0 0 0
2120 1 2.5407895928427486e+01 1.2116123872281243e+01 1.5509312682066343e+01 0 0 0
3229 1 2.0457645374463961e+01 1.8045383243588633e+00 9.0559430444707960e+00 0 1 0
486 1 1.6376853035969337e+01 1.8353840435696263e+01 1.6695504663133189e+01 0 0 0
2368 1 1.4897896578978438e+01 2.0726024336626427e+01 1.6971591076961307e+01 0 0 0
3845 1 2.2544612000328396e+01 3.2948642681924873e+00 8.5473805677416959e+00 0 1 1
2829 1 4.7187363902101245e+00 5.7009651706494955e+00 5.2931901899980067e+00 1 0 1
437 1 5.2152309033200854e+00 5.2395762137087756e+00 8.0699110544129322e+00 0 0 0
629 1 1.2576147287201991e+01 4.4382476792737506e+00 7.0425414599028358e+00 0 0 1
1045 1 8.6548868059143107e+00 5.6200422233733880e+00 7.8010130576328969e+00 0 1 0
142 1 7.9690149986972818e+00 5.7087237134525521e+00 1.1706370311334579e+01 0 0 0
245 1 1.0299250579326079e+01 4.9553499084213968e+00 5.4360394585587315e+00 0 0 0
1570 1 1.5247407934848752e+01 4.2182357201551905e+00 8.4071210839446042e+00 0 0 1
2281 1 1.5673660941559277e+01 6.7807653299652548e+00 7.5168369933631336e+00 0 0 0
1956 1 1.8201798043305523e+01 4.1187556387102440e+00 6.9370212581846094e+00 0 1 1
918 1 2.0148294910796206e+01 5.7463607247890556e+00 7.1097582191393425e+00 0 0 1
4094 1 2.1803613652625323e+01 5.6377302127291280e+00 9.2178524853172608e+00 0 1 1
2413 1 2.7956065106290260e+00 9.7864827604155256e+00 7.8583153013570577e+00 0 0 0
502 1 5.1782207753175111e+00 1.1070786539015042e+01 7.1355561730003672e+00 0 0 0
1951 1 8.3944778393793396e+00 7.8508897967772588e+00 6.4854794496918569e+00 0 1 1
284 1 1.3021532492726577e+01 9.8001168966368351e+00 1.0371791368557808e+01 0 0 0
228 1 1.4945667488673344e+01 8.0008580558828886e+00 9.8862937796321564e+00 0 0 0
1967 1 1.8503442688551907e+01 7.6753564850630545e+00 8.2228668869369663e+00 0 1 1
3733 1 2.3511646236805859e+01 7.5333823089347582e+00 8.8984530818905547e+00 0 0 0
2845 1 4.7368572130449502e+00 1.3463158321374536e+01 7.0194914395901398e+00 1 0 1
2189 1 2.6818906224992696e+00 1.0304837928443565e+01 1.0570338937960484e+01 0 0 0
1371 1 1.1322640943854763e+01 1.2288792801868873e+01 6.6369603771957735e+00 0 1 0
1217 1 1.2927404299816949e+01 1.0348783868907104e+01 7.7215668040263292e+00 0 1 0
1016 1 2.0094193986309094e+01 1.0843721911051150e+01 8.1564439044439787e+00 0 0 1
3661 1 2.0865307455689269e+01 1.2691874153225497e+01 6.1868526654169589e+00 0 1 1
166 1 1.9672717683964912e+01 9.1407508364011854e+00 4.0456353020752083e+00 0 0 0
3124 1 1.9752675804091187e+01 1.4144402170183172e+01 1.0494732972272461e+01 0 1 0
2673 1 2.3440703459831635e+01 9.9259142144499801e+00 9.5605499947863404e+00 0 0 0
78 1 2.4286032139623394e+01 1.1675644471103260e+01 7.4504200192848788e+00 0 0 1
1041 1 3.7357190579055515e+00 1.4417256839253550e+01 9.2778441527698927e+00 0 0 0
3755 1 7.4365766139790788e+00 1.4393641589551947e+01 7.1302653031145393e+00 0 0 0
515 1 9.6314082114504984e+00 1.3421174054153841e+01 8.1497230867574153e+00 0 0 0
2904 1 1.0395444465791723e+01 1.5774602762888211e+01 9.1912530476064820e+00 0 0 1
2382 1 1.2849100381171777e+01 1.5050703477361402e+01 1.0020985333883566e+01 1 0 0
1881 1 1.5145578193870039e+01 1.5242661936786632e+01 8.1939719691625754e+00 0 1 1
1925 1 2.1331975032248344e+01 1.4389779454375370e+01 8.2578200503002570e+00 0 0 1
2354 1 2.4238402734709855e+01 1.4270436938051706e+01 8.7765160628270706e+00 0 0 0
993 1 2.4563988058140356e+00 1.6807032219140048e+01 9.7000956805277632e+00 0 0 1
19 1 4.9120699369950707e+00 1.8432476784989348e+01 8.7982029593069537e+00 1 0 0
1120 1 7.1573781828950489e+00 1.6939817286144145e+01 8.7453666115866984e+00 0 0 0
877 1 7.4068182360895118e+00 1.6534586447904825e+01 5.2886967833514449e+00 0 -1 1
292 1 1.0407286306890601e+01 1.7551780632350923e+01 7.0285891062471206e+00 0 0 0
3078 1 1.6560194474707927e+01 1.7605510599248920e+01 8.0839964883219917e+00 0 1 0
3083 1 2.1423369929433274e+01 1.6813290485520874e+01 7.1088401227986262e+00 0 0 0
2232 1 2.1442003194499367e+01 1.7941721599487742e+01 9.8731965122701766e+00 0 0 0
1987 1 2.5481951653839939e+01 1.6688824821918974e+01 1.7133405451822403e+00 0 0 1
2150 1 1.6500043106264545e+01 1.8993451847987028e+01 1.3825168807942578e+01 0 0 0
2590 1 2.1114371331390767e+00 2.1606226923476619e+01 1.0305132006570075e+01 1 0 1
2339 1 4.6158356230272757e+00 2.0327169411104840e+01 1.0885058458451171e+01 1 0 0
141 1 9.7221890868588243e+00 2.0738817087841362e+01 1.0531782994052401e+01 0 0 0
1425 1 9.5068918522347730e+00 1.9840660557384851e+01 7.6745870656227071e+00 0 1 0
2157 1 1.4938288627654789e+01 2.4346753125550119e+01 9.2918984818814518e+00 0 0 0
184 1 1.6212737060329747e+01 2.1548212044751736e+01 8.9852904815831334e+00 0 0 0
93 1 2.1074772948440732e+01 2.0859205359981640e+01 8.9358968751498562e+00 0 0 0
706 1 2.3501514216889408e+01 2.1543319505154901e+01 1.0795913422013896e+01 0 0 1
277 1 2.5084122049207046e+01 1.4627913377903392e+01 1.1438507560229926e+01 0 0 0
268 1 1.5897482476545166e+01 1.3238203317506890e+01 1.5257780551022030e+01 0 0 0
216 1 4.2838339101614209e-01 1.5678108790040454e+01 6.1260601724825916e+00 0 0 0
1832 1 1.2044869670780589e+01 2.3140353496904012e+01 9.8582496351220374e+00 0 0 1
3438 1 2.4423136227768666e+01 4.1321790038268329e+00 3.1699641058406280e+00 0 1 0
3957 1 1.9443959064481337e+01 2.3264794817872286e+01 7.5791846985752569e+00 0 0 1
3318 1 1.0084313663531967e+00 8.3700888665471673e+00 1.1177130478847092e+01 0 1 0
61 1 2.5314680667029265e+01 2.2699271656361585e+01 8.8359445304254507e+00 0 0 0
169 1 2.5103146742386375e+01 2.5329902162595705e+01 7.3020857073131786e+00 0 0 0
3423 1 5.2284897668312196e+00 2.3483939094105406e+01 1.4772716310602824e+01 0 0 0
3985 1 4.3629110320788653e+00 3.1468243932857516e+00 1.2238751268388739e+01 1 1 1
1789 1 7.0701879265051515e+00 3.1846752586567573e+00 1.1124217477189395e+01 0 1 0
33 1 8.6260844300867898e+00 1.8112772773954697e+00 1.2850492596225591e+01 0 0 0
350 1 1.0195450776332832e+01 4.2476228428735876e+00 1.3585236661876479e+01 0 0 0
2444 1 6.3189629300477161e+00 2.3168703782869759e+01 2.3360981058338739e+00 1 0 0
2916 1 2.1064445011195239e+01 1.5354791492112643e+00 1.2520812797362845e+01 0 0 0
2309 1 2.3507604073588979e+01 2.5677129325556169e+00 1.1442837178969150e+01 0 0 0
909 1 1.9076762551292998e+00 5.0591096869367780e+00 1.1080666388967991e+01 0 0 1
507 1 4.0760668254533021e+00 7.5163935087040565e+00 1.2281833336887622e+01 1 0 0
319 1 1.1582276653983815e+01 4.7233920857691070e+00 1.1125438228424217e+01 0 0 0
3403 1 1.5450072207266262e+01 3.8458071143662993e+00 1.1264614038453239e+01 0 1 0
417 1 1.3865986371827846e+01 6.1014369698847473e+00 1.1544191241217320e+01 0 1 0
322 1 1.7679097339701070e+01 2.8309535243463668e+00 9.6665262959544052e+00 0 0 0
1307 1 1.9204702218601597e+01 3.5540621588690722e+00 1.1955435969818222e+01 0 1 0
1285 1 2.0896391428786117e+01 5.7726737167166933e+00 1.1644866528723126e+01 0 0 0
797 1 2.2739817731380647e+01 4.8508919037642322e+00 1.3351347790532440e+01 0 0 1
71 1 2.0865012227987087e+01 1.6255114714730869e+01 1.2531554424386040e+00 0 0 0
2295 1 2.7098420053151600e+00 6.2131981172196626e+00 8.6503184934948134e+00 1 0 0
1902 1 7.1988490676517047e+00 9.3199109848346815e+00 8.4401346060681650e+00 0 1 1
1726 1 6.0842394126132060e+00 7.0658782852840556e+00 9.9468465559974515e+00 0 1 0
1296 1 1.0486009016293281e+01 9.1282200516825220e+00 1.1102019158251691e+01 0 1 0
1096 1 1.7365788152184400e+01 9.5824060312331465e+00 1.0570549997381715e+01 0 1 0
2119 1 1.9168524735248415e+01 9.9590558925541508e+00 1.4585355327792044e+01 0 0 0
923 1 1.9789914699597631e+01 8.3454864063020331e+00 1.2307205207083273e+01 0 0 1
217 1 1.5082044797189797e+01 2.2234756774018837e+01 3.4314588546994351e-01 0 0 0
2437 1 5.2821398467671790e+00 1.2768512704188904e+01 1.3542071926456613e+01 0 0 0
2583 1 7.6320671242184712e+00 1.2500283770180362e+01 1.1609450702776709e+01 1 0 0
2197 1 5.5239364178597388e+00 1.0220459004078908e+01 1.0822533690901784e+01 0 0 0
1029 1 9.0680011195536778e+00 1.0990828453682729e+01 9.4544066645603468e+00 0 0 0
7 1 1.2169433466939987e+01 1.2722236234310467e+01 1.1629782399920048e+01 0 0 0
1024 1 1.5038870134089793e+01 1.1115647268057002e+01 1.2287762779883424e+01 0 0 0
3364 1 2.0921098038901913e+01 1.0499064624745303e+01 1.0813767838322367e+01 0 0 0
2812 1 2.4138049255142157e+01 1.3081001761898497e+01 1.3301430193268192e+01 0 0 0
463 1 1.4522376638084502e+01 5.9092991616695167e+00 1.6102319969721030e+01 0 0 0
2532 1 1.6412546108281656e+00 1.5939065498446407e+01 1.2263415203084980e+01 1 0 0
1735 1 6.1891532933761324e+00 1.4773828236661869e+01 1.0317621358508452e+01 0 0 0
2595 1 6.6561770068506760e+00 1.6158417718793039e+01 1.2843853691792036e+01 1 0 0
589 1 1.5965342779635453e+01 1.3876275593687264e+01 1.0971374928918671e+01 0 0 0
2301 1 1.7070710428161515e+01 1.6266892552548711e+01 1.2241163618729141e+01 1 0 0
3022 1 2.0225603104153517e+01 1.6648945038625186e+01 1.2007045433682842e+01 0 0 1
2837 1 2.1354268524699219e+01 1.2954031031056866e+01 1.2209154019096568e+01 0 0 1
2706 1 1.6077434779572286e+00 1.2938325872902748e+01 1.0157240905804953e+01 1 0 0
2231 1 1.4245455847308242e+00 1.9084966854260973e+01 1.1644483484573852e+01 0 0 0
1822 1 5.3099973471536668e+00 6.0626093241951535e+00 1.6250508487813150e+01 0 1 0
187 1 8.0690882133971069e+00 1.8745030934814181e+01 1.0849431341779942e+01 0 0 0
2475 1 9.6684038748879555e+00 1.6801589209920571e+01 1.1231461581727018e+01 1 0 0
2582 1 1.1860704490550878e+01 1.7955651180983242e+01 1.3313949323864923e+01 0 0 1
2941 1 1.3909631138675371e+01 1.6779844203263785e+01 1.1937497643741860e+01 1 0 1
1148 1 1.4272057087775909e+01 1.9930325500092142e+01 1.0780067194615341e+01 0 1 0
1391 1 1.9051472059447867e+01 1.9591976444341253e+01 1.1285209149003471e+01 0 0 0
4061 1 1.6730365435200813e+01 1.8391984440500075e+01 1.0514035080428178e+01 0 1 1
3062 1 7.7214971168223370e+00 1.1711617355622861e+01 1.6798430612260454e+01 1 1 1
144 1 2.4038931074108376e+01 1.8739556263220059e+01 1.0808424027276025e+01 0 0 0
1054 1 1.8663418960641533e+00 2.0133150099713028e+01 1.4390781724495255e+01 0 0 0
2213 1 5.9938089232028142e+00 1.9158399878854738e+01 1.3062382138620290e+01 0 0 0
80 1 9.7830560464721774e+00 2.1299894636968634e+01 1.4762275658050084e+01 0 0 0
2506 1 7.2678380768175161e+00 2.1681302683726667e+01 1.3781192625481543e+01 1 0 0
276 1 1.1610811672394481e+01 2.0624913234868828e+01 1.2712789308177195e+01 0 0 0
1366 1 1.3532359024561192e+01 2.2483005048520802e+01 1.2312809182581448e+01 0 0 0
1281 1 1.8999889523404214e+01 1.9901446720769378e+01 1.4163108225885974e+01 0 0 0
2313 1 1.9047134097910781e+01 2.5277581245733916e+01 3.9686488164901972e+00 0 0 0
2578 1 1.5527658928245033e+01 2.2040617430540362e+01 1.4511246963912027e+01 1 0 0
162 1 5.8366278122430328e+00 2.2785958744341215e+01 1.0299637129562464e+01 0 0 0
983 1 7.9040117190660411e+00 2.2569872908745136e+01 1.1333284996066192e+01 0 0 1
1203 1 6.4890439758417493e+00 8.6271490851246515e+00 1.5244013052123732e+01 0 1 0
3531 1 2.0180999588495045e+01 1.1505342829476284e+01 1.6938891178022679e+01 1 1 0
1040 1 1.8530319685844990e+01 2.2457513208571214e+01 1.0242846336791098e+01 0 0 0
553 1 1.8365513262570371e+01 2.2735164017046127e+01 1.4734384983723720e+01 0 0 0
1587 1 1.7501824356199713e+00 3.9630632055694743e+00 1.5460413250581677e+01 0 1 0
2221 1 1.2297723016840916e+01 2.4877076747285756e+00 1.4423877775258983e+01 0 0 0
3716 1 3.8716072375667685e+00 9.9481299638972220e-01 1.7145733218019085e+01 1 1 0
1743 1 1.3948534683230498e+01 3.1004175155256517e+00 1.6273148630238563e+01 0 1 0
3575 1 6.4589150133903637e+00 4.3503521020624952e-01 7.9065908961542526e+00 1 0 0
21 1 1.1246007498536423e+01 7.1148475854175262e+00 1.6276191799680145e+01 0 0 0
3927 1 6.0245419664124877e-01 1.1106382799969502e+01 6.8977951835165934e+00 1 1 1
1308 1 1.4014145428014775e+01 1.2870060916128867e+01 9.3332090610992569e-01 0 1 0
3890 1 5.6619559158546484e-01 1.8149122418772187e+01 3.8868451061546652e+00 1 0 1
1557 1 2.2270070273148150e+01 2.3860880265107749e+00 1.4868474104692270e+01 -1 1 0
1105 1 1.0550627685868090e+01 2.5113884057717158e+01 1.3537506245701124e+01 0 0 0
45 1 4.0159873895520164e+00 5.4218111722754223e+00 1.4022889223772070e+01 0 0 0
362 1 8.0077991603247618e+00 4.7695338137314467e+00 1.5330585043723374e+01 0 0 0
1027 1 1.6931835539738849e+01 3.9868525646956439e+00 1.3750772941200651e+01 0 0 0
332 1 1.3305142662717671e+01 7.5631206958398147e+00 1.4023657909423575e+01 0 0 0
856 1 1.7573100120241726e+01 5.9936003805854980e+00 1.5525391772261230e+01 0 0 1
1680 1 1.7247907628696442e+01 8.8465460963792779e+00 1.5934791036300261e+01 0 1 0
206 1 2.1975303314516740e+01 4.4226635209139777e+00 1.7011127884807909e+01 0 0 0
3291 1 2.1623373160875339e+00 1.0353835302334051e+01 1.5242009716677106e+01 1 1 0
1322 1 1.8954325812897252e+01 1.7092581782771852e+01 1.6577974107083779e+01 0 0 0
882 1 2.5152806888699679e+01 1.6214773236289176e+01 6.8432552647374258e+00 0 0 1
1311 1 4.6024568060707249e+00 1.0071032748778158e+01 1.3798497574240638e+01 0 1 0
2337 1 1.0413978613470253e+01 8.9015252207316085e+00 1.4180192578144489e+01 0 0 0
2276 1 8.0110982228161962e+00 7.2837826460070607e+00 1.3817211840149362e+01 0 0 0
1898 1 1.4789945083901717e+01 9.7865853642567746e+00 1.4887882399246331e+01 0 1 1
2405 1 1.1062215753773222e+01 1.6886293765656745e+01 1.5550426084914692e+01 0 0 0
1152 1 2.3884712171376787e+01 8.6315484047458728e+00 1.3745401293116771e+01 0 1 0
3370 1 2.0562033361028547e+01 6.2144477489393912e+00 1.5333171752583505e+01 0 0 0
1492 1 2.5073375923872124e+01 6.2115421463604568e+00 1.2991753961406459e+01 -1 1 0
1572 1 2.1854106195061942e+01 8.8299285069301945e+00 1.5993064915431990e+01 0 1 0
838 1 7.3497214100176311e+00 1.4341411288815232e+01 5.3449510976960524e-01 0 0 1
2831 1 6.3430869443916054e+00 1.3602335193979510e+01 1.5965378744895748e+01 0 0 1
2329 1 1.1154951868783991e+01 1.3591242513843593e+01 1.6275249300291595e+01 1 0 0
2308 1 9.8090790201538471e+00 1.2684829934630725e+01 1.2905465863678758e+01 0 0 0
1776 1 9.7944451643279553e+00 1.1177677079165807e+01 1.5379612886317984e+01 0 0 0
309 1 1.4079147645616348e+00 1.8004899835632667e+01 7.4580766747452678e+00 0 0 0
330 1 1.7936220434776089e+01 1.2384416521146616e+01 9.5783841034593724e+00 0 0 0
2009 1 2.5199321447143380e+01 2.3851113841463782e+01 1.2391572648018792e+00 0 0 1
518 1 1.3718996876749667e+01 2.0525208968623190e+00 1.2017235141045450e+01 0 0 0
3976 1 1.7891662818026898e+01 1.1823823097778369e+01 1.3273239656473134e+01 0 1 1
2637 1 2.4859227424719798e+01 1.0685843340662544e+01 1.2028103717978578e+01 0 0 1
711 1 2.3611383768114265e+00 2.5290381447191812e+01 1.1353862800929653e+00 0 0 1
1418 1 7.9343599142585548e+00 1.5788093519761881e+01 1.5900902362798252e+01 0 1 0
43 1 9.6121699712096174e+00 1.5114988917910200e+01 1.3368468638956919e+01 0 0 0
2327 1 1.3169827731518433e+01 1.4136199716137428e+01 1.4170096156779023e+01 0 0 0
3567 1 1.4890729145579408e+01 1.6404630735505307e+01 1.4919060918104297e+01 1 1 0
806 1 1.9957106377973705e+01 1.3600347727477217e+01 1.4735573410212154e+01 0 0 1
1031 1 1.7878885741866366e+01 1.5306365968730907e+01 1.5024084485715964e+01 0 0 0
1143 1 2.2410189910847510e+01 1.5612110843536531e+01 1.3806672597911327e+01 0 0 0
464 1 2.3786596334426616e+01 1.5695858260198927e+01 1.6292916647531758e+01 0 0 0
2287 1 3.0562016810507484e+00 1.4403980223512175e+01 1.4015196987920890e+01 1 0 0
1257 1 5.7073004887799188e+00 1.7816120902654824e+01 1.5646919350620179e+01 1 0 0
84 1 2.4739307285243832e+01 9.5657493141103789e-01 3.2159727716413831e+00 0 0 0
3922 1 2.4840596322505540e+01 2.2490431021276862e+00 3.5753652451992446e-01 1 1 1
117 1 1.3068126643257916e+01 2.3237844443436266e+01 1.7070133992892998e+01 0 0 0
2333 1 2.0123553506081866e+01 6.3570724243316423e+00 5.3380832556675606e-01 0 0 0
1517 1 7.0314453894780140e+00 2.0252976905384008e+00 2.1142473881595276e+01 0 1 0
1061 1 5.9000756439062307e+00 2.2986447332925191e+01 1.7293671823907999e+01 0 0 0
1844 1 7.3802609607124570e+00 3.3273074986498181e+00 1.8871568662434164e+01 0 1 0
2110 1 4.2351557410819520e+00 8.0631820110877861e+00 1.8381046031517972e+01 1 0 1
1177 1 1.8957213155975829e+01 1.3253455542401149e+00 2.1629031444710019e+01 0 0 0
2535 1 4.9385851928244877e+00 1.0008923620722263e+00 3.1058381548804018e+01 1 0 0
1236 1 1.1112591865111515e+01 3.6656225672116688e-01 1.9216598005559749e+01 0 1 0
791 1 2.5084816699491419e+01 1.1892339128195935e+01 2.7034707134371729e+01 0 0 0
2875 1 6.9208475881388392e+00 9.0137759353694467e+00 1.8068676573197685e+01 0 0 0
2346 1 8.0071103672611414e+00 4.2941090702689797e+00 2.2198419541063220e+01 1 0 0
3482 1 1.4080284337010001e+00 7.5062676172202574e+00 3.3626789537919407e+01 1 1 0
2297 1 1.2356036824094991e+01 3.9443702608864419e+00 2.0614685465409934e+01 1 0 0
449 1 1.5615771594728473e+01 6.4304494603925768e+00 1.8531311284373789e+01 0 0 0
374 1 1.6936765748241037e+01 2.8493778205501226e+00 2.0894756596462770e+01 0 0 0
3107 1 1.9991943315739064e+01 4.5805938948021332e+00 1.8831264589602352e+01 0 0 0
4013 1 2.1147256833497096e+01 2.8410080591546572e+00 2.0586313718718653e+01 0 1 1