
# Create simulation box and atoms
lattice		    sc 1
Lattice spacing in x,y,z = 1 1 1
region 		    all block 0 51.42 0 51.42 0 51.42 units box
create_box 	    1 all
Created orthogonal box = (0 0 0) to (51.42 51.42 51.42)
  2 by 2 by 3 MPI processor grid

create_atoms	1 random 4457 ${SEED} all
create_atoms	1 random 4457 30622 all
Created 4457 atoms
  create_atoms CPU = 0.00043273 secs

mass		    1 18.15

# Define potential

pair_style 	    sw
pair_coeff	    * * mW_real.sw mW
Reading potential file mW_real.sw with DATE: 2019-02-27

# Run minimization

minimize 	    1.0e-8 1.0e-8 10000 1000
WARNING: Using 'neigh_modify every 1 delay 0 check yes' setting during minimization (../min.cpp:168)
Neighbor list info ...
  update every 1 steps, delay 0 steps, check yes
  max neighbors/atom: 2000, page size: 100000
  master list distance cutoff = 6.3065
  ghost atom cutoff = 6.3065
  binsize = 3.15325, bins = 17 17 17
  1 neighbor lists, perpetual/occasional/extra = 1 0 0
  (1) pair sw, perpetual
      attributes: full, newton on
      pair build: full/bin/atomonly
      stencil: full/bin/3d
      bin: standard
Per MPI rank memory allocation (min/avg/max) = 4.226 | 4.227 | 4.229 Mbytes
Step Temp E_pair E_mol TotEng Press 
       0            0    2225211.1            0    2225211.1    1620111.9 
     729            0   -50316.073            0   -50316.073   -1175.1752 
Loop time of 1.88299 on 12 procs for 729 steps with 4457 atoms

99.5% CPU use with 12 MPI tasks x no OpenMP threads

Minimization stats:
  Stopping criterion = max force evaluations
  Energy initial, next-to-last, final = 
         2225211.10632     -50315.6948089     -50316.0732996
  Force two-norm initial, final = 1.92947e+07 3.77111
  Force max component initial, final = 1.11029e+07 0.830703
  Final line search alpha, max atom move = 0.0617208 0.0512716
  Iterations, force evaluations = 729 1000

MPI task timing breakdown:
Section |  min time  |  avg time  |  max time  |%varavg| %total
---------------------------------------------------------------
Pair    | 1.5341     | 1.6144     | 1.7929     |   6.1 | 85.74
Neigh   | 0.026338   | 0.02749    | 0.028951   |   0.5 |  1.46
Comm    | 0.037802   | 0.21551    | 0.29698    |  16.6 | 11.45
Output  | 0          | 0          | 0          |   0.0 |  0.00
Modify  | 0          | 0          | 0          |   0.0 |  0.00
Other   |            | 0.02559    |            |       |  1.36

Nlocal:    371.417 ave 384 max 356 min
Histogram: 1 0 1 0 2 4 0 2 1 1
Nghost:    1059.25 ave 1084 max 1046 min
Histogram: 2 1 3 2 1 2 0 0 0 1
Neighs:    0 ave 0 max 0 min
Histogram: 12 0 0 0 0 0 0 0 0 0
FullNghs:  11985.7 ave 12561 max 11435 min
Histogram: 1 1 0 3 3 0 1 1 1 1

Total # of neighbors = 143828
Ave neighs/atom = 32.2701
Neighbor list builds = 41
Dangerous builds = 0

# Create Cavity with Hard sphere "indent" potential

region		    cavity sphere 25.71 25.71 25.71 13.8 side in
group               cavity region cavity
359 atoms in group cavity
group               bulk subtract all cavity
4098 atoms in group bulk
delete_atoms	    region cavity
Deleted 359 atoms, new total = 4098
fix 		    5 all indent 10.0 sphere 25.71 25.71 25.71 13.8

# Equilibration of molecular water

# Add velocity/set timestep

velocity	    all create ${TEMP} ${SEED} rot yes dist gaussian
velocity	    all create 215 ${SEED} rot yes dist gaussian
velocity	    all create 215 30622 rot yes dist gaussian
timestep	    5.0

# Define output

compute			1 all msd
thermo	    	50
thermo_style	custom step temp press vol etotal ke pe c_1[4]

# Neighbor lists

neigh_modify    delay 0 every 1 check yes

# Set fixes

fix             1 bulk momentum 10 linear 1 1 1 rescale
fix             2 bulk nve
fix             3 bulk temp/csvr ${TEMP} ${TEMP} 500.0 ${SEED}
fix             3 bulk temp/csvr 215 ${TEMP} 500.0 ${SEED}
fix             3 bulk temp/csvr 215 215 500.0 ${SEED}
fix             3 bulk temp/csvr 215 215 500.0 30622
fix             4 bulk press/berendsen iso ${PRES} ${PRES} 1000.0 modulus 20000
fix             4 bulk press/berendsen iso 1.0 ${PRES} 1000.0 modulus 20000
fix             4 bulk press/berendsen iso 1.0 1.0 1000.0 modulus 20000

# Run 1 ns equilibration

dump		    1 all atom 2000 ${DIR}/eq.${NAME}-${TEMP}.dump
dump		    1 all atom 2000 run_2/eq.${NAME}-${TEMP}.dump
dump		    1 all atom 2000 run_2/eq.hardcavity_freeze_2-${TEMP}.dump
dump		    1 all atom 2000 run_2/eq.hardcavity_freeze_2-215.dump

reset_timestep  0

run	            200000
Per MPI rank memory allocation (min/avg/max) = 4.49 | 4.492 | 4.493 Mbytes
Step Temp Press Volume TotEng KinEng PotEng c_1[4] 
       0          215   -353.72438    135955.32   -43146.523    2625.6614   -45772.184 4.1553024e-33 
      50    138.83836   -136.91687    135857.67    -42533.21    1695.5466   -44228.757   0.21481146 
     100    152.73953   -180.92001    135747.77   -42082.318     1865.313   -43947.631   0.40019124 
     150    165.45176   -13.290394    135656.42   -41777.769    2020.5596   -43798.329   0.54522438 
     200    175.38008   -22.065484    135524.03   -41509.271     2141.808   -43651.079   0.69453979 
     250     187.5375    -91.12267    135400.06   -41279.447     2290.279   -43569.726    0.8187192 
     300    189.05834   -114.68224       135158   -41118.745     2308.852   -43427.597   0.94910386 
     350    193.50945   -118.20346     134854.3   -41047.175    2363.2107   -43410.386    1.0834962 
     400    200.30971   -23.147089    134726.48   -40916.293    2446.2581   -43362.551    1.2462478 
     450    202.38723   -34.431518    134729.53   -40829.643    2471.6295   -43301.273    1.3897649 
     500    210.67991     15.46665    134624.34     -40757.8    2572.9029   -43330.703    1.5300664 
     550    208.93103   -116.47423    134464.98    -40755.91    2551.5449   -43307.455    1.7151878 
     600    205.50049   -201.02191    134178.68   -40749.285    2509.6498   -43258.935    1.8712704 
     650    206.96052    -109.3238    134092.62   -40782.559    2527.4802   -43310.039    2.0401119 
     700    214.61011   -125.76701    134054.33   -40698.961       2620.9   -43319.861    2.2192341 
     750    211.59454   -25.633983    133912.04   -40665.404    2584.0726   -43249.476    2.4113987 
     800    212.69239    18.078176     133764.1    -40638.99    2597.4801    -43236.47    2.5547148 
     850    212.49904     69.13964    133669.83   -40613.503    2595.1187   -43208.622    2.7021614 
     900    212.16467   -13.756388    133686.69   -40640.622    2591.0353   -43231.657     2.876615 
     950    213.60216    34.746892    133745.89   -40629.356    2608.5905   -43237.946    3.0187577 
    1000    216.84079   -258.34696    133649.17   -40607.364    2648.1419   -43255.506    3.1991418 
    1050    216.76663   -37.509962    133410.65   -40584.576    2647.2362   -43231.812    3.3191898 
    1100    214.50908    62.279029    133458.31    -40553.71    2619.6661   -43173.376     3.468239 
    1150    216.20418    29.317676    133239.25   -40545.826    2640.3673   -43186.193    3.6258154 
    1200    216.46409    67.964028    133135.53   -40554.711    2643.5414   -43198.253    3.8515075 
    1250    212.20868   -245.73726     133061.9   -40563.093    2591.5727   -43154.666    4.0514833 
    1300    218.57055    24.063292     132904.6     -40576.5    2669.2663   -43245.766    4.2372974 
    1350     219.1251    -89.23109    132935.98   -40602.583    2676.0387   -43278.622    4.4420437 
    1400    213.83336    45.742182    132836.94   -40567.045     2611.414   -43178.459    4.6497895 
    1450    218.96396    15.891965    132784.31   -40583.611    2674.0708   -43257.682    4.7631803 
    1500     212.2215     127.9123    132712.78   -40607.731    2591.7294    -43199.46    4.8189017 
    1550    217.51879    100.58602    132741.46   -40577.163    2656.4219   -43233.585     4.944839 
    1600    213.56055    71.474178    132581.47   -40560.212    2608.0823   -43168.294    5.1869045 
    1650    213.96108   -11.599203    132492.19   -40626.196    2612.9738   -43239.169    5.3633189 
    1700    219.53079    20.689509    132338.54   -40553.436    2680.9932   -43234.429    5.5322782 
    1750    216.64879    188.35981    132549.92    -40594.39     2645.797   -43240.187    5.7224551 
    1800    213.11094     148.4879    132719.84   -40633.421    2602.5915   -43236.012    5.8384724 
    1850    212.45117     -168.219    132509.93   -40714.656    2594.5342   -43309.191    5.9576327 
    1900     205.7588   -119.55755    132312.71   -40794.841    2512.8044   -43307.645    6.1603624 
    1950    207.49625   -86.134619    132376.64   -40755.382    2534.0228   -43289.405    6.3824563 
    2000    210.51049   -57.090609    132313.24   -40754.809    2570.8338   -43325.642     6.496265 
    2050    211.49698   -145.16251    132213.23   -40737.203    2582.8812   -43320.085    6.6303481 
    2100    212.17209    75.197595    132087.81   -40693.875    2591.1259   -43285.001    6.7718645 
    2150     215.9933    58.404473    132028.79    -40644.22    2637.7919   -43282.012    6.9607873 
    2200    215.77836    114.05938    132110.29   -40614.308     2635.167   -43249.475    7.1724962 
    2250    214.95036    116.50605     132154.8   -40591.156    2625.0552   -43216.211    7.2431303 
    2300    218.15016    25.409938    132219.97   -40603.635    2664.1323   -43267.767    7.3962945 
    2350    216.60669   -206.64488    132234.94   -40599.683    2645.2829   -43244.966    7.5544149 
    2400    217.39478   -109.52389     132143.6   -40560.853    2654.9073   -43215.761    7.7542807 
    2450    219.70412    123.60218    131987.43   -40586.328      2683.11   -43269.438    7.8536106 
    2500    222.01101   -54.094164    132104.38   -40602.228    2711.2826    -43313.51    8.0901825 
    2550    213.01247   -29.572527    132072.41   -40594.421    2601.3889    -43195.81    8.1252353 
    2600    217.21456    27.639104    132061.74   -40625.213    2652.7065    -43277.92    8.2242043 
    2650    218.08381     201.7086    132196.26    -40558.38    2663.3221   -43221.702    8.3673974 
    2700     219.1739    24.750792    132261.76    -40581.54    2676.6347   -43258.175    8.5505879 
    2750     216.8898   -288.17223    132139.35    -40563.61    2648.7404    -43212.35    8.7448367 
    2800    221.51235   -62.381757    131996.33   -40615.476    2705.1927   -43320.669    8.9211629 
    2850    217.34753   -124.81431    131930.84   -40620.477    2654.3304   -43274.807    9.0634253 
    2900    214.10611   -18.092309    131919.11   -40675.367    2614.7449   -43290.112    9.2200138 
    2950    215.68382    33.572516    132054.85   -40660.064    2634.0125   -43294.076    9.3986382 
    3000    213.55969   -85.315239    132100.77   -40678.901    2608.0718   -43286.973    9.6325383 
    3050    214.48603    183.54745    132191.69   -40653.332    2619.3846   -43272.717    9.6989227 
    3100    211.17909   -28.220749    132277.25   -40674.688    2578.9991   -43253.687    9.7849216 
    3150    215.34597    60.366369    132202.24   -40677.079    2629.8866   -43306.965    10.024356 
    3200    215.91661   -69.224011    132261.06   -40650.939    2636.8555   -43287.794    10.216837 
    3250    214.77267   -45.420505    132112.83   -40689.485    2622.8852    -43312.37    10.316966 
    3300    215.55897   -157.39578    132072.18   -40665.019    2632.4878   -43297.507    10.414911 
    3350    215.11507   -12.170147    132003.63   -40675.318    2627.0667   -43302.385    10.658957 
    3400    218.12979    62.754184    131903.04   -40647.477    2663.8837   -43311.361    10.750248 
    3450    215.99422    68.354544    131890.59   -40667.996    2637.8032     -43305.8    10.853838 
    3500    216.90807   -2.6595352     131845.7   -40676.522    2648.9635   -43325.485     10.95829 
    3550    215.53937   -4.1889767     131803.5   -40677.634    2632.2485   -43309.883    11.222172 
    3600    217.84598    129.68359    131795.64   -40680.465    2660.4176   -43340.883     11.36179 
    3650    220.20753    115.65503    131902.89   -40600.843    2689.2578   -43290.101     11.45873 
    3700    214.10243    155.98473    131892.62   -40619.316       2614.7   -43234.016    11.582932 
    3750    219.95544    97.577552    131909.03   -40626.204    2686.1792   -43312.383    11.780752 
    3800    213.10512    50.133369    131949.17   -40660.951    2602.5205   -43263.471    11.992284 
    3850     211.8355   -3.6786645    131908.94   -40676.934    2587.0154    -43263.95     12.03473 
    3900    214.04092    91.209473    131856.89   -40641.449    2613.9488   -43255.398    12.151558 
    3950    215.58298   -6.1863784    131942.41   -40675.465     2632.781   -43308.246    12.292836 
    4000    215.94258    -114.6823     131844.5     -40690.6    2637.1726   -43327.773     12.45873 
    4050    217.54274    47.495107    131904.48    -40659.55    2656.7144   -43316.264    12.672446 
    4100    214.70379    61.264522    131986.52   -40631.502     2622.044   -43253.546     12.79904 
    4150    214.53361    68.493566    132154.88   -40644.003    2619.9657   -43263.969    12.999494 
    4200    216.74256    48.431716     132228.1   -40664.704    2646.9422   -43311.647    13.164779 
    4250    214.84449   -29.724424    132290.53   -40698.882    2623.7623   -43322.644    13.404382 
    4300    215.66059    -104.6308    132058.95   -40720.612    2633.7288   -43354.341    13.648944 
    4350    216.11428    59.991659    132009.13   -40692.569    2639.2695   -43331.839    13.776507 
    4400    213.70462    157.22671    132216.35   -40679.389    2609.8418   -43289.231     13.98784 
    4450    215.29856   -114.43176    132146.42   -40663.149    2629.3076   -43292.457    14.222275 
    4500    215.27741   -57.080358    132056.05   -40704.979    2629.0492   -43334.028    14.429979 
    4550    216.42881    82.112442    132112.39   -40655.638    2643.1107   -43298.748     14.65408 
    4600    214.94909    132.16465    132200.17    -40659.95    2625.0397   -43284.989    14.917574 
    4650    218.38934   -61.614786    132217.79    -40609.51    2667.0534   -43276.563    15.129401 
    4700    215.09414   -197.36885    132041.51   -40636.426    2626.8111   -43263.237    15.340978 
    4750    218.70352    34.021426    132029.07   -40603.373    2670.8903   -43274.263    15.499488 
    4800    213.85504    61.899979    132149.61   -40615.735    2611.6787   -43227.413    15.762012 
    4850    216.42307     205.2547     132341.7   -40650.701    2643.0405   -43293.741    15.980327 
    4900    216.13252    91.246973    132475.77   -40647.432    2639.4921   -43286.924    16.119212 
    4950    218.81269    24.045428    132521.89   -40637.691    2672.2234   -43309.914    16.262376 
    5000    214.56857   -51.689638     132339.9   -40675.459    2620.3926   -43295.852    16.426942 
    5050    217.23409   -111.39736     132258.3       -40653    2652.9451   -43305.945    16.567738 
    5100    217.64375     9.926974    132242.47   -40643.415    2657.9479   -43301.363    16.592424 
    5150    215.71773    64.248253    132241.91   -40578.407    2634.4266   -43212.833    16.707865 
    5200    218.05267   -40.725604    132185.53   -40597.023    2662.9418   -43259.965    16.958437 
    5250    219.22558   -11.412442     132094.1   -40607.598    2677.2658   -43284.864    17.189441 
    5300    216.04423    4.2850546    131966.58   -40652.161     2638.414   -43290.575    17.301173 
    5350    220.38668    80.039527    131987.01   -40654.294    2691.4456   -43345.739    17.392058 
    5400    211.08372    53.469474    132143.11   -40640.941    2577.8344   -43218.775    17.537954 
    5450    212.88759   -309.54748    131864.61   -40656.166    2599.8639    -43256.03    17.604653 
    5500    217.46073   -147.35837    131658.52    -40704.38    2655.7128   -43360.093     17.68443 
    5550     214.0701    3.2803995    131638.39   -40723.678    2614.3051   -43337.983    18.037639 
    5600    212.07662    21.069288    131552.47   -40725.647      2589.96   -43315.607    18.376347 
    5650    218.26423   -94.504625     131540.5   -40651.089    2665.5255   -43316.615    18.672531 
    5700    216.97508    74.639942    131534.28   -40620.677    2649.7818   -43270.459    18.794988 
    5750    220.65278   -11.670076    131699.72       -40624    2694.6953   -43318.696    18.989591 
    5800    216.49408    32.184554    131704.32   -40618.108    2643.9076   -43262.016    19.251199 
    5850    217.30695     37.28957    131763.81   -40658.324    2653.8348   -43312.159    19.266944 
    5900    215.43027    201.10576    131791.42    -40639.34     2630.916   -43270.256    19.298472 
    5950    213.47914   -8.3088379    131888.19   -40722.152    2607.0882    -43329.24    19.513237 
    6000    212.32491    44.329587    131905.34   -40724.957    2592.9922   -43317.949    19.543795 
    6050    214.97825   -12.424127    131829.06   -40713.519    2625.3958   -43338.915    19.674549 
    6100    215.10596    26.193014    131772.54   -40739.085    2626.9555    -43366.04    19.839056 
    6150    215.40847   -64.672012    131784.59   -40683.619    2630.6498   -43314.269    19.913672 
    6200    216.79749    195.89515    131951.56   -40652.306    2647.6131   -43299.919    20.060154 
    6250    216.92415   -34.993301    132066.24   -40669.497    2649.1599   -43318.657    20.242896 
    6300    216.40106    176.18143    132088.06   -40675.847    2642.7717   -43318.619    20.233524 
    6350    216.13107   -23.051343    132040.35   -40652.832    2639.4745   -43292.306    20.289714 
    6400    216.12118   -176.13053    131887.05   -40706.969    2639.3537   -43346.323    20.383829 
    6450    210.37528   -158.83251    131805.82    -40735.46    2569.1826   -43304.643    20.618279 
    6500    211.00112    37.583196    131805.27   -40779.899    2576.8256   -43356.725    20.789149 
    6550    212.15204   -61.895775    131806.61   -40754.743    2590.8811   -43345.624    20.988839 
    6600    215.14354   -131.57306    131797.04   -40707.572    2627.4145   -43334.987    21.299133 
    6650    215.53026    201.88949    131772.08   -40686.116    2632.1372   -43318.253    21.465046 
    6700    217.09775   -117.40025    131818.01   -40654.392      2651.28   -43305.672    21.716185 
    6750    220.08388    63.312839    131851.45   -40630.691    2687.7477   -43318.439    21.996485 
    6800    215.02164    43.580086    132054.65    -40638.09    2625.9257   -43264.015    22.141162 
    6850     216.9757    47.538513    131882.99   -40659.423    2649.7894   -43309.212    22.280775 
    6900    218.68109   -77.534457    132044.05   -40636.966    2670.6164   -43307.583    22.431576 
    6950    212.52201   -117.94596    131993.25   -40689.713    2595.3992   -43285.112    22.663875 
    7000    223.23175    25.727079    132066.88   -40652.041    2726.1907   -43378.232    22.767042 
    7050    216.01007   -79.562771    132042.21   -40702.357    2637.9968   -43340.354    23.042451 
    7100    218.18583   -78.520984    131956.12   -40653.403     2664.568   -43317.971    23.251215 
    7150    216.72826   -57.932028    131941.16   -40693.364    2646.7676   -43340.132    23.320158 
    7200     215.6765   -25.494214    131961.88   -40684.918    2633.9231   -43318.841    23.391507 
    7250    217.38097   -1.7188579    132026.07   -40677.294    2654.7388   -43332.033    23.491769 
    7300    212.06757    9.0330987    132021.32   -40715.931    2589.8494   -43305.781    23.615264 
    7350    213.82483   -87.564343    132038.12   -40714.193    2611.3098   -43325.503    23.679813 
    7400    213.53039   -215.67085    131822.54   -40720.008    2607.7141   -43327.722      23.8826 
    7450    215.83902   -181.06253    131677.02   -40691.868    2635.9079   -43327.776    23.984885 
    7500    215.07429    51.614148    131671.03   -40680.932    2626.5687     -43307.5    24.221612 
    7550    214.40695   -144.91286    131761.54    -40667.69    2618.4189   -43286.108    24.462139 
    7600    213.02456    -51.35595     131817.1   -40642.048    2601.5367   -43243.585    24.682426 
    7650     212.0546   -84.695613     131743.1   -40676.667    2589.6911   -43266.358    25.045491 
    7700    212.18009    91.354355     131590.9    -40707.29    2591.2237   -43298.514    25.277264 
    7750    211.53634    38.592126    131656.65   -40694.177    2583.3619   -43277.539    25.601764 
    7800    213.54371   -148.77465    131487.55    -40718.63    2607.8767   -43326.507    25.743123 
    7850    215.09031    103.92126    131457.74   -40681.825    2626.7643    -43308.59    25.872915 
    7900    215.31912   -136.55286    131569.72   -40686.325    2629.5586   -43315.883    26.014015 
    7950    218.63831    331.29965    131781.08   -40663.896    2670.0939    -43333.99    26.157438 
    8000    217.70393     -245.189    131842.36   -40602.719    2658.6829   -43261.402    26.376453 
    8050    215.07395    7.9628046    131703.54   -40575.639    2626.5646   -43202.204    26.451276 
    8100    216.89081    124.22113    131660.22   -40572.789    2648.7528   -43221.542    26.530245 
    8150    219.12366   -87.639967    131681.09   -40597.778    2676.0211     -43273.8    26.534725 
    8200    213.09725   0.21688133    131738.59   -40618.998    2602.4243   -43221.422    26.799893 
    8250    209.87669   -227.52222    131661.55   -40698.307    2563.0937     -43261.4    26.956374 
    8300     213.7635    44.570546    131703.68   -40671.083    2610.5609   -43281.644    27.143221 
    8350    218.17433    113.07119    131768.41   -40639.177    2664.4276   -43303.604    27.341347 
    8400    215.90792   -3.6495347    131707.99   -40657.412    2636.7493   -43294.161    27.500056 
    8450    219.99578    29.819215    131692.57    -40614.82    2686.6718   -43301.492    27.702804 
    8500    214.50021   -68.935108     131613.5   -40667.739    2619.5578   -43287.296    28.036277 
    8550    219.79962    5.7327874    131584.28   -40676.372    2684.2762   -43360.649    28.267569 
    8600    214.77581   -118.88433    131633.35   -40732.388    2622.9236   -43355.312    28.411983 
    8650    218.16574    -132.0292    131601.41   -40731.084    2664.3227   -43395.406    28.679461 
    8700    213.86188   -20.384756    131600.94    -40738.84    2611.7623   -43350.603    28.821702 
    8750    216.86897    46.645303    131509.07   -40709.729     2648.486   -43358.215    28.883614 
    8800    214.38333   -16.280612    131602.09   -40687.441    2618.1304   -43305.571    29.038614 
    8850    217.21143   -101.44433    131550.77   -40718.889    2652.6683   -43371.557    29.166353 
    8900    214.41836    87.845138    131564.07    -40696.79    2618.5583   -43315.348    29.387221 
    8950    216.92549    43.478895    131680.22   -40660.582    2649.1763   -43309.759    29.427405 
    9000    217.52204   -33.996187    131662.69   -40669.116    2656.4615   -43325.577      29.5636 
    9050     214.0167    50.142762    131669.44   -40721.689    2613.6531   -43335.342    29.873446 
    9100    212.78775   -137.19623    131526.68   -40779.838    2598.6446   -43378.483    30.150581 
    9150    213.26361    59.571607    131465.57   -40813.752    2604.4559   -43418.208     30.49105 
    9200    215.82795   -20.349794    131531.38   -40733.583    2635.7726   -43369.356     30.74674 
    9250    215.31425    45.253282    131626.68   -40706.859    2629.4992   -43336.358    30.901013 
    9300    219.72772    125.74596    131729.63   -40682.358    2683.3981   -43365.756    31.186879 
    9350    217.55646    61.286433    131782.64    -40678.23    2656.8819   -43335.111    31.352882 
    9400    217.09799    11.097252    131884.34   -40690.297    2651.2829    -43341.58    31.653895 
    9450    213.31246    -125.1388    131816.31   -40683.017    2605.0526    -43288.07    31.808495 
    9500    215.18097   -106.22633    131742.19   -40743.056    2627.8715   -43370.928    32.086399 
    9550    214.03475    83.286754    131797.14   -40722.207    2613.8734    -43336.08    32.332596 
    9600    219.16877    48.860051    131860.78   -40709.736    2676.5721   -43386.308    32.504334 
    9650    219.15534   -13.866333    131950.39   -40707.457     2676.408   -43383.865    32.662312 
    9700    221.30267    23.520726    131998.52   -40625.125     2702.632   -43327.757    32.729983 
    9750     215.1983   -116.78162    132016.21   -40668.921    2628.0831   -43297.004    32.856347 
    9800    218.11032     -97.9481    131948.57   -40667.695    2663.6458   -43331.341    33.060712 
    9850    217.21202   -27.801643    131819.56   -40670.745    2652.6755   -43323.421    33.153019 
    9900    216.37198   -49.672339    131687.66   -40707.547    2642.4165   -43349.963    33.366228 
    9950    213.62463    73.290414    131655.09   -40759.206    2608.8649   -43368.071    33.400359 
   10000    214.28228    113.96828    131877.22   -40761.776    2616.8963   -43378.672    33.480882 
   10050    214.95187   -37.407417    132077.74    -40750.43    2625.0736   -43375.504    33.731362 
   10100    216.66521  -0.38119667     131983.8   -40724.569    2645.9976   -43370.567    33.992421 
   10150    216.46712    39.121899     131947.6    -40753.09    2643.5785   -43396.669    34.121837 
   10200    214.12052   -81.554127    131860.25   -40791.548    2614.9209   -43406.469    34.155754 
   10250    211.67284     107.3509    131802.65   -40782.883    2585.0289   -43367.912    34.323893 
   10300    214.70467    205.44648    131959.06    -40802.29    2622.0548   -43424.344     34.61458 
   10350    214.26243   -30.592335    132094.89   -40822.482    2616.6539   -43439.136    34.780356 
   10400    217.77091   -173.92001    132056.75    -40772.86    2659.5008    -43432.36     34.93991 
   10450    215.06051    72.579365     132017.2   -40770.577    2626.4004   -43396.977    34.957475 
   10500    212.50624    110.83611    132104.79    -40782.48    2595.2067   -43377.687    34.909548 
   10550    213.97564    127.09265    132332.63   -40793.935    2613.1516   -43407.087    35.195283 
   10600    215.27764     4.231736    132339.82   -40750.581    2629.0521   -43379.633    35.411228 
   10650    218.02429   -89.130562    132327.29   -40783.451    2662.5952   -43446.046    35.594646 
   10700    216.32398   -152.92512       132327   -40743.935    2641.8304   -43385.765    35.749563 
   10750    212.56054   -109.84325    132187.98   -40780.972    2595.8698   -43376.842     35.88711 
   10800    215.68065  -0.34383203    132220.09   -40743.689    2633.9737   -43377.663    35.940961 
   10850    220.35991    47.697321    132303.37   -40718.312    2691.1187   -43409.431    36.052236 
   10900    216.72808    39.191119    132309.56   -40707.825    2646.7654   -43354.591    36.051995 
   10950    212.94388   -55.579718    132413.22   -40711.701    2600.5513   -43312.252    36.202275 
   11000    219.92092    55.718698    132325.17   -40685.518    2685.7575   -43371.275    36.149904 
   11050    218.22528   -13.446968    132267.32   -40714.124    2665.0498   -43379.173    36.393994 
   11100    216.72065    62.801654     132370.5     -40704.3    2646.6746   -43350.975    36.667341 
   11150    213.38344     -40.7582    132316.34   -40693.598    2605.9193   -43299.517    36.730456 
   11200    217.35071   -119.82269     132246.8   -40703.887    2654.3692   -43358.256    36.958082 
   11250    212.54696    88.185718    132210.83   -40738.036     2595.704    -43333.74    37.094671 
   11300    217.47401    8.1665444    132336.67   -40735.718     2655.875   -43391.593    37.162333 
   11350    215.56913    143.37173    132304.29   -40680.675    2632.6118   -43313.287    37.360249 
   11400    216.32309    42.037325    132213.43   -40675.917    2641.8195   -43317.737    37.560743 
   11450    221.59151   -25.928049    132135.45    -40632.17    2706.1595   -43338.329    37.764345 
   11500    221.12569   -37.704732    132074.41    -40613.07    2700.4707   -43313.541    38.054506 
   11550    220.90482   -15.596354    132000.94   -40625.818    2697.7733   -43323.592    38.336371 
   11600    218.20564   -42.715423    132113.38    -40605.05    2664.8099    -43269.86    38.565593 
   11650    217.53966   -39.432972    132013.66   -40642.269    2656.6767   -43298.945    38.730256 
   11700     219.9129   -98.893864    132019.01   -40633.133    2685.6596   -43318.792    38.922147 
   11750    212.59244   -74.310186    131922.45   -40696.687    2596.2594   -43292.946    39.049671 
   11800    217.16529   -20.368125    131932.14   -40656.883    2652.1048   -43308.988    39.250221 
   11850    216.83324    64.815485    131812.25   -40689.273    2648.0497   -43337.323    39.521859 
   11900    221.65985   -70.989628     131853.9   -40676.898    2706.9941   -43383.892    39.752233 
   11950    216.65312   -120.48629    131707.18   -40676.954    2645.8499   -43322.804    39.819837 
   12000    217.32357    25.353414    131648.39   -40667.093    2654.0378    -43321.13    39.863659 
   12050    221.60807    99.001931    131707.34   -40643.178    2706.3617    -43349.54    39.946548 
   12100     222.4584   -41.998348    131808.86   -40677.329    2716.7463   -43394.076    40.210367 
   12150    215.64677   -79.761222    131784.07   -40720.004      2633.56   -43353.564    40.472209 
   12200    215.05332   -67.952671    131692.88    -40694.15    2626.3126   -43320.462    40.627024 
   12250     216.5034   -63.942963    131777.97   -40682.711    2644.0216   -43326.733    40.663123 
   12300    219.21654    87.466747    131848.42   -40644.104    2677.1554   -43321.259    40.731102 
   12350    217.30201    111.70767    131946.22   -40659.218    2653.7744   -43312.992    40.794715 
   12400    216.69008   -78.904449    131868.36   -40703.997    2646.3013   -43350.298    41.145264 
   12450    214.92837    65.559489       131968   -40687.118    2624.7866   -43311.905    41.311348 
   12500     219.8857   -10.978543     132190.9   -40626.255    2685.3274   -43311.582    41.593074 
   12550    214.91268    -53.61178    132129.81   -40696.156     2624.595   -43320.751    41.816604 
   12600    211.97179   -9.3579399    132014.59   -40717.467    2588.6798   -43306.147     41.99924 
   12650    212.82809    71.463031    131912.85   -40742.288    2599.1372   -43341.425    42.124284 
   12700    215.66171    105.09049    131921.36   -40710.421    2633.7425   -43344.163    42.309579 
   12750    215.15392     36.16173    132071.97   -40703.429    2627.5411    -43330.97    42.528592 
   12800    213.16921    -79.87422    131975.91   -40720.526    2603.3031   -43323.829    42.637638 
   12850    219.39008   -36.713443    131878.22   -40700.377    2679.2747   -43379.651    42.750668 
   12900    214.92654    69.534642     131971.1   -40693.234    2624.7643   -43317.999    43.023251 
   12950    219.21606    124.01163     132045.7   -40713.489    2677.1496   -43390.639    43.145018 
   13000    216.87162   -136.35116    132097.54   -40739.171    2648.5184    -43387.69    43.298148 
   13050    216.86649   -3.2241724       132090   -40773.928    2648.4557   -43422.383     43.67687 
   13100    214.37062   -57.536366    132007.41   -40721.998    2617.9752   -43339.973    43.886133 
   13150    216.38035   -59.752654    131917.19       -40695    2642.5188   -43337.519    44.199581 
   13200    217.92439   -84.476263    131797.64   -40702.596    2661.3752   -43363.971    44.464075 
   13250    218.56151     80.42597    131790.35   -40626.708     2669.156   -43295.864    44.775512 
   13300    217.29802    22.695223    131807.95   -40656.112    2653.7257   -43309.838    44.907968 
   13350     213.6538    19.203452    131771.87   -40689.279    2609.2211     -43298.5    44.940826 
   13400    214.95853    100.43758    131786.82   -40680.457    2625.1549   -43305.612    45.056496 
   13450    214.63306   -107.62028     131729.4   -40706.785    2621.1802   -43327.965    45.197289 
   13500    217.96856   -33.412234    131727.57   -40687.896    2661.9146   -43349.811    45.137501 
   13550    217.34825    108.97468    131853.29   -40654.923    2654.3391   -43309.263    45.385274 
   13600    220.20171    107.30959    131912.85   -40656.456    2689.1867   -43345.643    45.443519 
   13650    221.04246   -55.156986    131992.74   -40669.355    2699.4543   -43368.809    45.497319 
   13700    220.65406   -9.7425769    132033.51   -40640.942     2694.711   -43335.653    45.655964 
   13750    219.58114   -120.31726    131998.81    -40669.64     2681.608   -43351.248    45.894986 
   13800    218.17415   -18.546735    131900.94   -40709.027    2664.4254   -43373.453     45.97033 
   13850    211.59356   -110.94046    131861.22   -40747.802    2584.0607   -43331.863    46.047723 
   13900     212.6567    153.18138    131761.02   -40732.688    2597.0442   -43329.732    46.253675 
   13950    214.47454   -2.0885862     131812.3   -40763.746    2619.2443    -43382.99    46.480159 
   14000    215.65944   -3.4072943    131966.81   -40764.314    2633.7148   -43398.029    46.500297 
   14050    214.16383   -188.62057    131819.94   -40783.223    2615.4498   -43398.673    46.655303 
   14100    210.99618  -0.58820673    131715.75   -40785.224    2576.7652   -43361.989    46.831667 
   14150    213.44079    6.5090047    131734.19   -40765.856    2606.6198   -43372.475    46.995288 
   14200    215.16056   -18.209545    131681.65   -40796.006    2627.6223   -43423.628    47.075019 
   14250    212.23769  -0.42874924    131529.31   -40820.505    2591.9271   -43412.432    47.232137 
   14300    216.25872    44.180257    131560.97   -40812.576    2641.0334   -43453.609    47.347754 
   14350    212.27453   -24.420228     131630.2   -40802.535    2592.3769   -43394.912    47.526183 
   14400    210.66947    21.709064    131598.12   -40834.897    2572.7753   -43407.673    47.723803 
   14450    213.34535   -31.432053    131648.94   -40828.557    2605.4542   -43434.011    47.803294 
   14500    212.23038    88.709021    131723.94   -40815.403    2591.8378   -43407.241    47.968072 
   14550    217.48797    6.0777387    131849.52   -40790.927    2656.0455   -43446.973    48.078434 
   14600    215.90146   0.95505906    131849.24   -40731.063    2636.6705   -43367.734    48.251207 
   14650     214.7365   -138.72635    131641.56   -40760.503    2622.4434   -43382.946    48.301258 
   14700     219.1099   -47.224994    131610.91   -40738.362    2675.8531   -43414.215    48.448185 
   14750    219.14573    283.19467    131788.59   -40725.259    2676.2906   -43401.549     48.57891 
   14800    211.53553    49.537258    131948.56   -40730.828     2583.352    -43314.18    48.727341 
   14850    219.38212   -66.821959    131899.47   -40717.034    2679.1775   -43396.212    48.942855 
   14900    217.89815    4.9037671    131802.22   -40763.844    2661.0548   -43424.899    49.275948 
   14950    217.27193   -78.160149    131870.11   -40784.267    2653.4072   -43437.674    49.656789 
   15000    214.06793    110.59001    131840.53    -40774.48    2614.2786   -43388.759    49.784902 
   15050    212.00293   -116.45871    131763.81   -40780.159      2589.06   -43369.219    49.862424 
   15100    215.86599    44.858436    131785.94   -40795.043    2636.2373    -43431.28    50.109981 
   15150      216.383    66.698475    131882.75    -40748.04    2642.5511   -43390.591    50.333898 
   15200    216.00016    221.57231    132160.03   -40752.525    2637.8758   -43390.401    50.702677 
   15250    218.76446   -53.124404    132359.06   -40706.045    2671.6344   -43377.679    50.907222 
   15300    218.65503    13.776254    132277.57   -40748.319     2670.298   -43418.617    50.909315 
   15350    216.69353    33.699144    132293.95    -40700.45    2646.3434   -43346.794    50.988871 
   15400    220.52884    -75.54516       132362    -40657.59    2693.1817   -43350.771    50.926247 
   15450    214.79596   -25.906964    132399.97   -40684.345    2623.1696   -43307.515    50.875737 
   15500     211.8896   -81.677965    132253.41   -40717.438    2587.6761   -43305.114    50.926795 
   15550     214.5478    -136.8561    132000.93   -40688.044     2620.139   -43308.183    50.813844 
   15600    217.56363   -19.282356    132013.28   -40685.604    2656.9695   -43342.573    50.846683 
   15650    212.18394   -54.522866    131994.85   -40726.269    2591.2707    -43317.54    51.100031 
   15700    214.35418   -19.069167    132142.99   -40707.634    2617.7744   -43325.408    51.504086 
   15750    215.10993    64.373631    132114.65    -40722.78    2627.0039   -43349.784    51.819668 
   15800    214.94904    21.493148    132199.61   -40710.914    2625.0391   -43335.953    52.040769 
   15850    213.90911    73.832325    132147.75    -40709.48    2612.3391   -43321.819    52.269201 
   15900    213.54642   -158.44398    132086.32   -40739.617    2607.9098   -43347.527    52.433974 
   15950    209.40015   -118.50221    131840.77   -40727.055     2557.274   -43284.329    52.574316 
   16000    215.72534    157.72587     131819.9   -40686.467    2634.5195   -43320.986    52.702477 
   16050    212.72585    147.02704    132006.66   -40657.087    2597.8886   -43254.975    52.639604 
   16100    219.69021   -18.277443    132051.69   -40655.492    2682.9401   -43338.432    52.988911 
   16150    213.16534    42.217073    132021.91   -40694.493    2603.2558   -43297.749     53.15588 
   16200    212.67915   -61.290192    132031.56   -40725.709    2597.3183   -43323.027    53.231649 
   16250    213.31298    10.299658    132059.55   -40766.962    2605.0589   -43372.021    53.451002 
   16300    204.72113   -36.981341    132011.54   -40768.149     2500.132   -43268.281    53.746897 
   16350    209.87607    63.251538    131922.52   -40735.176     2563.086   -43298.262     53.83855 
   16400     208.4335    80.781682    132049.58   -40731.034    2545.4688   -43276.503    54.016759 
   16450    211.27394    14.738556     132044.1   -40766.694    2580.1574   -43346.852    54.153547 
   16500      211.795    1.1898425    131914.69   -40757.483    2586.5208   -43344.003    54.193974 
   16550    214.28595    50.296526    131933.39   -40703.043    2616.9412   -43319.984    54.167774 
   16600    217.25086    194.39236    131933.13   -40675.706    2653.1498   -43328.856    54.131699 
   16650    213.89002   -45.345599    132025.29   -40691.574    2612.1059    -43303.68    54.237927 
   16700    213.87716   -117.74657    131913.72   -40700.964    2611.9489   -43312.913    54.220268 
   16750    213.60049   -96.172525    131936.46   -40715.211    2608.5701   -43323.781     54.32917 
   16800    215.35324    27.256925    131964.91   -40708.601    2629.9754   -43338.577    54.369231 
   16850     213.7482    124.33614    132098.33   -40746.918     2610.374   -43357.292    54.449785 
   16900    210.23039    114.49851    132189.95   -40735.169    2567.4131   -43302.582    54.625989 
   16950    212.87631  -0.25781577    132204.08   -40723.198    2599.7262   -43322.924    54.826251 
   17000    211.75288   -41.914294    132191.79   -40708.693    2586.0063     -43294.7    55.013865 
   17050    213.95544    21.933979       132014   -40680.988    2612.9048   -43293.893    55.035415 
   17100    216.69862   -32.305655    132081.48   -40616.432    2646.4057   -43262.838    55.156196 
   17150    215.44269    21.391996    132088.91   -40623.877    2631.0677   -43254.945    55.382608 
   17200    219.71676    83.975067     132026.7   -40590.993    2683.2643   -43274.257    55.579698 
   17250    218.24935   -82.228765    132100.32   -40591.892    2665.3437   -43257.235    55.729862 
   17300    220.30055   -167.14464    132014.42   -40615.917    2690.3937    -43306.31    55.800049 
   17350    215.57009    25.938318    131934.67   -40648.481    2632.6235   -43281.105    55.822342 
   17400    217.57427   -32.223506    131905.15   -40543.478    2657.0994   -43200.578    55.952007 
   17450     221.1027    6.8903456    131922.73   -40599.218    2700.1899   -43299.408    56.164497 
   17500    214.57348    75.638738    131977.84   -40622.087    2620.4526   -43242.539    56.458754 
   17550     212.1731   -7.6732754    132022.01   -40659.461    2591.1382     -43250.6    56.630298 
   17600    210.32664    83.379731    131989.64   -40693.156    2568.5886   -43261.744    56.706377 
   17650    214.65385     88.18819    132168.77   -40737.122    2621.4341   -43358.556    56.870753 
   17700    210.34902   -73.129185    132171.75   -40769.328    2568.8619    -43338.19    57.135775 
   17750    212.40639   -161.70483    132009.15   -40742.163    2593.9872    -43336.15    57.248751 
   17800    211.78623    5.5721155    132045.13   -40747.048    2586.4136   -43333.461    57.532759 
   17850    213.20065   -10.418279    132158.53   -40732.604    2603.6871   -43336.291    57.670316 
   17900    215.75232    18.066091    132128.91   -40758.237    2634.8491   -43393.086    57.874249 
   17950    210.67364    79.439217    132177.61   -40756.888    2572.8263   -43329.715    58.121658 
   18000    213.56741   -46.172949    132222.34   -40786.437    2608.1661   -43394.604    58.079738 
   18050    215.58546     53.98604     132312.9   -40767.406    2632.8114   -43400.217    58.281378 
   18100    215.58229    99.945716    132374.83    -40747.75    2632.7726   -43380.523    58.538882 
   18150    218.17139    13.015087    132475.74   -40719.426    2664.3917   -43383.818      58.7257 
   18200    221.61876   -108.17101    132374.76   -40697.394    2706.4922   -43403.886    58.866051 
   18250    216.50801    148.93287    132323.57   -40689.066    2644.0778   -43333.144    59.117089 
   18300    217.31089   -30.360666    132341.19   -40693.433    2653.8829   -43347.316    59.054384 
   18350    219.42202   -40.003629    132321.43   -40696.465    2679.6648    -43376.13    58.884581 
   18400    215.16857   -43.388492    132353.82   -40704.935    2627.7201   -43332.655    58.970672 
   18450    215.88559    82.859527    132415.14   -40685.728    2636.4766   -43322.205    59.099657 
   18500    213.99601    26.781263    132482.48   -40771.071    2613.4004   -43384.471    59.165571 
   18550    211.72636   -117.60096    132417.45   -40803.751    2585.6825   -43389.434    59.370563 
   18600    209.78207    -70.73755    132209.22   -40849.595     2561.938   -43411.533    59.388551 
   18650    210.42351    2.4731389    132163.87   -40796.149    2569.7716    -43365.92    59.466409 
   18700     215.4397    82.464964    132240.59    -40760.85    2631.0312   -43391.881    59.755256 
   18750    213.25092   -7.1881869    132384.39   -40743.482     2604.301   -43347.783    59.955593 
   18800    214.71009   -128.97103    132300.69    -40709.57     2622.121   -43331.691    60.153973 
   18850    218.99015    7.7493443    132403.83   -40694.021    2674.3907   -43368.411    60.320225 
   18900    215.15797   -50.607054    132369.66    -40700.84    2627.5907    -43328.43    60.381287 
   18950    214.97036   -96.536644     132248.7   -40672.455    2625.2995   -43297.755     60.70368 
   19000    216.11803    -185.1779    132235.91   -40704.793    2639.3153   -43344.109    60.932869 
   19050    215.80532   -137.55201    132248.27   -40716.436    2635.4963   -43351.933    61.075157 
   19100    212.69425    108.58919    132186.15    -40728.17    2597.5027   -43325.672    61.430303 
   19150    214.82615   -123.69082    132221.94   -40756.097    2623.5383   -43379.636    61.605608 
   19200    217.01294    62.923031    132165.24   -40709.091    2650.2442   -43359.335    61.676304 
   19250    213.72384   -86.189684     132152.6   -40697.645    2610.0764   -43307.722    62.053051 
   19300    210.81703    63.474309    132225.87   -40740.678    2574.5774   -43315.256    62.162078 
   19350    215.78318   -30.164026    132189.14   -40775.029    2635.2259   -43410.254    62.266614 
   19400    212.55649   -91.348324    132204.96   -40823.965    2595.8203   -43419.786    62.340091 
   19450    211.48306    120.40098    132141.61   -40810.433    2582.7112   -43393.144    62.608159 
   19500    212.84212    -87.70748    132135.58   -40829.624    2599.3086   -43428.932     62.73128 
   19550    214.92506    103.50501    131989.49   -40808.532    2624.7462   -43433.278    62.951584 
   19600    216.22365   -185.95315    132046.73   -40761.159    2640.6051   -43401.764    63.078865 
   19650    213.46303   -127.63234    131964.33   -40762.403    2606.8913   -43369.295    63.277004 
   19700    211.48872     76.30064    131915.83   -40765.065    2582.7804   -43347.845    63.520128 
   19750    211.97816     60.53744    131954.63   -40739.148    2588.7575   -43327.905    63.710291 
   19800    216.09224   -21.099492    131885.95   -40754.099    2639.0003     -43393.1    63.721545 
   19850    209.41166   -46.525739    131893.45   -40783.406    2557.4145   -43340.821    63.734063 
   19900    213.73633   -57.750616    131794.89   -40764.503     2610.229   -43374.732    63.814953 
   19950    214.14734    86.663383    131860.85   -40802.051    2615.2484     -43417.3    63.874924 
   20000     214.8512    38.595242    131975.47   -40779.306    2623.8442    -43403.15     64.10882 
   20050    210.12896    18.108255    131969.49   -40836.367    2566.1744   -43402.542    64.359535 
   20100    211.77115   -52.311051    131982.32   -40863.295    2586.2295   -43449.524    64.683304 
   20150    214.95991    53.814791     132052.6   -40805.157    2625.1718   -43430.329    65.164159 
   20200    210.25384    191.30526    132077.84   -40763.955    2567.6996   -43331.654    65.286163 
   20250    214.03567   -87.755939    131965.27   -40804.965    2613.8847    -43418.85    65.313861 
   20300    213.38185    88.878522    131978.04   -40799.624    2605.8999   -43405.524    65.351542 
   20350       214.85    55.307598    131977.16   -40786.232    2623.8295   -43410.062    65.321486 
   20400     212.7666    50.311424     132102.1   -40770.512    2598.3863   -43368.899    65.513134 
   20450    215.56819   -82.062935    132093.57   -40763.543    2632.6004   -43396.144     65.86958 
   20500    215.67265   -84.757581    132149.19   -40717.901    2633.8761   -43351.778    66.044742 
   20550    215.16172     45.04063    132011.31   -40719.862    2627.6365   -43347.498    66.169339 
   20600    212.45026   -26.369288    131947.45   -40766.144    2594.5231   -43360.668    66.447082 
   20650    208.58827     66.76862    131963.59   -40817.385     2547.359   -43364.744     66.64888 
   20700    211.91775   -135.94489    131951.13   -40806.308    2588.0198   -43394.328    66.788696 
   20750    213.65961    127.14044    131991.51   -40790.821    2609.2921   -43400.113      66.9663 
   20800    208.87948   -182.96895    131967.64   -40826.345    2550.9154    -43377.26     67.17627 
   20850     211.0081    143.33779    131884.77   -40773.799    2576.9109    -43350.71    67.325958 
   20900    214.06719     78.85523    131981.05   -40767.713    2614.2696   -43381.982    67.657135 
   20950    213.30889     146.6059    132112.48   -40741.654    2605.0089   -43346.663    67.789966 
   21000    212.29381    76.519016    132115.44   -40781.082    2592.6124   -43373.694    67.833165 
   21050    216.20223    57.165751    132176.34   -40725.316    2640.3435   -43365.659    67.957848 
   21100    215.08041   -90.095951     132311.7   -40746.207    2626.6435   -43372.851    68.141301 
   21150    212.22533   -20.147517     132336.4   -40749.557    2591.7761   -43341.333    68.235999 
   21200    214.16421   -8.1013857    132221.78   -40744.965    2615.4545   -43360.419    68.384752 
   21250    217.64758    -91.63754    132152.82   -40759.618    2657.9946   -43417.613     68.78086 
   21300    212.78676    24.484637     132164.1   -40737.825    2598.6325   -43336.457    68.918957 
   21350    213.41985   -44.919534    132284.13   -40752.338    2606.3641   -43358.702    69.113569 
   21400    215.98934    112.71618    132301.34   -40751.898    2637.7436   -43389.642    69.237294 
   21450    216.99763    8.6581514     132445.9   -40745.662    2650.0573    -43395.72    69.405802 
   21500    215.90033    162.55884    132369.93   -40733.142    2636.6566   -43369.799    69.518705 
   21550     216.3352     14.50948    132539.37   -40644.738    2641.9673   -43286.706    69.750943 
   21600    214.63451    43.357162    132539.28    -40670.26    2621.1979   -43291.458    69.781282 
   21650    217.44526   -41.379123    132536.34    -40651.54    2655.5239   -43307.064    69.844659 
   21700    216.32379   -199.58231    132309.33   -40620.532     2641.828    -43262.36    69.728315 
   21750    218.13789    71.415611    132274.06   -40716.363    2663.9826   -43380.346    69.686057 
   21800    217.42609    241.01664    132392.86   -40715.536    2655.2898   -43370.826     69.93361 
   21850    213.14956   -44.043198    132515.84   -40739.401    2603.0631   -43342.464    70.228065 
   21900    214.15816   -38.936709    132362.05   -40727.912    2615.3805   -43343.292    70.306415 
   21950    211.83424    55.289259    132249.19   -40742.201         2587   -43329.201    70.605394 
   22000    216.87472    13.718836    132341.81    -40731.22    2648.5563   -43379.776    70.751719 
   22050     217.8818   -122.16344    132152.37   -40710.449    2660.8551   -43371.305    70.848416 
   22100     213.5817    25.495437    132154.44   -40734.305    2608.3407   -43342.645    70.911374 
   22150    215.45749   -17.056975     132346.1   -40742.255    2631.2485   -43373.504    71.133399 
   22200    210.71759    87.041438    132384.17   -40769.904     2573.363   -43343.267    71.384121 
   22250    212.92807     91.04449    132522.25   -40764.075    2600.3583   -43364.433    71.444004 
   22300    216.17709   -121.93926    132619.14   -40739.737    2640.0365   -43379.774    71.422648 
   22350    213.26652   -103.36233     132457.1   -40750.735    2604.4916   -43355.226    71.516414 
   22400    212.77917   -28.552165    132393.24   -40812.396    2598.5399   -43410.936    71.775395 
   22450    213.91414    15.374263    132364.21   -40796.172    2612.4005   -43408.573    71.996558 
   22500     215.1286   -99.634534    132383.49   -40768.475    2627.2319   -43395.706    71.977538 
   22550    215.69021   -147.86879     132286.6   -40767.501    2634.0905   -43401.591    72.108076 
   22600    210.64858   -167.69962    132121.52   -40781.648    2572.5203   -43354.168    72.158059 
   22650    215.03067    361.51912    132198.98   -40752.753     2626.036   -43378.789    72.448317 
   22700    215.30821   -32.834219    132222.67   -40775.977    2629.4254   -43405.403    72.618234 
   22750    215.68405   -36.240846    132247.79   -40770.304    2634.0153   -43404.319    72.799586 
   22800    216.03282    -33.50103    132110.36   -40760.583    2638.2746   -43398.857    72.670462 
   22850    215.74613    82.106252    132001.95   -40748.845    2634.7735   -43383.619    72.692616 
   22900    210.84928    -81.28681    132047.05   -40792.536    2574.9713   -43367.507     72.92571 
   22950    213.39463     33.68906    131965.82   -40786.098     2606.056   -43392.154    72.826927 
   23000    210.14225   -42.744831    131902.03   -40804.298    2566.3368   -43370.635    73.001531 
   23050    213.07082   -12.608967    132162.19   -40763.829    2602.1016   -43365.931     73.13831 
   23100    214.25293   0.84349749    132249.95   -40740.483    2616.5379   -43357.021    73.246979 
   23150    215.12062    29.273701    132478.94   -40696.158    2627.1346   -43323.292    73.260405 
   23200    216.64408    35.436744    132467.22   -40690.592    2645.7396   -43336.332    73.550234 
   23250    217.64596   -43.647299    132415.88   -40705.898    2657.9749   -43363.873    73.617815 
   23300      213.874    74.000041    132478.32   -40693.745    2611.9103   -43305.655    73.928591 
   23350    218.26267    78.426225     132510.9   -40705.897    2665.5063   -43371.404    73.857185 
   23400    212.34835    -159.5441    132536.51   -40752.323    2593.2785   -43345.601    73.861439 
   23450     217.6217   -39.778456    132392.33   -40706.063    2657.6786   -43363.742    73.984969 
   23500    215.16823   -14.746966    132403.95   -40721.922     2627.716   -43349.638    73.999932 
   23550    218.09541   -51.823442    132519.58   -40685.665    2663.4638   -43349.129    73.886566 
   23600     212.1508    3.0229496    132462.32   -40727.542     2590.866   -43318.408    74.046109 
   23650    216.57895    169.49917    132469.44   -40698.038    2644.9441   -43342.983    74.214438 
   23700    218.48743   -177.09075    132495.73   -40711.446    2668.2512   -43379.697    74.359434 
   23750    215.91225   -49.184316     132374.3   -40688.227    2636.8022   -43325.029     74.38831 
   23800    217.82155   -49.466512    132165.83   -40699.183    2660.1193   -43359.302    74.309858 
   23850    218.02625    103.51259    132306.16   -40688.874    2662.6192   -43351.493    74.440595 
   23900    219.31827    88.596084    132263.01    -40681.53    2678.3978   -43359.927      74.7266 
   23950    217.71467   -68.930745    132304.82   -40720.062     2658.814   -43378.876    74.746336 
   24000    212.41588   -96.461673    132190.13   -40721.261    2594.1032   -43315.364    74.968021 
   24050    215.96483    21.463063    132151.27   -40721.075    2637.4444   -43358.519     75.06381 
   24100    218.61936    104.17856    132085.11   -40697.218    2669.8625   -43367.081    75.287362 
   24150    219.52737   -53.817087    132165.86   -40690.732    2680.9514   -43371.684    75.437274 
   24200    217.75215    119.67104    132274.01   -40644.954    2659.2717   -43304.226    75.796645 
   24250    215.01972     104.4997    132290.93   -40706.589    2625.9023   -43332.491    76.069433 
   24300    218.68306    42.084526    132345.32   -40721.298    2670.6404   -43391.938    76.263662 
   24350    222.00195    14.792053    132327.89   -40736.293     2711.172   -43447.465    76.650766 
   24400    216.37819   -44.187709    132314.83   -40798.028    2642.4925   -43440.521    76.525618 
   24450    215.60371    114.83438    132436.69   -40752.376    2633.0341    -43385.41    76.822996 
   24500    212.77308   -59.331147    132445.88   -40746.801    2598.4654   -43345.267    76.923234 
   24550    220.93007   -109.77981    132385.88   -40770.532    2698.0817   -43468.614     76.98476 
   24600    210.10152    60.867996    132444.66   -40810.756    2565.8393   -43376.596    77.281319 
   24650    212.81956   -40.691562     132429.5   -40829.543    2599.0331   -43428.576    77.353008 
   24700    214.78548    99.860342    132354.27    -40767.92    2623.0416   -43390.961    77.668872 
   24750    217.54594    63.036547    132424.21    -40767.98    2656.7534   -43424.733    77.845376 
   24800    220.21138    107.64345    132636.52   -40741.386    2689.3048   -43430.691    77.962161 
   24850    215.85141   -70.519398    132668.44   -40780.002    2636.0592   -43416.061    77.676026 
   24900    217.87426    13.143489    132771.29   -40733.593     2660.763   -43394.356    77.893408 
   24950    216.04046   -126.35016    132704.65   -40720.691     2638.368   -43359.059    77.793906 
   25000    222.49819    113.02152    132750.34   -40707.128    2717.2322    -43424.36    77.928702 
   25050    212.48217   -17.308638    132538.11   -40739.989    2594.9127   -43334.901    78.110004 
   25100    216.95436    23.925997    132556.26   -40792.063    2649.5288   -43441.592    78.378618 
   25150    216.02037   0.12685761    132569.25   -40817.637    2638.1226    -43455.76    78.355416 
   25200    214.34965   -186.23207    132621.95   -40851.438    2617.7191   -43469.157    78.384196 
   25250    217.46859    4.8842455    132562.48   -40816.266    2655.8088   -43472.075    78.732121 
   25300    217.46544    27.920327    132619.37   -40800.908    2655.7703   -43456.678    78.942734 
   25350    214.79068   -82.753389    132619.26   -40829.581    2623.1051   -43452.686    78.805182 
   25400    213.31416   -19.921247    132342.86   -40829.111    2605.0734   -43434.185    78.866012 
   25450    216.52399    84.900689    132379.81   -40788.123    2644.2729   -43432.396    78.955911 
   25500    221.32641   -102.66316    132406.05   -40782.602    2702.9219   -43485.524    79.082598 
   25550    219.14269    51.711272    132605.03   -40750.587    2676.2535   -43426.841    79.405894 
   25600    211.83442    69.978047    132597.09   -40727.449    2587.0022   -43314.452    79.540991 
   25650    217.23129    31.791228    132578.23   -40714.656    2652.9108   -43367.566    79.534836 
   25700    218.71554    19.690701    132589.55   -40764.534     2671.037   -43435.571    79.559632 
   25750    211.71549    15.293479    132389.17   -40804.125    2585.5498   -43389.675    79.827722 
   25800    218.30619    17.238554    132488.01   -40742.236    2666.0379   -43408.274    80.029023 
   25850    211.24371    13.473116     132448.4   -40765.774    2579.7882   -43345.562    80.011515 
   25900     214.8906   -128.00064    132483.85   -40795.519    2624.3254   -43419.844    80.282559 
   25950    213.97876   -151.95999    132346.14   -40793.661    2613.1896   -43406.851    80.176271 
   26000     215.6501    117.90139    132400.94   -40793.711    2633.6008   -43427.312    80.272543 
   26050    213.64281    107.41007    132445.52   -40771.415    2609.0869   -43380.502    80.506284 
   26100    215.79385   -23.871773    132471.35   -40726.281    2635.3563   -43361.637    80.452434 
   26150    211.84039   -111.79953     132280.2   -40781.504    2587.0751   -43368.579    80.441963 
   26200    215.70572    12.123969    132238.03   -40748.209      2634.28   -43382.489     80.48325 
   26250     213.5854   -21.046686    132224.22   -40747.289    2608.3859   -43355.675    80.707768 
   26300    214.58095   -11.050189    132128.15   -40735.761    2620.5438   -43356.305    80.420868 
   26350     211.0419    5.8849769    132071.12   -40734.358    2577.3236   -43311.681    80.482413 
   26400    217.61708    135.88568    132085.14   -40694.998    2657.6222    -43352.62    80.717876 
   26450    217.26791    145.68459    132180.78   -40664.192    2653.3581    -43317.55    80.725696 
   26500    218.75747    142.09748    132326.55   -40660.911    2671.5491    -43332.46    80.997506 
   26550    213.51915   -37.763763    132207.37   -40681.633    2607.5768    -43289.21    81.246463 
   26600    217.23301    50.765663    132075.26   -40641.959    2652.9318   -43294.891    81.166489 
   26650    219.38655   -25.404171     132128.6   -40611.916    2679.2316   -43291.148    81.669611 
   26700    221.43476   -107.08228    132142.71   -40626.775    2704.2452    -43331.02    81.908029 
   26750    215.60454    122.93393    132277.01   -40674.258    2633.0443   -43307.302    82.210775 
   26800    216.86254      60.0104    132229.73   -40704.619    2648.4075   -43353.027    82.386019 
   26850    217.29698   -95.212467    132292.45   -40714.293    2653.7131   -43368.006     82.51158 
   26900    215.08848   -175.96077    132295.76   -40758.096     2626.742   -43384.838    82.690488 
   26950    211.84722    94.115829    132249.34   -40775.294    2587.1585   -43362.453    82.866291 
   27000    216.29613   -4.2921337    132377.15   -40748.326    2641.4902   -43389.816    83.015894 
   27050    212.58647   -182.84403    132368.31   -40761.324    2596.1864    -43357.51    83.127253 
   27100    216.81863   -24.727167    132496.35   -40777.408    2647.8713    -43425.28    83.195875 
   27150    211.06939   -30.518576    132432.11   -40820.633    2577.6593   -43398.293    83.207544 
   27200    215.03787    34.119394    132358.89    -40761.82    2626.1239   -43387.943    83.336064 
   27250    212.42779   -89.823548    132321.68   -40788.979    2594.2486   -43383.227    83.695643 
   27300    213.87621   -88.920494    132303.96   -40815.543    2611.9373    -43427.48    83.853836 
   27350    212.22387   -79.616305    132279.26   -40768.156    2591.7583   -43359.914    84.074401 
   27400    216.49508    140.24636    132245.68   -40764.472      2643.92   -43408.392     84.06461 
   27450    218.08199    38.361582    132390.95    -40742.34    2663.2999   -43405.639    84.379841 
   27500    217.76464    10.811764    132376.41   -40794.408    2659.4242   -43453.832    84.377413 
   27550    216.29533  -0.21007245     132420.9   -40789.909    2641.4806   -43431.389    84.428921 
   27600    212.98069    26.108041    132311.36   -40815.089    2601.0008   -43416.089    84.589278 
   27650    213.91216    123.08354    132382.81   -40832.309    2612.3763   -43444.686    84.430558 
   27700    217.25686   -132.38575    132414.07   -40811.298     2653.223   -43464.521     84.55655 
   27750    217.41617    123.04338    132460.22   -40764.151    2655.1687   -43419.319    84.622446 
   27800    217.27344   -6.0080466    132601.04    -40786.17    2653.4255   -43439.596    84.706114 
   27850     219.1001   -81.000252    132508.27   -40771.462    2675.7334   -43447.195    84.975336 
   27900    212.53114   -56.120742    132518.69   -40800.117    2595.5108   -43395.627    85.162801 
   27950    211.74603   -30.234212    132325.48   -40830.448    2585.9227   -43416.371    85.179053 
   28000    210.44922    20.934248    132296.92   -40854.536    2570.0856   -43424.621    85.161467 
   28050    215.03444    77.231812    132392.77    -40905.22     2626.082   -43531.302    85.461844 
   28100    211.30468   -88.047934    132334.15   -40893.483    2580.5327   -43474.016    85.669679 
   28150    214.43806    36.696904     132264.7   -40856.392    2618.7988   -43475.191    85.959738 
   28200    211.47811    82.325574    132338.92    -40843.89    2582.6508   -43426.541    86.156777 
   28250    212.41142     -80.9578    132382.32   -40860.441    2594.0488    -43454.49    86.453641 
   28300    214.40681   -151.10564    132276.91   -40817.834    2618.4172   -43436.251    86.679105 
   28350    212.82524   -116.41902    132213.54   -40831.049    2599.1025   -43430.152    86.876846 
   28400     215.1096    66.866846    132169.53   -40790.952    2626.9999   -43417.952    86.915835 
   28450    214.81955   -12.524333    132179.29   -40782.305    2623.4577   -43405.763    87.039569 
   28500    212.58941   -93.227228    132156.23   -40827.932    2596.2224   -43424.155    87.069276 
   28550    210.12174   -47.280049    132246.28    -40809.31    2566.0862   -43375.396    87.385937 
   28600    213.41626    14.993083    132169.64   -40837.048    2606.3202   -43443.369    87.589404 
   28650    213.76287    61.868151    132185.44    -40852.11    2610.5532   -43462.663    87.720579 
   28700    210.89078   -59.511043    132133.29   -40855.518    2575.4781   -43430.996    87.760897 
   28750    211.94042   -63.506148    132021.61   -40841.684    2588.2967   -43429.981    87.546611 
   28800    209.73426   -141.48606    131889.05   -40833.731    2561.3542   -43395.085    87.499349 
   28850    211.17301   -99.584833    131855.74   -40778.697    2578.9248   -43357.622    87.851662 
   28900     215.6605    130.29506    131903.14   -40783.733    2633.7277   -43417.461    87.955539 
   28950    212.29209   -61.043584    131911.42   -40795.326    2592.5914   -43387.917    87.926859 
   29000     211.6612     14.40166    131832.28   -40807.433    2584.8868    -43392.32    87.826606 
   29050    212.06781     28.27787    131861.18   -40789.368    2589.8525   -43379.221    88.107925 
   29100     211.0795   -161.75558    131680.32   -40840.844    2577.7828   -43418.626    88.271527 
   29150    214.72899    151.41261    131746.42   -40805.898    2622.3518    -43428.25    88.251405 
   29200    212.32232    53.578049    131766.27   -40754.515    2592.9606   -43347.476    88.382913 
   29250    220.60657   -55.238906     131688.6   -40740.781    2694.1309   -43434.912    88.709505 
   29300    214.02746    14.989414    131728.14   -40775.496    2613.7844   -43389.281    88.960622 
   29350    214.00595    167.42044     131847.7   -40782.058    2613.5217    -43395.58     89.22418 
   29400    214.85166   -53.175085    131869.53   -40776.935    2623.8498   -43400.784    89.526982 
   29450    210.67639   -242.87689    131726.37    -40796.47    2572.8598    -43369.33    89.452349 
   29500    216.09806    105.09081    131677.64   -40793.433    2639.0713   -43432.504    89.364451 
   29550    210.79188    26.955201    131776.39   -40813.403    2574.2703   -43387.673    89.452432 
   29600    211.87982    68.616935    131725.57   -40799.218    2587.5566   -43386.775    89.570587 
   29650    215.10469    155.88477    131826.37   -40774.795    2626.9399   -43401.735    89.789241 
   29700    210.51267    100.51482    131781.37   -40832.352    2570.8604   -43403.213     89.78267 
   29750    211.72234    -3.998233    131906.94   -40836.715    2585.6334   -43422.348    89.882594 
   29800    214.23037    -16.46026    132000.14   -40785.916    2616.2625   -43402.179    89.839422 
   29850    214.84833     7.754823    132002.15   -40797.784    2623.8091   -43421.593    89.816383 
   29900    214.37873    30.498764    132153.82   -40753.684    2618.0743   -43371.758    90.080276 
   29950    218.40527   -227.58712    132022.56   -40718.983    2667.2479   -43386.231    90.143875 
   30000    215.98154    127.58313    132023.25   -40722.248    2637.6483   -43359.896    90.377308 
   30050     215.0276    48.823426    132053.49   -40717.113    2625.9984   -43343.111     90.59708 
   30100    215.35587    43.871398       132128   -40690.782    2630.0074   -43320.789    90.846637 
   30150    215.03271    -14.40055    132020.72   -40704.173    2626.0609   -43330.234    91.078257 
   30200    217.18731   -76.682401    131968.54    -40682.93    2652.3737   -43335.304    91.021897 
   30250    215.86307    52.739093    131866.37   -40679.324    2636.2016   -43315.525    91.237676 
   30300      215.529    126.75045    131932.85   -40709.267    2632.1218   -43341.388    91.210497 
   30350    213.06078    52.483558    131966.47   -40725.968    2601.9789   -43327.947    91.127156 
   30400    214.59632    125.76263    132088.37   -40744.987    2620.7316   -43365.719    91.481114 
   30450    216.47038   -74.518493    132041.84   -40733.241    2643.6182   -43376.859     91.78843 
   30500    213.56713   -133.13748    131930.53   -40744.051    2608.1627   -43352.214    91.918412 
   30550    216.62746    149.52102    131807.61   -40758.056    2645.5365   -43403.592    92.042731 
   30600    213.33844    111.28468    131877.05   -40700.916    2605.3699   -43306.286    92.346627 
   30650    216.45233    70.890981    132103.25   -40684.835    2643.3978   -43328.233    92.463149 
   30700    215.26929   -42.819596    132111.65   -40709.062    2628.9501   -43338.012    92.634137 
   30750    213.74727   -108.90428    132081.68   -40730.036    2610.3626   -43340.399     92.70315 
   30800    215.63118    64.225914    132060.42   -40717.316    2633.3696   -43350.685    92.527431 
   30850     213.9493   -56.903175     132020.2   -40675.464    2612.8299   -43288.294    92.365521 
   30900    220.57832   -86.192721    131937.66    -40648.02     2693.786   -43341.806    92.370078 
   30950    216.75314    37.630517    131835.26   -40672.608    2647.0715   -43319.679    92.360257 
   31000    214.17294    57.476745    131923.15   -40672.309     2615.561    -43287.87    92.439265 
   31050      216.243   -48.603429    132032.51   -40723.014    2640.8414   -43363.856    92.611884 
   31100    212.71808    83.825653    132090.33   -40697.468    2597.7938   -43295.262     92.75052 
   31150    214.25763   -50.110176    132027.32   -40740.869    2616.5953   -43357.464     93.07674 
   31200    221.14467    76.388163     132145.3   -40686.415    2700.7024   -43387.117    93.242747 
   31250    216.31818    34.938056    132177.43   -40723.332    2641.7595   -43365.091    93.727329 
   31300    215.81847    117.28398    132112.75   -40704.472    2635.6569   -43340.129    94.087784 
   31350    216.55767   -121.56532    132033.23   -40698.103    2644.6842   -43342.787    94.377802 
   31400    217.09935   -81.924772    131956.84   -40684.197    2651.2995   -43335.496    94.468274 
   31450    218.91923    38.363098    131862.16    -40705.36    2673.5246   -43378.885    94.713251 
   31500    216.01476    42.426262    132063.22   -40743.198    2638.0541   -43381.252    94.829431 
   31550    213.78246    128.15905    132146.24    -40736.93    2610.7923   -43347.723    95.061923 
   31600    215.30409    7.2743105    132314.25   -40718.295    2629.3751    -43347.67    95.443194 
   31650    211.81404    222.58344     132425.7   -40747.522    2586.7532   -43334.276    95.506181 
   31700    215.01554    47.839541    132522.28   -40758.836    2625.8513   -43384.687    95.812765 
   31750    209.55848   -25.703633    132354.87   -40796.454    2559.2075   -43355.661    95.988831 
   31800    213.06448   -150.47004    132072.73    -40776.24    2602.0242   -43378.264    95.997123 
   31850    211.27368    61.663473    132000.11   -40761.811    2580.1541   -43341.966    96.157165 
   31900    211.23383    47.148715    132070.78   -40784.398    2579.6675   -43364.065    96.600792 
   31950    218.17469     189.6819    132317.79   -40681.947    2664.4319   -43346.379     97.04736 
   32000    218.07663    -63.19699    132329.24   -40690.033    2663.2345   -43353.267    96.960962 
   32050    215.81187   -50.485866    132246.08   -40717.688    2635.5763   -43353.265    97.055472 
   32100    213.53264    51.255794    132194.08   -40751.661    2607.7415   -43359.403    97.255376 
   32150    214.14332   -26.922334    132273.24    -40780.84    2615.1993   -43396.039    97.353824 
   32200    219.80953   -53.622546    132277.44   -40747.477    2684.3972   -43431.875    97.354713 
   32250     214.7427    27.656729    132295.27   -40772.788    2622.5191   -43395.307    97.482556 
   32300     216.3929   -31.974446    132237.55   -40807.508     2642.672    -43450.18    97.580842 
   32350    218.96625    90.069045    132216.28   -40776.546    2674.0988   -43450.645    97.708051 
   32400    218.35597    41.517103    132240.76   -40709.929    2666.6458   -43376.575    97.907556 
   32450    218.92512   -135.20744    132288.46   -40722.159    2673.5965   -43395.756    97.956678 
   32500    214.96607    54.132631    132349.39   -40708.712    2625.2471    -43333.96    98.275428 
   32550    218.99951   -33.042036    132383.16   -40693.262     2674.505   -43367.767    98.341453 
   32600    220.52431    108.17977     132402.6   -40738.692    2693.1264   -43431.819    98.131756 
   32650    214.40825     81.00339    132513.67   -40761.581    2618.4347   -43380.016     98.17902 
   32700    214.36477   -38.938874    132502.58    -40767.78    2617.9038   -43385.684    98.135816 
   32750    213.15941   -140.68568    132415.18   -40748.191    2603.1834   -43351.374    98.144946 
   32800    215.07867   -243.34559    132216.23    -40732.37    2626.6221   -43358.992    98.275653 
   32850    211.70317   -121.24475    132066.58   -40779.994    2585.3993   -43365.393    98.506719 
   32900     214.9542    43.820211    131886.11   -40813.576    2625.1021   -43438.678    98.666019 
   32950    212.87897    19.304326     131860.2   -40795.335    2599.7586   -43395.094    98.724611 
   33000    214.19621    116.46202    132017.91   -40793.365    2615.8452    -43409.21    98.973939 
   33050    214.74504    -133.2665    131978.79   -40732.665    2622.5477   -43355.213    98.970825 
   33100    218.14089    18.357199    132008.81   -40732.197    2664.0192   -43396.216    98.962495 
   33150    217.21597    39.404897    131988.85   -40712.727    2652.7237   -43365.451    99.052904 
   33200    221.45615    8.7062984    132143.71   -40661.241    2704.5064   -43365.747     99.39139 
   33250     218.4208   -80.782559     132182.4   -40680.168    2667.4375   -43347.606    99.540509 
   33300    218.46884    -38.76722    132250.27   -40743.136    2668.0242   -43411.161    99.641981 
   33350    215.76733    -5.964933    132286.62   -40761.851    2635.0323   -43396.883    99.952221 
   33400    212.93643   -71.883848    132456.98   -40778.733    2600.4603   -43379.193    100.07979 
   33450    216.78315   -97.548957    132395.53   -40724.126     2647.438   -43371.564    100.20763 
   33500    212.05677    41.963734    132312.85   -40723.725    2589.7176   -43313.443    100.45849 
   33550    212.74428    50.381147    132366.99   -40740.031    2598.1137   -43338.144    100.56709 
   33600    213.74953     37.50738    132368.28   -40717.052    2610.3902   -43327.443    100.66707 
   33650    215.78886    19.422104    132322.23   -40677.476    2635.2952   -43312.771    100.64432 
   33700    212.67954    18.445527    132316.64   -40698.733    2597.3231   -43296.056    100.68847 
   33750    213.14259    30.954969    132279.29   -40739.861     2602.978   -43342.839    100.86193 
   33800    213.68012    89.228431    132395.23   -40713.018    2609.5426   -43322.561    101.03407 
   33850    217.16098   -119.96932    132257.14   -40755.189    2652.0522   -43407.241    100.94031 
   33900    210.46136   -11.899424    132027.52   -40799.421    2570.2339   -43369.655    101.17879 
   33950    216.84512    97.532225    132120.41   -40768.911    2648.1947   -43417.105    101.27918 
   34000    211.44222   -62.592076    132028.36   -40750.057    2582.2125   -43332.269    101.49716 
   34050     210.6152    162.97428    131980.64    -40727.37    2572.1127   -43299.483    101.51196 
   34100    210.89863    46.376261    132087.79   -40743.557     2575.574   -43319.131    101.53951 
   34150    214.78525    48.753379    132096.23   -40711.247    2623.0388   -43334.286    101.88222 
   34200    212.63804   -169.39048    131895.92   -40773.114    2596.8162   -43369.931    101.87542 
   34250    214.63642     41.25276    131777.33   -40786.072    2621.2213   -43407.294    102.00557 
   34300    217.79017    153.18919    132009.29   -40728.032     2659.736   -43387.768    102.17876 
   34350    217.69706    30.126585    132134.85   -40704.422     2658.599   -43363.021    102.28441 
   34400    216.75393   -49.206296     132061.6   -40670.663     2647.081   -43317.744    102.45147 
   34450     216.8484    96.291241    132075.71   -40672.178    2648.2347   -43320.413    102.43704 
   34500    216.34752   -84.751275    132038.59   -40730.184    2642.1179   -43372.302    102.64504 
   34550    215.45301    8.1447281    132079.27   -40713.713    2631.1937   -43344.906    102.78395 
   34600    212.49414   -81.626296    132036.61   -40730.383    2595.0589   -43325.442    103.10043 
   34650    213.39863    106.11764    131937.48   -40723.957    2606.1049   -43330.062    103.12486 
   34700     216.6432    70.942371     131862.7   -40737.362    2645.7288   -43383.091    103.36981 
   34750    213.40694    231.32592    132016.07   -40721.499    2606.2064   -43327.706     103.7648 
   34800    216.19078    179.68416    132146.93   -40725.633    2640.2037   -43365.836     103.8589 
   34850     209.5141   -13.726943    132263.36   -40728.126    2558.6655   -43286.792    104.10447 
   34900    216.46822   -87.979242     132210.1   -40715.516    2643.5919   -43359.108    104.12326 
   34950    213.17139    139.97348    132154.14    -40747.09    2603.3297    -43350.42    104.33449 
   35000    215.95288   -56.184364    132159.49   -40694.751    2637.2983   -43332.049    104.57214 
   35050    214.00278    225.96351    132254.98   -40744.107     2613.483    -43357.59     104.7001 
   35100    208.34645   -109.76306    132340.37   -40769.173    2544.4058   -43313.578    105.02311 
   35150    214.01698    15.215726    132335.96   -40769.004    2613.6565    -43382.66    105.16129 
   35200    216.00639   -5.0970757    132336.17   -40748.832    2637.9519   -43386.784    105.29658 
   35250    214.69783   -18.583989    132427.74   -40715.444    2621.9713   -43337.415    105.52341 
   35300    214.65101   -103.87792    132249.72   -40715.815    2621.3995   -43337.215    105.88209 
   35350    218.08702   -123.71151    132081.37   -40759.377    2663.3613   -43422.738    105.92479 
   35400    214.66991    44.379246    132060.57   -40781.377    2621.6303   -43403.008    106.03046 
   35450     211.8674    34.569606    131909.01   -40815.643    2587.4049   -43403.048    106.12457 
   35500    210.44586   -28.590812     131909.3   -40851.388    2570.0446   -43421.432    106.45148 
   35550    213.11331    23.134016    132004.47   -40812.999    2602.6205    -43415.62    106.80419 
   35600     216.3205    37.272664    131997.02   -40789.763    2641.7879   -43431.551    106.69424 
   35650    213.42253   -33.984695    132042.73   -40720.492    2606.3968   -43326.889    106.67484 
   35700    220.39431    130.03613    132193.13   -40693.889    2691.5388   -43385.428    106.98649 
   35750    221.05587   -18.722115    132236.94   -40706.739     2699.618   -43406.357    107.23532 
   35800    217.14771   -8.5354755    132197.22   -40690.014    2651.8901   -43341.904    107.43306 
   35850    218.83289     165.9487    132343.04   -40672.615    2672.4701   -43345.085    107.73413 
   35900    216.16874    63.232002    132294.81   -40691.494    2639.9345   -43331.428    107.53147 
   35950    217.87567    115.82027    132411.36   -40683.083    2660.7802   -43343.863    107.51137 
   36000    214.00616    -116.4456    132233.88   -40757.135    2613.5243   -43370.659    107.69158 
   36050    214.80167    70.457385    132294.65   -40725.708    2623.2394   -43348.947    107.93088 
   36100     216.1334    25.146043    132126.67   -40689.175    2639.5029   -43328.677     108.0609 
   36150    212.84458    52.476659    132169.98    -40693.89    2599.3386   -43293.228    108.08745 
   36200    218.39785    102.08855    132212.43   -40672.705    2667.1572   -43339.862    108.22754 
   36250    216.53589   -3.0480205    132158.75   -40669.332    2644.4183    -43313.75    108.33793 
   36300    213.97817    3.6088462    132233.11   -40709.122    2613.1824   -43322.305     108.3584 
   36350    214.08519   -9.2176183    132180.46    -40706.19    2614.4895    -43320.68    108.57809 
   36400    215.67379   -134.52095    132148.91   -40720.369      2633.89   -43354.259    108.65917 
   36450    215.15074    67.564294    132151.26   -40763.281    2627.5023   -43390.783    108.62892 
   36500    211.48399   -99.784172    132064.83   -40713.579    2582.7226   -43296.302     108.6953 
   36550    215.67293    2.2729234    132021.77    -40654.55    2633.8795   -43288.429    109.14166 
   36600    216.20719   -176.89789    131837.96   -40693.452    2640.4041   -43333.856    109.48284 
   36650    217.96147    125.81188    131797.04   -40654.087     2661.828   -43315.915    109.78375 
   36700    218.64727   -95.504186    131887.21    -40642.18    2670.2033   -43312.383    109.90853 
   36750    213.58803    215.45959    131832.15   -40654.359    2608.4179   -43262.777    109.99778 
   36800    216.22918   -37.519905     131966.5   -40635.939    2640.6727   -43276.612    110.24801 
   36850    219.35249   -108.60966    131873.24   -40669.268    2678.8157   -43348.084    110.62215 
   36900    216.12053    77.792629    131918.76   -40671.448    2639.3457   -43310.793    110.99444 
   36950     218.2742    74.702511    132048.92   -40631.087    2665.6472   -43296.734    111.29459 
   37000    213.51302   -225.12983    131990.37   -40687.524    2607.5019   -43295.026    111.60129 
   37050    216.08785    27.997654    131899.86   -40665.515    2638.9467   -43304.462     111.6115 
   37100    212.21979   -8.4590743    131934.99   -40695.789    2591.7084   -43287.497    111.59416 
   37150    215.24348    6.3970374    132011.89   -40647.929    2628.6349   -43276.564    111.67113 
   37200    220.62084    172.95357    132063.17   -40628.304    2694.3052    -43322.61    111.84242 
   37250    215.84994   -84.737655    132094.38   -40620.389    2636.0413   -43256.431    112.33114 
[...]
  191000    212.35594    23.977832    132274.48   -40715.543    2593.3712   -43308.914    550.55616 
  191050    214.02759   -7.9010808    132119.85   -40726.729     2613.786   -43340.515    550.58918 
  191100    210.32213   -56.042451    132142.47   -40738.684    2568.5335   -43307.218    550.58373 
  191150    213.30029   -42.743678    132042.19   -40740.745    2604.9039   -43345.649    550.42144 
  191200    213.55773    46.040904    132022.91   -40730.567    2608.0479   -43338.615    550.45178 
  191250    215.07864    7.0981255    132041.61   -40677.426    2626.6218   -43304.048    550.32298 
  191300    214.79769    112.59322    132045.13   -40687.681    2623.1907   -43310.871    550.14091 
  191350    214.43309    -59.27006    132143.61   -40681.127    2618.7381   -43299.865     551.2838 
  191400    216.61044     94.18749    132159.74   -40665.181    2645.3288    -43310.51    551.27402 
  191450    218.32251    42.354722    132290.35   -40636.161    2666.2372   -43302.399    551.95846 
  191500    218.28718   -70.513621    132107.82   -40640.302    2665.8058   -43306.107     551.3678 
  191550     216.6336   -11.620864    132107.56   -40688.702    2645.6116   -43334.313    551.88805 
  191600    216.02441   -121.43852    132153.26   -40705.088    2638.1719    -43343.26    551.80609 
  191650    213.69038    -3.210647    132099.44   -40737.414    2609.6679   -43347.082    551.79367 
  191700     216.9435   -76.862122    132114.09   -40664.714    2649.3961    -43314.11    552.43164 
  191750    217.78823    110.44584    132081.28   -40616.639    2659.7123   -43276.352    552.31157 
  191800    216.14911   -8.1638638    132059.51   -40666.706    2639.6948   -43306.401    552.24862 
  191850     212.2625    136.45466    132161.29   -40681.234      2592.23   -43273.464    552.88848 
  191900    215.52857    84.069922    132168.24   -40661.398    2632.1165   -43293.515    553.35688 
  191950    217.42675   -90.249965    132170.64   -40646.226    2655.2979   -43301.524    553.26051 
  192000    218.20382    38.139979    132165.78    -40661.53    2664.7877   -43326.317    553.39262 
  192050    217.14296      29.5393     132155.7   -40671.593     2651.832   -43323.425    553.79066 
  192100    215.70166    79.875778    132169.49    -40667.81    2634.2304    -43302.04    554.17756 
  192150    219.87417    74.928532    132190.76    -40627.81    2685.1866   -43312.997    553.96211 
  192200    216.21799    35.144836    132113.18   -40693.911     2640.536   -43334.447    553.70867 
  192250    217.23781    17.908336    132150.27   -40689.439    2652.9904   -43342.429    553.59054 
  192300    217.62086    43.944837    132092.58   -40662.388    2657.6684   -43320.056     553.6024 
  192350    215.69667   -48.493339    132089.54   -40679.654    2634.1695   -43313.823    554.17852 
  192400    215.74161    -78.35909    132055.72   -40740.186    2634.7182   -43374.904    554.05436 
  192450    214.94671   -10.042609    131893.84   -40743.411    2625.0107   -43368.422    553.50546 
  192500    217.05296    95.841358    131864.49   -40749.938     2650.733   -43400.671    553.12535 
  192550    218.33542    256.53575    132020.78   -40758.236    2666.3949   -43424.631    553.27499 
  192600    213.41809   -172.97161    132009.68   -40736.368    2606.3425   -43342.711    553.33405 
  192650    216.38665    18.243597    132029.72   -40728.397    2642.5957   -43370.993    553.46396 
  192700    212.88497    117.16982    132082.97   -40720.931    2599.8318   -43320.762     554.0142 
  192750    213.50978   -37.841727    131954.29   -40756.664    2607.4623   -43364.126    553.19285 
  192800    216.91607    88.824288    132021.37   -40767.499    2649.0612   -43416.561    553.43251 
  192850    215.89552   -10.252289    132138.85   -40767.393    2636.5978   -43403.991    554.12779 
  192900    218.08528    200.76832    132325.06   -40753.726    2663.3401   -43417.066    554.99179 
  192950    213.28004    18.080819    132403.15   -40730.326    2604.6566   -43334.982    555.28211 
  193000    217.77658    27.369191    132335.22   -40686.015      2659.57   -43345.585    555.54601 
  193050    213.50804   -103.65949     132286.3   -40739.833    2607.4411   -43347.274    555.59672 
  193100    216.53003   -141.10472    132221.01   -40749.373    2644.3467    -43393.72    555.71465 
  193150    216.27546    1.7572044    132211.32   -40808.336    2641.2378   -43449.573    556.01787 
  193200    213.43479     88.31374    132227.51   -40844.992    2606.5465   -43451.539    556.80234 
  193250    213.28653   -24.958329    132428.77   -40822.018    2604.7359   -43426.754    557.05082 
  193300    214.39867    68.830396    132389.86   -40833.662    2618.3177    -43451.98    556.86235 
  193350    214.45013   -58.301883    132386.13   -40809.005    2618.9462   -43427.951    556.79182 
  193400    213.50416   -43.106886    132189.21   -40832.849    2607.3936   -43440.243    556.53579 
  193450    214.85434   -118.13154    132003.67   -40805.508    2623.8826   -43429.391    556.48162 
  193500    211.34821    58.092795    132066.67   -40819.164    2581.0644   -43400.229    556.78988 
  193550    211.86666   -12.886446    132209.77   -40863.618    2587.3959   -43451.014    557.07226 
  193600    215.08771      77.5598    132242.52   -40813.876    2626.7326   -43440.608    557.43477 
  193650    210.98419   -83.787102     132135.6   -40813.727    2576.6189   -43390.346    557.56087 
  193700    214.87238    103.26773    132160.85   -40802.175    2624.1029   -43426.278    557.36204 
  193750     215.2564    42.860971    132082.36   -40773.474    2628.7927   -43402.267    557.53788 
  193800    216.80921    104.86619    132200.32   -40770.267    2647.7562   -43418.023    557.91865 
  193850    219.01863   -110.84551    132143.81   -40736.132    2674.7384   -43410.871    558.00543 
  193900    218.91822   -74.430953    132137.88   -40723.529    2673.5122   -43397.041    558.67906 
  193950    211.78612    99.762605    132320.24   -40737.607    2586.4123   -43324.019    559.60946 
  194000    213.11798    64.821845     132452.2   -40691.705    2602.6775   -43294.383    559.93358 
  194050    217.26729    43.076837    132429.56   -40693.202    2653.3504   -43346.553    559.63957 
  194100    218.01058    -60.11368    132531.97   -40687.206    2662.4278   -43349.634    559.79974 
  194150    216.02257   -45.791535    132397.04   -40696.329    2638.1494   -43334.479    559.93246 
  194200    212.90952    13.246611    132417.26   -40750.799    2600.1317    -43350.93    559.27865 
  194250    213.70866    35.977027    132482.61   -40738.648    2609.8911   -43348.539    559.50537 
  194300    215.24104    36.628065    132472.21   -40782.496    2628.6052   -43411.101    559.16703 
  194350    216.88077    82.137853    132642.54   -40750.087    2648.6301   -43398.717    559.70369 
  194400    213.76378   -165.81093    132659.74   -40737.761    2610.5643   -43348.326    560.26323 
  194450    212.46236    110.91856     132561.6   -40782.317    2594.6708   -43376.988    559.97319 
  194500    213.03854   -34.984453    132582.24   -40771.352    2601.7074    -43373.06    560.05207 
  194550    218.24533    79.555697    132619.91   -40737.965    2665.2946    -43403.26    560.42278 
  194600    215.45941    74.379071    132580.71   -40771.367    2631.2719   -43402.639    560.67114 
  194650    216.27129    -141.6103    132509.95   -40791.233    2641.1869   -43432.419    560.98093 
  194700    215.12123    20.997693    132511.93   -40769.792    2627.1419   -43396.934    561.74317 
  194750    216.98129    167.29018    132630.48   -40782.776    2649.8577   -43432.634    562.37852 
  194800    212.65983    -112.7648     132520.3   -40785.531    2597.0824   -43382.614     561.6126 
  194850     211.7866   -34.012064    132261.53   -40814.388    2586.4182   -43400.807    561.49191 
  194900    214.99866   -38.766328     132302.4   -40834.072    2625.6451   -43459.717    561.74883 
  194950    214.15941   -51.326843    132170.03   -40832.439    2615.3959   -43447.835    561.54244 
  195000    210.18809    27.853653    132241.06   -40793.175    2566.8966   -43360.072    561.63946 
  195050    213.06922    146.47577    132335.84     -40741.1     2602.082   -43343.182    561.61335 
  195100    215.51216   -222.32943    132358.31   -40747.871    2631.9161   -43379.787    561.86477 
  195150     215.0363   -80.755127    132082.85    -40779.54    2626.1048   -43405.645    561.29591 
  195200    216.52145   -53.848639    132012.61   -40740.182    2644.2419   -43384.424    561.30262 
  195250    216.98483    117.84192    132069.49   -40812.787     2649.901   -43462.688     562.3493 
  195300    209.50794   -98.994174    132111.16   -40814.038    2558.5904   -43372.628    562.26044 
  195350    211.58176   0.14068972    132104.92   -40789.588    2583.9165   -43373.504    561.71274 
  195400    209.40532    43.855048    131977.94   -40838.815    2557.3371   -43396.152    561.56883 
  195450    214.16215   0.93455103    131953.26   -40829.672    2615.4293   -43445.102     562.2775 
  195500    211.44133   -108.65941    131988.84   -40804.871    2582.2016   -43387.072    562.83839 
  195550    211.73287    75.344925    131846.54   -40783.237     2585.762   -43368.999    561.91459 
  195600    212.90582   -15.585613    131926.31    -40834.97    2600.0866   -43435.057    562.55287 
  195650    209.87774   -58.154926     131973.4   -40841.922    2563.1065   -43405.029    562.37273 
  195700    210.71438    75.408065    131971.92   -40812.506    2573.3239    -43385.83    562.81832 
  195750    216.35897   -108.10121    131940.24   -40749.165    2642.2576   -43391.423    562.66976 
  195800    213.69757   -10.819785    131875.44   -40746.964    2609.7556    -43356.72     562.7197 
  195850    213.45668    124.08969    131848.64   -40763.241    2606.8139   -43370.055    562.63839 
  195900      212.507    74.875079     132013.3   -40716.572     2595.216   -43311.788    563.16441 
  195950    217.50939    -105.3504    131985.59    -40686.74    2656.3071   -43343.047     562.8497 
  196000     215.0299   -1.8968519    131874.83   -40698.474    2626.0266   -43324.501    562.71654 
  196050     216.4471   -11.702623    131900.91   -40686.708     2643.334   -43330.042    562.75673 
  196100    214.86263   -202.21069    131987.47   -40716.501    2623.9838   -43340.484    563.27863 
  196150     212.1905    57.279583    131776.62   -40708.597    2591.3507   -43299.947    562.67046 
  196200    218.57665    21.245486    131744.12   -40740.037    2669.3408   -43409.378    562.27094 
  196250    214.62711    114.89824     131792.5   -40725.994    2621.1076   -43347.101    563.22884 
  196300    213.65005    6.1586587    131805.51   -40774.329    2609.1753   -43383.505    563.79213 
  196350    212.21647    144.84355    131800.24    -40787.22    2591.6679   -43378.888    563.88191 
  196400    218.98952    3.7029076    131878.57   -40731.096    2674.3829   -43405.479    564.55886 
  196450    212.21888    2.5711127    131910.18   -40755.933    2591.6974   -43347.631    564.84705 
  196500    212.20121    32.087582    131811.57   -40790.836    2591.4816   -43382.317    564.83217 
  196550    211.13137    205.35265    131914.68   -40789.418    2578.4163   -43367.835    565.08038 
  196600    215.09383    67.276968    131867.77    -40834.09    2626.8074   -43460.897    565.03104 
  196650    215.40574   -71.636924       131971   -40817.117    2630.6165   -43447.733    565.08832 
  196700    216.02748    53.276016    131979.29   -40813.473    2638.2094   -43451.683    565.52961 
  196750    210.43625   -86.532936    131915.11   -40849.078    2569.9271   -43419.005    565.35816 
  196800    210.63825   -146.89877    131721.25   -40862.999    2572.3941   -43435.394    564.94579 
  196850    209.82752    196.82433    131757.53   -40872.682    2562.4932   -43435.175    565.49291 
  196900    212.13508   -78.036519    131735.82   -40873.292    2590.6739   -43463.966    565.66835 
  196950    212.01843   -95.852791    131725.38   -40884.205    2589.2494   -43473.455    565.64165 
  197000    214.46377    20.792751    131540.62    -40881.55    2619.1128   -43500.663    565.05008 
  197050    212.04982    94.093801    131609.84   -40883.552    2589.6327   -43473.185    564.73067 
  197100      211.478    39.207167     131616.1   -40873.242    2582.6494   -43455.892    564.86994 
  197150    211.88096    44.732823    131660.68   -40836.092    2587.5705   -43423.663    565.45786 
  197200    211.58702    58.423076    131675.28   -40831.183    2583.9808   -43415.164     565.7422 
  197250    213.18437    27.445642    131685.29   -40833.041    2603.4883   -43436.529    566.02399 
  197300    213.43715   -63.072504    131708.85   -40802.205    2606.5753   -43408.781    566.36903 
  197350    215.89617     -114.935    131671.65   -40798.302    2636.6059   -43434.908    566.08948 
  197400    214.33318    144.75667    131686.02   -40771.082     2617.518     -43388.6    566.80677 
  197450     214.5536   -6.0042308    131801.44   -40741.784    2620.2098   -43361.994    567.24102 
  197500    215.57366    69.763148    131823.66   -40747.525    2632.6672   -43380.192    567.51315 
  197550    215.48539    122.36424    132064.22   -40743.999    2631.5892   -43375.588    568.26446 
  197600    218.24562   -41.036277    132115.53   -40706.373    2665.2982   -43371.671    568.05723 
  197650    220.67303   -70.627022    132011.06   -40683.641    2694.9426   -43378.583    568.03133 
  197700    213.64251   -22.432431    131992.49   -40762.962    2609.0833   -43372.046    568.08263 
  197750    214.15266   -199.88538    131913.79   -40731.369    2615.3135   -43346.682    567.53341 
  197800    216.92463    -19.83131    131824.79   -40742.944    2649.1657    -43392.11    567.43002 
  197850    220.54513    76.076793    131922.58   -40702.648    2693.3807   -43396.029     568.2476 
  197900    212.72206   -107.27358    131761.31   -40792.049    2597.8424   -43389.892    567.86833 
  197950    212.41603    48.867179    131715.93   -40754.311     2594.105   -43348.416    567.80755 
  198000    214.47085     86.76788    131823.61   -40782.432    2619.1992   -43401.631    568.11988 
  198050    215.85966   -3.5412204    131922.45   -40794.344    2636.1599   -43430.504    568.52355 
  198100    216.88267    57.964433    131889.04   -40728.604    2648.6534   -43377.257    568.58841 
  198150    214.56074    4.5160749    131910.29   -40712.878     2620.297   -43333.175    568.77899 
  198200    220.45652    9.6743373    131931.33   -40664.698    2692.2985   -43356.996    569.00818 
  198250    215.74127   -16.314161    131796.91   -40687.747    2634.7141   -43322.461       568.98 
  198300    217.35761    136.48519    131880.24    -40716.48    2654.4535   -43370.934    569.94874 
  198350     219.5468    5.2305584    131974.49   -40661.322    2681.1886   -43342.511    570.31007 
  198400    213.01201   -33.756116    131878.57   -40749.013    2601.3833   -43350.396    570.40575 
  198450    215.80193     -30.7193    131817.58   -40785.981     2635.455   -43421.436    570.59213 
  198500    211.00095     86.23283    131850.97   -40785.589    2576.8236   -43362.413    571.09519 
  198550    216.22143    18.646515     131909.1   -40762.562     2640.578    -43403.14    571.75715 
  198600    214.93096    33.744728    132071.97   -40722.243    2624.8183   -43347.062    572.74464 
  198650    216.31059    34.908685    132018.55   -40735.338    2641.6669   -43377.005    572.39027 
  198700     219.9299   -82.736739    132117.58   -40732.015    2685.8673   -43417.882    573.28738 
  198750    215.47913    32.027412    131999.44   -40768.311    2631.5128   -43399.824     573.5291 
  198800    215.48984   -32.289434     131980.9   -40755.232    2631.6436   -43386.875    573.57823 
  198850    214.26607    18.388364    131953.18   -40741.308    2616.6984   -43358.007    574.10902 
  198900    211.49986   -72.457082    131894.87    -40786.65    2582.9163   -43369.566     574.1547 
  198950    211.45669    -27.89091    131966.76   -40776.005    2582.3892   -43358.394    574.24378 
  199000    215.23404    91.727491    132041.78   -40804.519    2628.5196   -43433.039    574.48407 
  199050    215.62696   -68.595431    132045.34   -40789.444    2633.3181   -43422.762    574.43473 
  199100    211.42413    122.06221    132000.18   -40791.091    2581.9916   -43373.083    574.47334 
  199150    211.66178    136.70803    132088.91   -40768.362    2584.8938   -43353.256    574.99259 
  199200    217.55443   -41.378083    132140.01   -40756.357    2656.8571   -43413.214    574.99527 
  199250    214.08992    43.967765    132060.36    -40765.69    2614.5472   -43380.237    574.69863 
  199300    217.96835   -27.315199    132076.14   -40747.099     2661.912   -43409.011     575.1021 
  199350    213.55531   -57.042535    132017.25   -40737.364    2608.0183   -43345.382    575.29564 
  199400    218.25252    90.914789    132072.24   -40707.887    2665.3825    -43373.27    575.33029 
  199450    212.28397   -89.294457     132083.2   -40765.586    2592.4923   -43358.079    575.59892 
  199500      213.262    113.28538     132192.1   -40777.909    2604.4363   -43382.345    576.35661 
  199550    211.19591     21.15148    132184.66   -40797.977    2579.2044   -43377.181    576.46107 
  199600    210.31917   -301.70367    132041.74   -40774.946    2568.4974   -43343.443    576.28648 
  199650    214.27124    -91.85101    131831.37    -40731.77    2616.7616   -43348.532     576.1276 
  199700    214.55574   -45.860746    131630.97   -40683.164     2620.236     -43303.4      576.196 
  199750    215.76749    79.081786    131647.14   -40709.915    2635.0343    -43344.95    575.52933 
  199800      216.767    12.135602    131746.45   -40720.532    2647.2407   -43367.773    575.97923 
  199850    213.36657   -25.713004    131792.26   -40695.905    2605.7134   -43301.618     576.3679 
  199900    212.25677    51.057149    131790.03   -40684.791      2592.16   -43276.952     576.6046 
  199950    215.46391    27.031181    131843.17   -40672.337    2631.3269   -43303.663    576.39569 
  200000    215.30304   -65.877821    131738.34   -40693.902    2629.3623   -43323.264    576.09437 
Loop time of 335.796 on 12 procs for 200000 steps with 4098 atoms

Performance: 257.299 ns/day, 0.093 hours/ns, 595.599 timesteps/s
99.6% CPU use with 12 MPI tasks x no OpenMP threads

MPI task timing breakdown:
Section |  min time  |  avg time  |  max time  |%varavg| %total
---------------------------------------------------------------
Pair    | 239.93     | 278.37     | 300.73     | 157.3 | 82.90
Neigh   | 6.1935     | 7.1406     | 7.9774     |  25.3 |  2.13
Comm    | 21.251     | 43.768     | 83.043     | 405.1 | 13.03
Output  | 0.14854    | 0.17232    | 0.41768    |  17.8 |  0.05
Modify  | 4.8218     | 4.9782     | 5.1768     |   4.9 |  1.48
Other   |            | 1.364      |            |       |  0.41

Nlocal:    341.5 ave 367 max 297 min
Histogram: 1 3 0 0 0 0 0 1 2 5
Nghost:    968.083 ave 1017 max 902 min
Histogram: 2 2 0 0 0 0 0 4 2 2
Neighs:    0 ave 0 max 0 min
Histogram: 12 0 0 0 0 0 0 0 0 0
FullNghs:  11184.5 ave 12210 max 9544 min
Histogram: 2 1 1 0 0 0 0 1 3 4

Total # of neighbors = 134214
Ave neighs/atom = 32.7511
Neighbor list builds = 11825
Dangerous builds = 0

write_data		${DIR}/data.eq-${NAME}-${TEMP}
write_data		run_2/data.eq-${NAME}-${TEMP}
write_data		run_2/data.eq-hardcavity_freeze_2-${TEMP}
write_data		run_2/data.eq-hardcavity_freeze_2-215
undump          1

reset_timestep  0

unfix           2
unfix           3
unfix           4


################################################
#######         Run Simulation         #########
################################################

log				${DIR}/log.run_${NAME}
log				run_2/log.run_${NAME}
log				run_2/log.run_hardcavity_freeze_2
