
# Set production fixes - Nose/Hoover
#
fix                 4 water temp/csvr ${START_TEMP} ${END_TEMP} 500.0 928347
fix                 4 water temp/csvr 240 ${END_TEMP} 500.0 928347
fix                 4 water temp/csvr 240 227 500.0 928347


## divide "droplet" into core and surface
#region		core_reg cylinder z 135 135 44.6 20 INF units box
#region		surface_reg cylinder z 135 135 44.6 20 INF units box side out
#group		core dynamic all region core_reg
#group		surface dynamic all region surface_reg

## compute pressure core
#compute        peratom_core core stress/atom NULL
#compute        p_core core reduce sum c_peratom_core[1] c_peratom_core[2] c_peratom_core[3]
#variable       press_core equal -(c_p_core[1]+c_p_core[2]+c_p_core[3])/(3*1249982.5)


## compute pressure surface
#compute        peratom_surf surface stress/atom NULL
#compute        p_surf surface reduce sum c_peratom_surf[1] c_peratom_surf[2] #c_peratom_surf[3]
#variable       press_surf equal -(c_p_surf[1]+c_p_surf[2]+c_p_surf[3])/(3*33365)

## compute total pressure of drop
compute        peratom water stress/atom NULL
compute        p water reduce sum c_peratom[1] c_peratom[2] c_peratom[3]
variable       press equal -(c_p[1]+c_p[2]+c_p[3])/(3*50320)


# compute order parameter
compute        3 all orientorder/atom nnn NULL cutoff 3.5

# compute center of mass of bridge
compute 	4 water com

# Run simulation
thermo_style        custom step c_2 press vol etotal ke pe v_press c_1[4] c_4[*]
thermo              200
dump		     1 water custom 400 ${DIR}/prod.${NAME}.dump id type x y z vx vy vz c_3[*] c_peratom[*]
dump		     1 water custom 400 run_24/prod.${NAME}.dump id type x y z vx vy vz c_3[*] c_peratom[*]
dump		     1 water custom 400 run_24/prod.ibeam_cooling_24.dump id type x y z vx vy vz c_3[*] c_peratom[*]
run                 ${STEPS}
run                 5200000
Neighbor list info ...
  update every 1 steps, delay 0 steps, check yes
  max neighbors/atom: 2000, page size: 100000
  master list distance cutoff = 6.67472
  ghost atom cutoff = 6.67472
  binsize = 3.33736, bins = 48 13 9
  2 neighbor lists, perpetual/occasional/extra = 1 1 0
  (1) pair sw, perpetual
      attributes: full, newton on
      pair build: full/bin/atomonly
      stencil: full/bin/3d
      bin: standard
  (2) compute orientorder/atom, occasional, copy from (1)
      attributes: full, newton on
      pair build: copy
      stencil: none
      bin: none
Per MPI rank memory allocation (min/avg/max) = 6.146 | 6.613 | 7.275 Mbytes
Step c_2 Press Volume TotEng KinEng PotEng v_press c_1[4] c_4[1] c_4[2] c_4[3] 
       0    247.15902    -361.8048    181563.75   -13270.651     1016.693   -14287.344   -709.51118    31.032399    78.725504    25.150941    16.377128 
     200    237.79919   -570.34016    181563.75   -13298.179    978.19122    -14276.37   -1469.1917    32.495549    78.723982    25.152748    16.389447 
     400    234.73201    -197.1648    181563.75   -13279.611    965.57432   -14245.185   -166.43018    33.962255    78.720308    25.151252     16.38594 
     600    227.00371   -194.35922    181563.75   -13378.658     933.7838   -14312.441   -102.40965    35.855701    78.719005     25.14932    16.408424 
     800    224.33918   -618.40848    181563.75   -13368.568    922.82322   -14291.391   -1635.2845    37.618603    78.714369    25.147792    16.422443 
    1000    240.06139    -327.5601    181563.75   -13253.555    987.49682   -14241.051   -620.66419    38.725124    78.709849    25.147889    16.401937 
    1200    232.82298   -301.03956    181563.75    -13344.53    957.72148   -14302.252   -518.73899    40.983936    78.706784     25.14673    16.419467 
    1400    250.53657    -427.2328    181563.75   -13239.284    1030.5867    -14269.87   -921.87732    42.243433    78.706963    25.149294    16.430359 
    1600    252.84274   -200.58512    181563.75   -13256.055    1040.0731   -14296.128   -141.71984    43.457893    78.707767    25.148526    16.439801 
    1800    240.99621   -411.17461    181563.75   -13286.964     991.3422   -14278.307   -881.87462     45.60599    78.707467    25.147096    16.391482 
    2000    252.17526   -348.89645    181563.75   -13186.582    1037.3274   -14223.909   -666.60908    47.101379    78.708181    25.152262      16.3965 
    2200    244.19353     -395.789    181563.75   -13211.625    1004.4944   -14216.119   -814.49968    48.676067    78.706435    25.153333    16.404829 
    2400    236.75287   -276.67666    181563.75   -13255.772    973.88717   -14229.659   -414.10262    50.746588    78.705473    25.158844    16.412684 
    2600    233.09143   -425.46985    181563.75   -13279.718    958.82575   -14238.543   -954.28128    51.565024    78.705962    25.158843    16.417673 
    2800    243.52037   -301.97435    181563.75   -13237.652    1001.7254   -14239.378   -488.84807    52.846509    78.706573    25.161696    16.383197 
    3000     238.3124   -388.10638    181563.75   -13307.073    980.30233   -14287.376   -819.59698    54.326787    78.708082    25.163593    16.356785 
    3200    237.16226   -333.00378    181563.75   -13294.599     975.5712    -14270.17   -650.55993    55.547207    78.710649    25.163847    16.350608 
    3400    240.80007   -306.20921    181563.75   -13284.677    990.53539   -14275.213   -560.77065    57.508855    78.713309    25.164436    16.329034 
    3600    238.48827   -338.14991    181563.75   -13261.566    981.02576   -14242.592   -654.43365     59.89035    78.712211    25.163069    16.347924 
    3800    239.08128   -381.15316    181563.75   -13255.862    983.46511   -14239.327   -759.38557    61.317935    78.712932    25.159706     16.34895 
    4000    240.35206   -268.18991    181563.75   -13285.096    988.69251   -14273.789    -360.6327    61.370056    78.707986    25.160279    16.332065 
    4200       248.28   -210.74176    181563.75   -13233.324    1021.3042   -14254.628   -166.51286     61.80392    78.702361    25.160097    16.335229 
    4400    245.09458   -358.87526    181563.75    -13201.32    1008.2009   -14209.521   -723.50036    62.352373    78.699647    25.152092    16.370501 
    4600    244.32897   -399.04885    181563.75   -13267.581    1005.0516   -14272.633   -819.02488    62.243566    78.701387    25.153674    16.380419 
    4800    239.68929   -195.45561    181563.75    -13241.37    985.96616   -14227.336    -149.3324    64.778929    78.701432    25.155582    16.393704 
    5000     241.9263   -436.44006    181563.75   -13308.265    995.16814   -14303.433   -982.94782    66.222349    78.702292    25.154904    16.383594 
    5200    228.69101   -371.59519    181563.75   -13314.278    940.72456   -14255.003   -777.83278    67.911378    78.704698     25.15376    16.401731 
    5400    235.27657   -279.90737    181563.75    -13319.88    967.81439   -14287.695   -384.01864    69.305809    78.702304    25.153242    16.393621 
    5600    234.59981   -230.29004    181563.75   -13356.195    965.03052   -14321.226    -203.1863    69.526691    78.702096    25.152773    16.422285 
    5800    246.47895    -385.2034    181563.75   -13214.636    1013.8956   -14228.532   -792.35343    72.045125    78.704315    25.150741    16.421075 
    6000    234.04765   -445.54662    181563.75   -13340.467    962.75918   -14303.226   -1026.6329    72.504069    78.702084     25.14853    16.420894 
    6200    241.67226   -494.74997    181563.75   -13307.439    994.12314   -14301.562   -1188.2511    74.212544      78.7039    25.141915    16.415562 
    6400    235.83596   -339.89624    181563.75   -13293.384    970.11542     -14263.5   -633.94008    74.762343    78.699965     25.14338    16.389713 
    6600    228.92562   -388.88594    181563.75    -13347.58    941.68964    -14289.27   -831.20942    76.253884    78.697627     25.14046    16.388589 
    6800    240.98204   -341.15485    181563.75   -13322.398    991.28392   -14313.682   -614.11678    77.030349    78.696399    25.135074    16.394255 
    7000    237.99269    -311.7325    181563.75   -13333.445    978.98719   -14312.432   -577.04674    78.041878    78.696182    25.132372    16.388003 
    7200    243.71923   -505.90903    181563.75   -13240.523    1002.5434   -14243.067   -1226.8233    79.548573    78.698121    25.131254    16.401167 
    7400    232.05981   -447.03251    181563.75   -13290.382    954.58215   -14244.965   -1020.4205    80.943143    78.699194    25.128436    16.373305 
    7600    234.66202   -410.22618    181563.75   -13333.556    965.28641   -14298.842   -950.82005    82.141444    78.700249    25.127865    16.375944 
    7800     239.3329   -278.35758    181563.75   -13253.261    984.50017   -14237.761    -411.0145    82.906323    78.698459    25.127354     16.35251 
    8000    239.82664   -403.64499    181563.75   -13255.066    986.53118   -14241.597   -896.21942    84.083068    78.698214    25.127417    16.338535 
    8200    233.52989   -424.57444    181563.75   -13315.956    960.62939   -14276.585   -970.63781    86.006863    78.698188    25.128662    16.352389 
    8400    235.10172   -424.58942    181563.75   -13318.621    967.09511   -14285.716   -986.52955     87.26352    78.696805     25.13215    16.361265 
    8600    238.63077   -423.63263    181563.75   -13256.053    981.61194   -14237.665   -959.11511    89.254372    78.695987     25.13211    16.371901 
    8800    243.22724   -241.99445    181563.75   -13275.953    1000.5196   -14276.473   -250.58859    90.778748    78.695867    25.127277    16.373312 
    9000    244.70979   -560.47761    181563.75   -13277.905    1006.6181   -14284.523   -1454.8123    92.244937    78.694757    25.124317    16.358382 
    9200    238.46626   -396.68547    181563.75   -13322.367    980.93521   -14303.302   -871.67545    92.791545    78.695716    25.122686    16.383992 
    9400    238.23394   -381.50567    181563.75   -13347.583    979.97956   -14327.563   -755.45334    94.842239    78.698142    25.117713    16.373811 
    9600    230.20585   -398.52982    181563.75   -13377.624     946.9559    -14324.58   -816.73484    95.973478    78.696934    25.117186    16.356927 
    9800    234.43976   -348.32837    181563.75   -13327.061    964.37213   -14291.433   -641.38348    97.408117    78.695384    25.112948    16.378524 
   10000    242.92625   -415.80967    181563.75   -13257.587    999.28146   -14256.869   -926.81465    98.623448     78.69314    25.107858    16.374888 
   10200    245.10799    -213.4056    181563.75   -13249.581    1008.2561   -14257.837    -178.3721    100.03738    78.688718    25.107768     16.38586 
   10400    243.84686   -557.44646    181563.75   -13271.749    1003.0684   -14274.817   -1422.6841    102.86055    78.691955    25.111007    16.423234 
   10600      242.826   -405.60598    181563.75   -13240.966    998.86907   -14239.835   -897.00143    104.80036    78.694394    25.106676    16.429081 
   10800    235.15748   -347.16055    181563.75   -13259.091    967.32449   -14226.416   -666.61703    107.98727    78.693945    25.105918     16.42984 
   11000     243.1659   -355.70826    181563.75   -13286.169    1000.2673   -14286.436   -692.18217    108.39478    78.693921    25.106414    16.443579 
   11200    238.18481    -472.9204    181563.75   -13277.567    979.77746   -14257.345    -1147.639    111.22675     78.69859     25.10721    16.434951 
   11400    237.45593   -396.08774    181563.75   -13274.136     976.7792   -14250.916   -867.78615    112.89964    78.697691    25.108712    16.437069 
   11600    247.84127   -254.42824    181563.75    -13262.37    1019.4995    -14281.87   -318.15226    115.17711    78.700792    25.112276     16.42596 
   11800    243.47251   -285.34703    181563.75   -13275.409    1001.5285   -14276.938   -467.25895    113.16112    78.700565    25.111206    16.450825 
   12000    242.81489   -631.54523    181563.75   -13219.151     998.8234   -14217.975   -1707.2323    113.81464    78.703539    25.113677    16.482158 
   12200    236.57026   -290.00631    181563.75   -13258.222    973.13598   -14231.358   -486.88595    115.95937    78.701229    25.114064     16.45426 
   12400    243.10527   -440.63556    181563.75   -13220.593    1000.0179   -14220.611   -1040.3976    117.18265    78.701099    25.109596    16.438248 
   12600    247.80954   -352.42449    181563.75   -13202.331     1019.369     -14221.7   -714.21194    117.78745    78.704553     25.10776     16.44156 
   12800    239.10596   -165.53161    181563.75   -13299.369    983.56666   -14282.936   -67.035845    120.01299    78.704097    25.105714    16.437812 
   13000    233.79607   -316.98165    181563.75   -13312.908     961.7243   -14274.633   -560.34331    119.64921    78.699498    25.108385     16.44513 
   13200    239.69447   -430.68549    181563.75   -13272.667    985.98747   -14258.655   -1024.5711    121.58439    78.696626    25.108656    16.444028 
   13400    245.20899   -466.88358    181563.75   -13241.672    1008.6716   -14250.343   -1124.3912     125.0617    78.695568    25.106727    16.440567 
   13600    246.65471   -399.93665    181563.75   -13272.613    1014.6185   -14287.231   -879.43391    124.39677    78.696614    25.109039     16.46876 
   13800    236.72036   -346.09737    181563.75   -13335.251    973.75345   -14309.005   -724.94386    124.98284    78.696685    25.105029    16.446426 
   14000    240.70296   -449.64416    181563.75   -13284.911    990.13591   -14275.047   -1028.9377    125.99674    78.701792    25.105788    16.454929 
   14200    227.50224   -344.35148    181563.75   -13317.244    935.83453   -14253.079   -671.55593    127.39965    78.702111    25.106631     16.46383 
   14400    232.73724   -422.21813    181563.75   -13363.661     957.3688   -14321.029   -977.88962    128.74084    78.701957    25.103295    16.460839 
   14600    229.92069   -426.95602    181563.75   -13321.354    945.78286   -14267.136   -1000.2309    129.31034    78.704864    25.102726    16.450815 
   14800     238.5839   -280.66894    181563.75   -13276.915    981.41912   -14258.334   -484.14392    130.42915     78.70075    25.099086    16.457375 
   15000    232.12334   -283.17423    181563.75   -13285.152    954.84351   -14239.995   -478.48312    132.10398    78.700453    25.096978    16.465582 
   15200     228.0661   -394.97701    181563.75   -13325.148    938.15396   -14263.302   -862.49227    134.13719    78.696385    25.095319    16.453582 
   15400    250.36428   -275.27255    181563.75   -13274.723    1029.8779   -14304.601   -452.14798    135.59254    78.691079    25.091355     16.47209 
   15600    239.11612   -405.55144    181563.75   -13338.833    983.60843   -14322.442   -891.83325    138.12293    78.689419    25.094346    16.460819 
   15800    244.57976   -346.56766    181563.75   -13257.438    1006.0832   -14263.521   -680.77683    138.45237    78.689266    25.093431    16.446974 
   16000    238.14848   -349.29785    181563.75   -13312.328    979.62801   -14291.956   -646.68322    138.93623      78.6917    25.093732    16.451032 
   16200    242.40573   -279.77414    181563.75   -13234.991    997.14031   -14232.132   -480.82119    138.28502    78.693303    25.095055    16.454659 
   16400    246.93638   -494.76483    181563.75   -13193.806    1015.7772   -14209.583   -1196.0101    139.71049    78.694121      25.0989    16.447409 
   16600    241.21798   -330.55091    181563.75   -13266.616    992.25445    -14258.87   -624.16087    141.32828    78.694226    25.098937    16.417501 
   16800    243.37889   -285.35417    181563.75    -13270.19    1001.1434   -14271.333   -469.55011    142.00643    78.695425    25.097881    16.404947 
   17000    238.25266   -515.19166    181563.75   -13275.193    980.05656    -14255.25   -1281.7253    143.73936    78.698272     25.09728    16.399247 
   17200    239.47885   -341.45657    181563.75   -13308.355    985.10054   -14293.455   -685.79609    145.18751    78.697021    25.097931    16.435786 
   17400    241.31029   -296.58196    181563.75   -13261.587    992.63421   -14254.221   -516.23885    145.98681    78.698472    25.097666    16.411834 
   17600    249.27358   -293.52217    181563.75   -13189.146    1025.3913   -14214.538   -492.31488     146.4605    78.699344    25.097613    16.364169 
   17800    248.76943   -395.50733    181563.75   -13233.181    1023.3175   -14256.499   -841.04373    150.57619    78.699968     25.09436    16.354368 
   18000    249.97059   -266.46485    181563.75   -13248.618    1028.2585   -14276.877   -419.04382    149.84324    78.701341     25.09237    16.359813 
   18200    229.57164   -247.08374    181563.75   -13252.259    944.34704   -14196.606   -342.81172    150.74503    78.703595    25.091557    16.370338 
   18400    232.10593   -376.00863    181563.75   -13274.749    954.77188   -14229.521   -794.99761    153.60601     78.70668     25.09049    16.369003 
   18600    234.71129   -323.93399    181563.75   -13220.329    965.48908   -14185.818   -621.69051    155.57472    78.708183    25.086875    16.354381 
   18800    241.90385   -315.02938    181563.75   -13252.003    995.07579   -14247.078   -555.63029    157.48066    78.706739    25.084025    16.373734 
   19000    236.33703   -310.99001    181563.75   -13270.166    972.17661   -14242.343   -542.75195    158.85931    78.707206    25.082042    16.365955 
   19200    239.23242   -455.25065    181563.75   -13265.114    984.08684   -14249.201   -1052.9632      160.117    78.705928    25.076814    16.395245 
   19400    239.22785   -314.55125    181563.75   -13242.375    984.06805   -14226.443   -547.93335    160.88021    78.709852    25.075902    16.405971 
   19600    236.86661   -282.43715    181563.75   -13317.791    974.35504   -14292.147   -430.31826    163.40802    78.714264    25.072633    16.411384 
   19800    241.38544   -331.24689    181563.75   -13285.105    992.94333   -14278.049   -573.77733    166.68582    78.716112    25.073439    16.404598 
   20000    235.09221   -259.30564    181563.75   -13350.135      967.056   -14317.191   -388.50316    166.72633    78.711973    25.073911    16.377148 
   20200    245.19731   -500.45683    181563.75   -13360.247    1008.6235    -14368.87   -1200.7372    169.26515    78.714693    25.072198    16.378665 
   20400    235.96382   -268.70735    181563.75   -13397.171    970.64138   -14367.813    -407.5618    170.00949    78.720072      25.0738    16.355086 
   20600    243.76255   -243.06854    181563.75   -13335.785    1002.7216   -14338.506    -271.9272    172.07367    78.722773    25.077414    16.343779 
   20800    234.47409   -358.02594    181563.75   -13340.848    964.51337   -14305.361   -751.34026    171.67613     78.72626    25.074252    16.346074 
   21000     246.3296   -309.10898    181563.75   -13296.781    1013.2812   -14310.062   -483.44475    174.68304    78.722957     25.07092    16.359986 
   21200    238.05257   -604.98046    181563.75     -13291.3     979.2335   -14270.534   -1582.4869    176.79297    78.720484    25.065923    16.363641 
   21400    236.52839    -182.0782    181563.75   -13355.157    972.96375   -14328.121    -51.01535    177.89272    78.719665    25.062586     16.36009 
   21600    236.00962   -349.06277    181563.75   -13280.447     970.8298   -14251.277   -686.55293    180.15618    78.713247     25.06088    16.361013 
   21800    243.31563   -430.87744    181563.75   -13273.614    1000.8832   -14274.497   -968.88013    181.36975    78.713861    25.061315    16.369392 
   22000    238.89576   -252.04171    181563.75   -13289.645    982.70199   -14272.347   -345.71062    183.27212    78.716322    25.068712    16.362401 
   22200    239.89775   -449.63777    181563.75    -13272.88    986.82369   -14259.704   -1016.0752    184.11677    78.720759    25.073686    16.377769 
   22400    241.41457   -297.81392    181563.75    -13288.72    993.06314   -14281.784   -516.09229    184.65204     78.72108    25.074342    16.368628 
   22600    233.49994   -287.27052    181563.75    -13336.96    960.50617   -14297.466   -463.56459    184.73758    78.725593    25.076867    16.374128 
   22800    243.82514    -329.2616    181563.75   -13280.511    1002.9791    -14283.49   -569.69819    185.57396     78.72485    25.075945    16.398051 
   23000     238.4687   -385.77727    181563.75   -13293.376    980.94524   -14274.321   -823.03074    190.07547    78.724379    25.078085     16.38067 
   23200    239.53219   -254.39738    181563.75    -13298.15    985.31993    -14283.47   -317.17426    191.17499    78.723257    25.080223    16.382606 
   23400    239.61518   -374.72685    181563.75   -13258.353    985.66133   -14244.014   -789.37039    195.63317    78.722594    25.082607    16.401816 
   23600    242.98145    -310.9024    181563.75   -13352.569    999.50852   -14352.077   -544.80335    196.32887    78.723523    25.085275    16.393122 
   23800    231.61962   -411.11675    181563.75   -13375.548    952.77143   -14328.319   -880.36869     198.2438    78.721958    25.086955    16.407139 
   24000    240.03745   -452.71371    181563.75   -13305.562    987.39833    -14292.96   -1069.6657    196.58698    78.724698    25.080619    16.415813 
   24200    244.85507   -358.62263    181563.75   -13304.174    1007.2157    -14311.39   -714.17303    195.35976    78.724346    25.079481    16.401635 
   24400    237.54682   -418.91251    181563.75   -13255.624    977.15311   -14232.778   -907.46436    195.82219    78.722389    25.080343     16.38262 
   24600    237.56064   -344.13502    181563.75   -13268.298    977.20994   -14245.507   -643.57317     199.8009    78.723075    25.083457    16.387835 
   24800    234.19196   -337.16407    181563.75   -13275.284    963.35281   -14238.637   -616.71146    200.73663    78.724134    25.087034    16.380886 
   25000    235.77694   -421.33015    181563.75   -13287.701    969.87268   -14257.574   -898.16059    201.89789    78.723777    25.090017    16.396706 
   25200    241.35509    -418.3701    181563.75    -13270.63    992.81849   -14263.449   -957.33992    203.94692    78.722743    25.089478    16.380795 
   25400    243.44499   -472.22766    181563.75   -13302.403    1001.4153   -14303.818   -1078.3223    207.14498     78.72353    25.089041    16.407123 
   25600    241.30829    -515.7054    181563.75   -13288.712    992.62595   -14281.338   -1248.9871    208.59322    78.727418    25.089594    16.420814 
   25800    242.65711   -427.65717    181563.75   -13319.631    998.17436   -14317.805   -1004.0617    212.94684    78.731943    25.093596    16.409883 
   26000    231.00825   -421.76042    181563.75   -13355.703    950.25658    -14305.96   -901.30427    212.30758    78.734748    25.100266    16.414473 
   26200    232.83092   -274.22065    181563.75   -13317.165    957.75414    -14274.92    -383.7338    212.69149    78.734672    25.104013    16.401691 
   26400     240.6017   -260.74616    181563.75   -13345.439    989.71938   -14335.158   -367.67374    213.54232    78.732681    25.104413     16.43153 
   26600    236.98342   -318.24229    181563.75   -13342.417    974.83554   -14317.253   -550.66635    215.28565    78.728486    25.105918    16.447134 
   26800    241.92015   -299.16045    181563.75   -13290.503    995.14284   -14285.646   -468.54647    216.05962    78.727176    25.106024    16.422908 
   27000    235.55895   -357.03823    181563.75   -13322.697    968.97596   -14291.673   -684.35767    217.32807    78.724859     25.10839    16.414549 
   27200    243.74121   -386.47666    181563.75   -13245.585    1002.6338   -14248.219   -808.82641    219.68602    78.723567    25.108668    16.430922 
   27400    250.48291   -246.89534    181563.75   -13236.535    1030.3659   -14266.901   -316.05598    219.86764     78.72164    25.110586    16.428301 
   27600    245.93841   -441.26328    181563.75   -13277.919     1011.672   -14289.591   -1015.6625    223.23492    78.719442    25.113474    16.427241 
   27800    230.41637   -315.95587    181563.75   -13383.278    947.82186     -14331.1   -533.27025    225.82316    78.717933    25.114056    16.421025 
   28000    235.75107    -364.8593    181563.75   -13334.491    969.76623   -14304.258   -727.87103    226.56143    78.718811    25.112049    16.428684 
   28200    248.62841   -414.99439    181563.75    -13297.86    1022.7374   -14320.597   -905.60819    227.01332    78.722619    25.110174    16.416996 
   28400    236.10546   -248.56237    181563.75   -13290.354    971.22403   -14261.578   -294.38079    227.96959    78.725598    25.107474    16.432653 
   28600    236.62144   -317.71822    181563.75    -13294.61    973.34652   -14267.956   -558.05398    230.60422    78.725949    25.107762    16.419558 
   28800    233.68731   -401.77893    181563.75   -13360.934    961.27692   -14322.211   -869.47459    232.99017    78.722245    25.107739    16.402495 
   29000    237.33162   -413.51953    181563.75   -13306.955    976.26785   -14283.223   -890.89419    233.57924    78.719545    25.109609    16.390597 
   29200    243.27491   -332.98387    181563.75   -13292.322    1000.7157   -14293.038    -615.4281    236.83442    78.721549    25.110239    16.385199 
   29400    233.92011   -356.41562    181563.75   -13279.136    962.23454   -14241.371     -731.082    238.89129    78.716807      25.1075    16.383926 
   29600    242.23562   -389.35273    181563.75   -13299.306    996.44055   -14295.747   -805.67371    241.21714    78.715626    25.105252    16.381612 
   29800    238.92191   -423.81195    181563.75   -13259.561    982.80955   -14242.371   -911.34929    244.22464    78.717509    25.108199    16.377124 
   30000    235.05821   -480.74294    181563.75   -13274.028    966.91615   -14240.944   -1149.2026    244.43251    78.717868    25.108909     16.34086 
   30200    234.86657   -372.53189    181563.75   -13328.668    966.12785   -14294.796   -832.89972    244.54946    78.719528    25.106248    16.332726 
   30400    236.10285   -458.80375    181563.75   -13352.369    971.21329   -14323.582   -1063.9252    243.33348    78.723241    25.101641    16.326548 
   30600    239.86584   -402.88514    181563.75    -13353.24    986.69242   -14339.932   -885.18487     244.0356    78.724547    25.099275    16.300176 
   30800    229.60498   -257.13259    181563.75   -13291.636     944.4842    -14236.12   -319.88694    244.15852    78.724506    25.095695    16.306099 
   31000    235.87911   -306.82284    181563.75   -13309.455    970.29292   -14279.748   -516.63141    245.79631    78.726446    25.094458    16.295638 
   31200    243.42785   -477.28144    181563.75   -13272.006    1001.3448   -14273.351   -1126.3949    244.08566     78.72835    25.092554    16.275547 
   31400    241.89829   -277.34941    181563.75    -13295.45    995.05294   -14290.502   -429.77368    245.82258    78.732246    25.092853    16.288235 
   31600    247.62452   -428.79788    181563.75   -13234.023    1018.6079   -14252.631   -958.90062    247.33064    78.732051    25.091128    16.269573 
   31800    234.66803   -551.92244    181563.75   -13298.322    965.31113   -14263.633    -1398.925    248.67468    78.729902    25.093297    16.274196 
   32000    233.63863   -375.92406    181563.75   -13271.314    961.07666   -14232.391   -765.54115    249.02865    78.733182    25.094128    16.285106 
   32200    238.52932   -396.51494    181563.75   -13318.307    981.19461   -14299.501   -828.78576    250.25454    78.732509    25.094874    16.314534 
   32400    241.89871    -286.2078    181563.75   -13308.926    995.05465    -14303.98   -446.09495    251.96926    78.727274    25.093756    16.303525 
   32600    241.18336   -451.97591    181563.75   -13269.795    992.11208   -14261.907   -1017.7543    253.74543    78.726639    25.093134    16.324224 
   32800     239.1427   -510.95402    181563.75   -13285.867    983.71778   -14269.585   -1243.1264    253.18124    78.727339    25.090881    16.330628 
   33000    238.95618   -452.71676    181563.75   -13271.417    982.95051   -14254.368   -1013.4954     254.5823    78.725957    25.086001    16.365851 
   33200    239.17775   -340.31384    181563.75   -13326.212    983.86194   -14310.074   -627.07178    256.00819    78.726339    25.082815    16.363506 
   33400    235.97448   -393.65618    181563.75   -13331.661    970.68524   -14302.346   -849.97292    258.94236    78.725831    25.081344    16.374802 
   33600    242.37329   -434.73385    181563.75   -13348.456    997.00687   -14345.462   -983.85343    261.82998     78.72685    25.078835    16.393383 
   33800     254.0972   -427.48835    181563.75   -13307.006    1045.2334    -14352.24   -883.90841    262.77955    78.727401     25.07656    16.399871 
   34000    239.97435   -333.96852    181563.75   -13342.886    987.13877   -14330.025   -580.86452    266.51175    78.728236    25.077476    16.401948 
   34200    239.07348   -387.00131    181563.75   -13361.276    983.43304   -14344.709   -825.24781    265.24825    78.728419    25.081308    16.400734 
   34400    238.14612   -308.66706    181563.75   -13363.268    979.61832   -14342.886   -518.59665    267.10379    78.730349    25.080833    16.416918 
   34600    236.42464    -299.7633    181563.75   -13340.089      972.537   -14312.626   -461.19326    270.59324    78.729444    25.078196    16.388363 
   34800    240.36887   -404.32872    181563.75   -13308.848    988.76165   -14297.609   -930.56413    269.35633    78.730529    25.078348    16.396461 
   35000    243.41972   -209.05603    181563.75   -13319.141    1001.3114   -14320.452   -208.98582    268.17552    78.734436    25.079167    16.375739 
   35200    246.01626   -276.00501    181563.75   -13295.063    1011.9923   -14307.056   -434.31599    270.40484    78.733777    25.077785    16.354288 
   35400    237.82018   -302.09509    181563.75   -13264.298    978.27757   -14242.576   -564.52514    272.21875    78.731712    25.075383    16.351176 
   35600    235.32296   -364.01281    181563.75    -13310.51     968.0052   -14278.515   -724.58845     271.1845    78.732495    25.073264    16.342353 
   35800    241.93757   -346.81787    181563.75   -13250.335     995.2145    -14245.55   -617.07907     270.5666    78.735032    25.074137    16.337989 
   36000    237.37034   -446.78918    181563.75    -13315.29    976.42715   -14291.717   -984.31799    272.21352    78.733243    25.081215    16.336294 
   36200    232.62634   -223.00614    181563.75   -13327.768    956.91259    -14284.68   -206.62536    270.20198    78.728625    25.083671    16.345145 
   36400    247.59307   -396.42473    181563.75    -13275.42    1018.4785   -14293.899    -887.6913    273.13143    78.729589    25.082873     16.33363 
   36600     233.4578   -391.79106    181563.75   -13315.639    960.33282   -14275.972   -833.05849     278.3081    78.726093    25.083099    16.338631 
   36800    235.24798   -312.03816    181563.75   -13313.868    967.69677   -14281.565   -531.24465    281.99214    78.721702    25.084519    16.318821 
   37000    244.65171   -384.73113    181563.75   -13275.996    1006.3792   -14282.375   -823.73591    284.62602    78.723849    25.084051    16.324269 
   37200    233.91962   -251.52526    181563.75   -13336.977    962.23252   -14299.209   -298.30436    284.36822    78.723592    25.086731    16.319174 
   37400    244.37323   -277.09651    181563.75    -13283.16    1005.2337   -14288.394   -500.45665    285.01812     78.72119    25.086681    16.323532 
   37600    238.22885   -374.69867    181563.75   -13248.628    979.95863   -14228.586    -758.4644    288.05383    78.718339    25.084566    16.318369 
   37800    240.47646   -235.61883    181563.75   -13291.588    989.20422   -14280.792   -314.97504    289.65794    78.718582    25.082984    16.321068 
   38000    237.66167   -419.71604    181563.75   -13300.476    977.62554   -14278.102   -958.88022     291.3214     78.71532    25.079615    16.321154 
   38200    237.43378   -482.11262    181563.75   -13273.249    976.68811   -14249.937   -1206.1903    295.85584    78.715461    25.081609    16.310889 
   38400    251.28584   -308.69112    181563.75   -13272.442    1033.6688   -14306.111    -538.7391    296.05847     78.71596    25.086884    16.330389 
   38600    236.92206   -362.60796    181563.75   -13289.987    974.58313    -14264.57   -708.74532    299.02039    78.717594    25.090337    16.340258 
   38800    239.03308   -400.84757    181563.75   -13298.946    983.26685   -14282.213   -843.88848    297.61049    78.717076    25.092762    16.342612 
   39000     242.5189   -432.41907    181563.75   -13274.753    997.60582   -14272.359   -1013.3759    299.82139    78.717462    25.090446    16.341181 
   39200    234.29004   -477.87254    181563.75   -13353.356    963.75627   -14317.112   -1117.8059    301.06254    78.717525    25.088571    16.338105 
   39400     241.9925   -339.15169    181563.75   -13281.005    995.44049   -14276.445   -647.24448    299.48484    78.717031    25.087626    16.329794 
   39600     238.9337   -569.13342    181563.75   -13295.174    982.85805   -14278.032   -1511.4622    300.53411    78.716749    25.089357    16.315948 
   39800    245.81845    -489.5067    181563.75   -13208.562    1011.1786   -14219.741   -1215.6559    300.97762    78.715401    25.091618    16.307885 
   40000    231.42168   -246.18072    181563.75   -13294.396    951.95722   -14246.353   -313.42461    297.64218    78.711993    25.095041    16.312852 
   40200    235.13575   -440.34012    181563.75   -13338.644    967.23511   -14305.879   -1013.3788     297.8115    78.710256    25.096386    16.322944 
   40400    253.85344   -388.44111    181563.75   -13235.236    1044.2307   -14279.467   -833.66881    295.45907    78.711601    25.094511    16.312559 
   40600     230.9994   -384.67332    181563.75   -13373.225    950.22017   -14323.445   -828.43704    297.46343    78.712776    25.091901     16.29514 
   40800    242.76291   -291.44066    181563.75   -13298.987    998.60957   -14297.597      -511.84    299.13321    78.714734     25.08961    16.305783 
   41000    235.66206   -532.02233    181563.75   -13253.962    969.40008   -14223.362   -1341.1103    304.26927    78.716075    25.083956     16.30419 
   41200    241.43451   -336.11971    181563.75   -13251.839    993.14515   -14244.985   -639.72752    304.03569    78.717425    25.081007     16.31608 
   41400    238.39814   -385.82118    181563.75   -13241.865    980.65499    -14222.52   -800.18496    308.95571    78.718726     25.08131    16.315508 
   41600    242.44845   -312.72371    181563.75   -13206.045    997.31603   -14203.361   -578.98788    311.58271    78.720963     25.07948    16.279186 
   41800    237.92747   -473.14636    181563.75   -13252.546     978.7189   -14231.264   -1151.3483    314.85695    78.718972    25.077525    16.310392 
   42000     239.5111   -312.48865    181563.75    -13245.34    985.23319   -14230.573    -581.1709    317.46325    78.718995    25.077122    16.300787 
   42200     240.9466    -354.5776    181563.75   -13222.473    991.13816   -14213.611   -747.76487    318.15605    78.719576    25.078288    16.284777 
   42400    239.50982   -327.13232    181563.75   -13247.762    985.22792    -14232.99   -605.79678    318.43804    78.720358    25.075947    16.293077 
   42600    237.97591   -520.89249    181563.75   -13257.817    978.91818   -14236.735   -1280.3652    320.08835    78.720831    25.076144    16.293793 
   42800    240.68546   -285.08243    181563.75   -13214.741    990.06395   -14204.805   -407.34544    317.81603    78.719681    25.072042    16.338041 
   43000    245.32653   -362.69654    181563.75   -13207.466    1009.1551   -14216.621   -687.44721    320.29836    78.719771    25.072053    16.343542 
   43200    242.04683   -271.94109    181563.75   -13255.637    995.66396   -14251.301   -390.93681      322.121    78.718699    25.071576    16.340467 
   43400    234.77873   -129.42034    181563.75   -13287.108    965.76648   -14252.875    124.86642     324.8023    78.717607      25.0733    16.358993 
   43600    236.94715   -408.51129    181563.75   -13300.208    974.68632   -14274.894   -899.20539    327.37963     78.71144     25.07578      16.3595 
   43800    233.17928   -363.57026    181563.75    -13256.16    959.18713   -14215.347   -726.70738    329.21644     78.70853    25.075691    16.344202 
   44000    235.35489   -439.07823    181563.75   -13333.203    968.13654   -14301.339   -986.88714     329.9133     78.70511    25.076301    16.323466 
   44200    233.99929    -519.7364    181563.75   -13273.896    962.56026   -14236.456   -1293.1439    333.16502    78.708825    25.076316    16.310682 
   44400    244.31302   -484.81395    181563.75   -13200.929     1004.986   -14205.915   -1161.6196    335.24737    78.707981    25.074823    16.319224 
   44600    242.32944   -463.36699    181563.75   -13288.302    996.82647   -14285.129   -1088.0837    331.43227    78.706594    25.079775    16.332868 
   44800     238.8607   -553.63463    181563.75   -13272.436    982.55774   -14254.994   -1374.1687    330.58593    78.706387    25.080011    16.333992 
   45000    244.49779   -438.29808    181563.75    -13273.74     1005.746   -14279.486   -981.19491    333.56829    78.708085    25.084423    16.328562 
   45200    249.33511   -218.12625    181563.75   -13212.028    1025.6444   -14237.672   -195.05337    335.03997    78.708969    25.087543    16.341423 
   45400    244.65434   -386.23323    181563.75   -13205.322      1006.39   -14211.712   -811.79872    336.91279    78.707391    25.093962    16.367472 
   45600    244.97552   -368.10028    181563.75   -13227.611    1007.7112   -14235.323   -771.24429    336.66346    78.706825    25.096026    16.379139 
   45800    239.14803   -298.14408    181563.75   -13290.545    983.73969   -14274.285   -496.85441    339.67771    78.704174    25.095004    16.366973 
   46000    242.35868   -352.05959    181563.75   -13274.372    996.94677   -14271.319   -669.51558    339.85421    78.704103    25.092577    16.371298 
   46200    242.80896   -327.95935    181563.75   -13276.258    998.79898   -14275.057   -652.79899    340.07849    78.706517    25.090973    16.360915 
   46400    237.34886   -276.71579    181563.75   -13236.314    976.33877   -14212.652   -428.33543    342.75217    78.705842    25.092066    16.345447 
   46600    237.33871   -499.87892    181563.75   -13296.369    976.29702   -14272.666   -1249.8202    345.86896    78.706475    25.093976    16.336839 
   46800    244.73785   -321.31218    181563.75   -13277.072    1006.7335   -14283.805   -605.05165    347.85576     78.70471    25.093105    16.326284 
   47000    245.91304   -371.03456    181563.75    -13207.38    1011.5677   -14218.948   -779.47356    349.97345    78.705735    25.094695    16.359534 
   47200    238.62385   -321.60961    181563.75   -13293.471    981.58345   -14275.054   -576.99974    353.65905    78.704518     25.09846    16.338208 
   47400    247.76092   -173.39056    181563.75   -13282.505     1019.169   -14301.674   -14.442624    350.62282    78.700456    25.097585     16.31767 
   47600    238.42422   -436.73165    181563.75   -13280.091    980.76229   -14260.853    -1008.927    352.72365    78.696134    25.099164    16.305764 
   47800    234.63918   -186.01646    181563.75   -13255.528    965.19247    -14220.72   -76.613231    355.30274    78.695771    25.100925    16.313279 
   48000    240.52742   -329.73177    181563.75   -13287.255    989.41382   -14276.669   -615.93831    357.84959    78.694432    25.097772    16.300605 
   48200    244.45455   -280.87842    181563.75   -13283.463    1005.5682   -14289.031   -408.77989    355.59544    78.694356    25.096891    16.298607 
   48400    230.26537   -565.70547    181563.75   -13309.676    947.20071   -14256.877   -1436.8358    354.86577    78.691473    25.093645    16.316918 
   48600    235.09631   -376.23587    181563.75   -13295.792    967.07287   -14262.865    -754.7421    353.04789    78.691995     25.09351    16.339894 
   48800    245.22197   -394.47327    181563.75   -13314.589     1008.725   -14323.314   -837.54405    355.59066    78.689645     25.09889    16.344882 
   49000    239.30764   -365.14384    181563.75   -13266.786    984.39625   -14251.183   -719.60102    359.19105    78.693057    25.106721    16.375136 
   49200    242.70096   -280.86538    181563.75   -13274.055    998.35473    -14272.41   -423.19716    359.08783    78.689909    25.110155    16.377341 
   49400    237.89335   -407.72829    181563.75   -13283.711    978.57857   -14262.289   -889.51016     361.6234    78.689411    25.110073    16.410015 
   49600    240.19389   -425.23529    181563.75   -13321.173    988.04187   -14309.215   -922.46028    362.34709    78.689052    25.111655    16.400431 
   49800    236.13347   -322.00197    181563.75    -13368.07    971.33923   -14339.409   -589.60642    355.52231    78.687188    25.106413    16.390855 
   50000    230.83923   -370.63838    181563.75     -13378.6     949.5613   -14328.161   -723.33525    354.04919    78.686114    25.110675    16.393867 
   50200    239.38349   -227.91349    181563.75   -13294.032    984.70824   -14278.741   -204.80279    353.50356    78.687631    25.108732    16.386983 
   50400    241.55922   -418.75376    181563.75   -13330.599    993.65817   -14324.257   -941.86345    350.90766    78.688663    25.108385    16.386252 
   50600    231.45278   -499.66091    181563.75   -13408.199    952.08516   -14360.284    -1160.475     351.0071    78.690473    25.108163    16.373401 
   50800    231.44261   -343.56799    181563.75   -13390.597    952.04332    -14342.64   -665.86461    352.10214    78.692574     25.10715     16.38415 
   51000    241.43501   -355.29033    181563.75   -13329.109    993.14721   -14322.256   -703.57302    355.26598    78.692412    25.105627    16.406278 
   51200    234.68712   -449.70322    181563.75   -13418.331    965.38965    -14383.72   -1008.6036      357.328    78.693412    25.104015    16.418496 
   51400    241.21139   -321.00828    181563.75   -13351.163    992.22736    -14343.39   -572.80953    359.00412    78.697387    25.106369    16.431456 
   51600    242.41025    -273.2185    181563.75   -13337.294    997.15891   -14334.452   -398.93034    357.76992      78.6936    25.107674    16.439476 
   51800    236.25649   -366.90329    181563.75   -13301.334    971.84528   -14273.179   -706.44902    358.14956    78.690165    25.104307    16.432753 
   52000    239.79267   -426.25713    181563.75    -13306.84    986.39144   -14293.231   -919.80226    361.51096     78.69014    25.106002    16.401868 
   52200    238.43366   -353.03928    181563.75   -13278.409    980.80112    -14259.21   -681.78061    363.46185    78.691974    25.109228    16.416686 
   52400      244.501   -283.51567    181563.75   -13296.945    1005.7592   -14302.704   -458.37567    362.15821    78.692662    25.108806    16.430598 
   52600     237.3787   -345.12205    181563.75   -13295.977    976.46151   -14272.438   -681.04442    364.47588    78.691067    25.110498    16.410887 
   52800    231.25518   -139.61379    181563.75   -13355.592     951.2723   -14306.865    71.540559    364.10823    78.691988    25.109811    16.391176 
   53000    237.75926   -314.96474    181563.75   -13370.658    978.02697   -14348.685   -544.12069    368.88942    78.692494    25.108955    16.400743 
   53200    232.97842   -171.15662    181563.75   -13346.741     958.3609   -14305.102   -49.159872    368.25233    78.693244     25.10963    16.401222 
   53400    236.38815   -346.09378    181563.75   -13337.556    972.38686   -14309.943   -677.09554    368.86898    78.693955    25.117644    16.434178 
   53600    239.04482   -328.85244    181563.75   -13297.905    983.31513    -14281.22   -651.31378    365.87415    78.695688    25.120662     16.41575 
   53800    233.23201   -313.24773    181563.75   -13312.265    959.40404   -14271.669   -506.92828    363.40083    78.699096    25.123761    16.420832 
   54000    236.08374   -519.69219    181563.75   -13250.545    971.13468   -14221.679   -1322.2681    363.79887    78.699669    25.126318    16.430851 
   54200    230.31261   -399.60705    181563.75   -13351.837    947.39504   -14299.232   -863.95047     364.4691    78.700773    25.126982    16.407639 
   54400    241.81845   -385.97168    181563.75   -13330.594    994.72449   -14325.318   -834.46288    364.57921    78.696879     25.12648    16.419956 
   54600    235.05696   -397.04955    181563.75   -13278.522      966.911   -14245.433   -832.93514     366.5587    78.699143    25.126979    16.400012 
   54800    246.25636   -361.22742    181563.75   -13244.376      1012.98   -14257.356   -714.52556    366.94265    78.698046    25.128196    16.424462 
   55000    239.69166   -309.92609    181563.75   -13291.003    985.97594   -14276.979   -515.71624    367.48546    78.696701    25.129118    16.438621 
   55200    244.86507   -207.23517    181563.75   -13252.644    1007.2568   -14259.901   -163.93854    367.35886     78.69208    25.129632    16.450905 
   55400    242.40193   -471.68499    181563.75   -13212.302    997.12467   -14209.427   -1154.0063    370.58201    78.689853     25.13096    16.473601 
   55600    243.33819   -379.81314    181563.75   -13252.075     1000.976   -14253.051    -808.6718    371.57319    78.687627    25.130856    16.473196 
   55800      236.025   -434.05176    181563.75    -13290.56    970.89305   -14261.453   -973.50013    372.31045    78.682831     25.13579    16.459128 
   56000    232.01635   -396.85966    181563.75    -13317.29    954.40338   -14271.694   -806.26469    375.75279    78.682502    25.139812    16.421078 
   56200    238.96105     -190.884    181563.75    -13261.96    982.97055   -14244.931   -83.894418    377.90254    78.681712    25.138914    16.385894 
   56400    243.60105   -365.31149    181563.75   -13271.071    1002.0573   -14273.128   -728.40702    379.01968    78.678751    25.138098    16.400311 
   56600    240.59386   -369.75584    181563.75    -13325.97    989.68715   -14315.657   -748.23511    378.28741    78.679307    25.135542     16.41792 
   56800    233.40374   -377.78848    181563.75   -13351.881    960.11046   -14311.991   -728.26009    380.72688      78.6792    25.135573    16.450138 
   57000    236.25458   -222.85324    181563.75   -13328.392    971.83745    -14300.23   -236.87715    382.48689    78.681295    25.137085    16.446385 
   57200    239.24147   -471.71242    181563.75   -13303.218    984.12407   -14287.342   -1100.0468     386.8933    78.679653    25.139657    16.479227 
   57400    246.08301   -212.41115    181563.75   -13273.008    1012.2668   -14285.275   -188.45749    390.18582    78.680073    25.138403    16.458564 
   57600    247.47969   -333.63167    181563.75   -13194.767    1018.0121   -14212.779   -664.61731    394.82507    78.682603    25.136633     16.44819 
   57800    234.25497    -324.3424    181563.75   -13216.425      963.612   -14180.037   -614.75433    392.94156    78.680459    25.136982    16.452298 
   58000    241.10563   -304.45996    181563.75   -13192.801    991.79234   -14184.593    -570.9563    392.97226     78.67936    25.138927    16.473553 
   58200    239.23527   -306.65756    181563.75   -13280.859    984.09857   -14264.957   -515.53961    393.09445    78.679204    25.140307     16.46162 
   58400    243.00658   -362.59725    181563.75   -13309.263    999.61192   -14308.875   -718.43524    393.81984    78.676258    25.141622    16.475087 
   58600    242.06741   -370.63585    181563.75   -13279.807    995.74862   -14275.556   -713.33964    394.93886    78.675854    25.143242    16.472212 
   58800    243.88693   -282.82064    181563.75   -13304.783    1003.2333   -14308.016   -427.16649    398.58284    78.672694    25.149049    16.439358 
   59000    235.08169    -392.5813    181563.75   -13337.558    967.01274   -14304.571   -796.66182    403.81914     78.66611    25.152646    16.415337 
   59200    241.32587   -270.39024    181563.75   -13282.688    992.69826   -14275.386   -424.37626    403.40916    78.664355    25.155158    16.387544 
   59400    245.37081   -113.25518    181563.75   -13280.224    1009.3372   -14289.561    162.71641    403.86065    78.664304    25.155924     16.36712 
   59600     241.6758   -306.94383    181563.75   -13256.608    994.13772   -14250.746   -519.74388    403.68985    78.662779      25.1559    16.361435 
   59800    243.28254   -286.53083    181563.75   -13243.163    1000.7471    -14243.91   -502.34523    404.42575    78.664066    25.157939    16.345806 
   60000    231.42603   -339.32361    181563.75   -13282.812    951.97512   -14234.787   -643.39325    408.19242    78.663769    25.157437    16.350784 
   60200    248.27956   -330.25932    181563.75   -13264.809    1021.3024   -14286.112   -628.53212    407.38672    78.666075    25.156449    16.372926 
   60400     239.1347   -450.64924    181563.75   -13345.148    983.68487   -14328.833   -1035.7793    406.17069    78.666007    25.157072    16.382163 
   60600    244.35465   -467.42368    181563.75    -13289.31    1005.1572   -14294.467   -1093.8407    406.75748    78.663898    25.157635    16.400622 
   60800    244.81863    -210.3828    181563.75   -13327.521    1007.0658   -14334.587   -178.15885    406.73207    78.662867    25.157806    16.409059 
   61000    229.42139   -403.56249    181563.75   -13378.765      943.729   -14322.494      -892.26    412.66756    78.663124    25.155619    16.429874 
   61200    233.50067   -405.63734    181563.75   -13344.567     960.5092   -14305.076   -895.59506    410.54003    78.663055    25.156589    16.438033 
   61400    242.67405   -532.71763    181563.75   -13343.609    998.24405   -14341.853   -1339.9529    408.66698    78.662173    25.161192    16.435517 
   61600    244.50171   -370.98641    181563.75   -13351.971    1005.7621   -14357.733   -703.95173    409.36942    78.660752    25.162168    16.435777 
   61800    237.65491   -203.62239    181563.75   -13319.931     977.5977   -14297.528   -158.12675     411.5507    78.659919    25.164106    16.410903 
   62000    234.59148   -376.29496    181563.75   -13339.307    964.99623   -14304.303   -790.33358    413.56762    78.661193    25.164005    16.417584 
   62200    240.38826   -308.01642    181563.75   -13259.314     988.8414   -14248.156   -528.98726    416.01133    78.659985    25.164155    16.428213 
   62400    250.33531   -418.71197    181563.75   -13237.572    1029.7588   -14267.331    -970.8703    415.68785    78.660805    25.162285    16.410643 
   62600    233.83887    -289.3779    181563.75   -13316.404    961.90039   -14278.305     -462.235    415.74786    78.666089    25.164123    16.386166 
   62800    246.07207   -393.66753    181563.75   -13301.327    1012.2219   -14313.549   -846.07361    418.16154    78.667935    25.163992    16.401942 
   63000    238.39437   -453.96589    181563.75    -13277.47    980.63948    -14258.11   -1071.8543    420.67782    78.668156    25.160555    16.419463 
   63200    233.47157   -427.09022    181563.75   -13346.561    960.38947    -14306.95   -942.48523    424.00571      78.6708    25.161446    16.415589 
   63400    242.15488   -283.83925    181563.75   -13303.692    996.10841     -14299.8   -453.31731    425.19971    78.672666    25.164144    16.414538 
   63600    238.32576   -212.69104    181563.75    -13240.47    980.35728   -14220.827   -205.83327    426.64228    78.674152    25.166214    16.423091 
   63800     247.0216   -326.69436    181563.75   -13271.253    1016.1278   -14287.381   -605.18547    428.52745    78.677388    25.165537    16.435903 
   64000    230.64523   -348.11446    181563.75   -13284.278    948.76329   -14233.041   -684.34745    429.36064    78.677508    25.163726    16.418737 
   64200    246.65812   -323.11235    181563.75   -13274.907    1014.6326    -14289.54   -585.29408    429.27749    78.674649    25.159812    16.406186 
   64400    242.54114   -307.99245    181563.75    -13258.39    997.69733   -14256.087   -589.92782    430.08889    78.673198    25.164574    16.386425 
   64600    245.13862   -204.50797    181563.75   -13263.114    1008.3821   -14271.496   -220.45398    432.06232    78.676722    25.166556    16.387156 
   64800    242.30399   -336.58763    181563.75   -13276.847    996.72178   -14273.569   -619.72522    434.50395    78.679294    25.171578    16.360649 
   65000    234.78622   -291.48689    181563.75   -13344.163    965.79733   -14309.961   -495.99651    436.05415    78.682665    25.176745    16.362917 
   65200    235.90103   -264.93211    181563.75   -13323.749    970.38309   -14294.132   -388.96912    438.21205    78.681673    25.175711    16.361099 
   65400    252.81884   -399.24388    181563.75   -13162.626    1039.9748   -14202.601   -820.45547    443.60022    78.680437    25.181224     16.36802 
   65600     243.8143   -294.59881    181563.75    -13237.36    1002.9345   -14240.295   -501.41239    444.72133    78.682837    25.184472    16.370081 
   65800    248.51044   -368.19812    181563.75   -13218.311    1022.2521   -14240.563   -751.28025    448.21559    78.679008    25.188505    16.405576 
   66000    249.72552   -421.27782    181563.75    -13264.54    1027.2504    -14291.79   -965.79262    444.39624    78.677494    25.192948    16.394285 
   66200    235.18704   -312.93609    181563.75   -13273.398     967.4461   -14240.845   -536.80433    444.15146    78.677673    25.191794     16.41059 
   66400    235.02298   -467.71174    181563.75   -13312.384    966.77122   -14279.155    -1088.626    448.80124    78.680305    25.192167    16.395864 
   66600    244.34943   -234.17516    181563.75   -13283.605    1005.1357   -14288.741   -268.32182    446.98769    78.678818    25.188206    16.407293 
   66800    240.04507   -239.35268    181563.75   -13343.579    987.42968   -14331.009    -287.2658    445.99855    78.679903    25.187974    16.414363 
   67000    229.17055   -377.93965    181563.75    -13404.38    942.69715   -14347.077   -820.50603    445.98405    78.683063    25.184649    16.417007 
   67200    224.65414    -300.2117    181563.75   -13380.324    924.11883   -14304.442   -485.63553    448.58214    78.682228    25.183703     16.41123 
   67400    240.04293   -341.56761    181563.75   -13328.988    987.42089   -14316.409   -652.94161    446.38008    78.689343       25.182    16.418669 
   67600    236.35705   -331.92355    181563.75   -13355.257    972.25894   -14327.516     -642.634    446.43474     78.69405    25.185388    16.393215 
   67800    241.32024   -342.61646    181563.75   -13322.202    992.67512   -14314.877   -665.84756    445.04311    78.697408    25.184783    16.394173 
   68000    240.76864   -400.77533    181563.75    -13310.38    990.40612   -14300.786   -870.10614    444.91915    78.696354    25.182735    16.375052 
   68200    239.54443   -369.57654    181563.75   -13285.098    985.37031   -14270.468   -789.98653    445.63418    78.699252    25.181035    16.360011 
   68400    248.90111   -339.65588    181563.75   -13223.962    1023.8591   -14247.821   -618.35681    446.74697    78.697346    25.182665    16.371873 
   68600      240.777   -238.17683    181563.75   -13328.614     990.4405   -14319.054   -288.19657    449.46026    78.698528     25.17871     16.34625 
   68800    236.39913   -457.90107    181563.75   -13262.569    972.43205   -14235.001   -1043.0071    449.53339     78.70086    25.179476     16.33977 
   69000    245.20914   -395.84519    181563.75   -13220.014    1008.6722   -14228.686   -823.72165    446.45814    78.700935     25.17955    16.353395 
   69200     232.2883   -290.28153    181563.75   -13257.079    955.52206   -14212.601   -466.49093    443.73009     78.70111    25.179229    16.359995 
   69400    233.61207   -422.68154    181563.75   -13312.391    960.96742   -14273.359   -885.28089    448.66084    78.702162    25.179104    16.324888 
   69600    240.74894   -426.13869    181563.75   -13249.828    990.32508   -14240.153   -989.53482    447.21096    78.704334    25.180701    16.322111 
   69800    240.53079   -333.26292    181563.75   -13272.723    989.42769    -14262.15   -612.39887    448.26094    78.702798    25.178069    16.332478 
   70000    237.66985   -414.04333    181563.75   -13331.445    977.65919   -14309.104   -870.05224     450.8392    78.704648     25.17873      16.3365 
   70200    235.86607   -330.01312    181563.75   -13281.957     970.2393   -14252.197   -654.34755     452.7524    78.704823    25.181269    16.340206 
   70400    241.16112   -184.26954    181563.75   -13255.169    992.02056    -14247.19    -175.2888    449.61766    78.706888    25.182294    16.328367 
   70600     241.0885   -401.62773    181563.75   -13231.528    991.72184    -14223.25   -829.16369    454.48832    78.708733    25.187125     16.32481 
   70800    231.09203   -290.06872    181563.75   -13259.043     950.6012   -14209.644   -519.79005    453.60401    78.710154     25.18999    16.331205 
   71000    237.12972   -292.30234    181563.75   -13204.047    975.43732   -14179.484   -495.38565    454.74652    78.708767     25.19123    16.311499 
   71200    248.29608   -351.13352    181563.75   -13108.902    1021.3704   -14130.272   -672.06124    453.95153    78.706461    25.195046    16.339966 
   71400    237.87532   -550.48464    181563.75    -13233.01    978.50438   -14211.514   -1413.9305    456.26823    78.706628    25.197332     16.31749 
   71600    234.53465   -199.19567    181563.75   -13281.355    964.76249   -14246.118   -149.13411    456.10764    78.708189    25.201158    16.323954 
   71800    244.73954   -478.89207    181563.75    -13272.97    1006.7405    -14279.71   -1104.8706    459.39848    78.710506    25.204183    16.306089 
   72000    246.81351   -236.13277    181563.75   -13218.655    1015.2718   -14233.927   -306.30751    457.92581    78.714422    25.201834    16.287514 
   72200    230.47027   -334.31736    181563.75   -13254.197    948.04355   -14202.241   -666.55008    461.91733    78.719227    25.200171    16.270543 
   72400    238.77351    -399.3634    181563.75   -13259.563    982.19909   -14241.762   -861.97782    463.22482     78.72342    25.196533    16.270715 
   72600    241.34031   -304.35339    181563.75   -13261.384    992.75769   -14254.142   -510.90694    464.01659    78.725404    25.194728    16.271913 
   72800    242.01164    -300.6318    181563.75   -13343.012    995.51919   -14338.532    -517.5255    466.61777    78.722538    25.194091    16.274148 
   73000    258.18354   -303.64771    181563.75   -13301.057    1062.0426     -14363.1   -513.52331     467.5096    78.724573    25.194895    16.284508 
   73200    248.56609   -281.14924    181563.75   -13248.193     1022.481   -14270.674   -441.07381    469.49833    78.726712    25.192499    16.312004 
   73400    234.39976   -529.62972    181563.75   -13280.506     964.2076   -14244.713   -1318.2373    468.14599    78.726063    25.193849    16.284269 
   73600    246.12127   -225.03768    181563.75   -13283.164    1012.4242   -14295.588   -268.99701    467.16729    78.723336    25.195641    16.294328 
   73800    246.64465    -428.2393    181563.75   -13225.216    1014.5772   -14239.793   -984.19995    470.36197    78.721443    25.198904    16.290159 
   74000    249.09095   -424.82773    181563.75   -13227.524    1024.6401   -14252.164   -966.03717    474.10373     78.72062    25.194303    16.319124 
   74200    247.27011   -301.49017    181563.75    -13235.27      1017.15    -14252.42   -491.61979    474.07391    78.716314    25.192707    16.320193 
   74400     247.1159   -391.67254    181563.75    -13277.96    1016.5157   -14294.475   -858.02574    474.67159    78.719701     25.19724    16.322252 
   74600    233.64552   -457.18356    181563.75   -13304.111      961.105   -14265.216   -1104.8769    473.34236    78.720992     25.19606    16.306037 
   74800    243.33032   -335.19468    181563.75   -13257.415    1000.9436   -14258.359   -584.88836    473.30015    78.726067    25.198146    16.322403 
   75000    239.98244   -362.11571    181563.75   -13292.692    987.17207   -14279.865   -719.17929    475.92162    78.726897    25.200314    16.334633 
   75200     240.1916   -467.04504    181563.75   -13291.764    988.03245   -14279.796   -1108.9006    479.06324    78.728814    25.200431    16.353198 
   75400    250.42794   -340.96124    181563.75   -13232.535    1030.1398   -14262.675   -662.20757    481.32712    78.732397    25.202664    16.362126 
   75600    239.21587   -452.64397    181563.75   -13297.176    984.01877   -14281.195   -1048.7632    482.74276    78.732623    25.203532    16.329001 
   75800    239.87291   -410.98647    181563.75   -13292.544     986.7215   -14279.265    -894.5028    487.77238    78.732171    25.204369    16.333741 
   76000    235.44228   -430.87125    181563.75   -13326.305    968.49602   -14294.801   -965.80139    490.63235    78.730695    25.208845    16.317486 
   76200    230.38516   -333.93435    181563.75   -13358.174    947.69346   -14305.867   -595.77971    488.18273    78.729401    25.206899    16.322414 
   76400    235.62724   -289.47961    181563.75   -13366.282    969.25684   -14335.538   -442.40759    487.48326    78.731054    25.209075     16.32266 
   76600    240.99385   -515.94676    181563.75   -13322.899     991.3325   -14314.231   -1275.3817    488.07231    78.733071    25.212289    16.337447 
   76800    242.46703    -391.4235    181563.75   -13291.705    997.39247   -14289.098   -876.14162    487.22726    78.732828    25.213724    16.351704 
   77000    235.45643   -199.96699    181563.75   -13339.848    968.55424   -14308.402   -145.58701    488.24132    78.732464    25.212328    16.355821 
   77200    240.14589   -358.62085    181563.75   -13314.108    987.84441   -14301.952   -693.71754    488.14574     78.73029    25.213027    16.338797 
   77400    234.76687   -420.09162    181563.75   -13296.694    965.71771   -14262.411    -963.1704    487.22777    78.726194    25.209225    16.327394 
   77600    241.84976   -314.10949    181563.75   -13299.593     994.8533   -14294.446   -546.53915    489.43659    78.723637    25.203175    16.338179 
   77800    235.46766   -300.23297    181563.75   -13291.329    968.60042   -14259.929   -490.25349    493.53291    78.723585    25.200427     16.34378 
   78000    233.31115     -242.422    181563.75   -13347.454    959.72957   -14307.183   -272.12192     490.9685    78.722812      25.1985    16.338054 
   78200    242.43531   -376.66982    181563.75   -13301.069    997.26199   -14298.331   -784.81702    489.63385    78.723734    25.195779    16.327889 
   78400    242.91422   -253.96229    181563.75   -13291.764    999.23197   -14290.996   -347.20453    488.82367     78.72369    25.194917    16.339928 
   78600     233.9349   -419.42392    181563.75   -13337.578    962.29539   -14299.873   -954.15842    491.33241    78.723558     25.19242    16.330795 
   78800    239.85006    -262.3972    181563.75   -13327.879    986.62751   -14314.507   -414.46965    493.19515    78.723968    25.195376     16.31802 
   79000      239.595   -384.65108    181563.75   -13280.742     985.5783    -14266.32    -800.3267    494.17743    78.729918    25.194845    16.336641 
   79200      238.772   -422.93827    181563.75   -13271.821    982.19288   -14254.014   -965.14397    497.35514    78.727734    25.193779    16.336784 
   79400    230.16926   -340.18106    181563.75   -13356.327    946.80536   -14303.132   -677.96915    496.53209    78.729016    25.190819    16.317097 
   79600    243.29226   -427.60769    181563.75   -13340.227     1000.787   -14341.014   -947.84734    497.24697    78.729123    25.189559    16.329613 
   79800    244.79681   -341.40486    181563.75   -13350.299     1006.976   -14357.275   -650.19543      495.775    78.729155    25.190978    16.356866 
   80000    238.70288   -549.18133    181563.75   -13350.904    981.90854   -14332.813   -1450.3281    496.48772    78.735371     25.19148     16.36931 
   80200    239.66399   -355.38191    181563.75   -13304.413    985.86211   -14290.276   -725.83291     499.1558    78.741685    25.192395    16.361134 
   80400    241.17273   -395.17092    181563.75    -13305.38    992.06832   -14297.448    -819.4407    498.21347    78.742605    25.196793    16.353805 
   80600    243.76627   -467.21438    181563.75   -13247.283    1002.7369    -14250.02   -1107.7415    502.59399    78.745525    25.200863    16.368778 
   80800    237.95653   -334.43671    181563.75    -13280.53    978.83846   -14259.369   -603.79564    500.33866    78.743029    25.203934    16.366083 
   81000    247.34159   -309.40204    181563.75   -13191.866    1017.4441    -14209.31   -549.66533     501.7474    78.743944    25.204206    16.323772 
   81200    235.90503   -286.01989    181563.75   -13219.043    970.39954   -14189.442   -456.09224    507.54379    78.745373     25.20478    16.310107 
   81400    235.47129   -308.86053    181563.75   -13291.867    968.61537   -14260.482   -515.32319    508.78564    78.748183    25.206086    16.291872 
   81600    240.11308   -475.36284    181563.75   -13267.227    987.70943   -14254.936   -1163.0124    510.55973    78.745743    25.205129    16.278294 
   81800    234.04177   -432.91028    181563.75   -13238.366    962.73499   -14201.101   -938.80033    510.43465    78.748689    25.200782    16.246435 
   82000     257.0499   -432.18127    181563.75   -13222.562    1057.3793   -14279.941   -1007.8748    511.72896     78.74944    25.199752    16.297773 
   82200    238.37707   -387.54857    181563.75   -13258.655    980.56832   -14239.223   -816.44059    511.81907    78.749683    25.200261     16.30869 
   82400    237.89555   -283.57704    181563.75   -13301.101     978.5876   -14279.688   -448.26591    512.65739    78.747845    25.202278    16.307371 
   82600    233.62045   -443.38121    181563.75   -13314.541    961.00188   -14275.542   -1017.9332     515.6696    78.745045     25.20343    16.289643 
   82800    245.95982   -323.62177    181563.75   -13293.771    1011.7601   -14305.531   -591.18901    516.96081    78.747662    25.203168    16.274456 
   83000    241.93324   -439.12565    181563.75   -13274.063    995.19669    -14269.26   -1009.1603    522.05216    78.752425     25.20679    16.295294 
   83200    237.59839   -377.36289    181563.75   -13270.818    977.36523   -14248.183    -782.6416    522.76889    78.752198    25.209467    16.276373 
   83400    243.28033   -311.78501    181563.75   -13283.637     1000.738   -14284.375   -518.96162    525.05429    78.757931    25.206802    16.263947 
   83600    240.62481   -296.65267    181563.75    -13270.02    989.81447   -14259.834   -446.55081    527.09567    78.760147     25.20411    16.249781 
   83800    233.38718   -351.58848    181563.75   -13349.509    960.04235   -14309.551   -686.80036     531.8765    78.758255    25.202539    16.217738 
   84000    233.31686   -379.88566    181563.75   -13345.054    959.75306   -14304.807   -750.35877    532.29155    78.757662    25.203235    16.204341 
   84200    235.47537   -256.31001    181563.75   -13331.264    968.63216   -14299.896    -299.3727    531.63335    78.756607    25.207381    16.171101 
   84400    231.61948   -318.50516    181563.75   -13309.122    952.77086   -14261.893   -579.76139    531.85729    78.755134    25.207533    16.161702 
   84600    242.19231   -441.99581    181563.75   -13293.415    996.26241   -14289.677   -1013.7594    534.06347    78.753136    25.205009    16.147868 
   84800    238.43836   -397.09258    181563.75   -13309.337    980.82047   -14290.158   -869.81364    536.42942    78.755813    25.205487    16.152901 
   85000    237.46434    -257.9764    181563.75   -13302.432     976.8138   -14279.246   -365.34531    541.47128    78.756679    25.207951    16.166387 
   85200    244.65086   -291.37192    181563.75   -13191.673    1006.3757   -14198.049   -445.01866    548.08538    78.756087    25.210297    16.173262 
   85400    236.68047   -510.83133    181563.75   -13265.861    973.58935    -14239.45   -1237.6821    550.81982    78.756569    25.207088    16.159703 
   85600    238.26601   -223.65381    181563.75   -13275.849     980.1115   -14255.961   -279.31545    551.42435     78.75813    25.208111    16.189429 
   85800    248.83902   -371.08644    181563.75   -13238.034    1023.6038   -14261.638   -720.17881    555.24869     78.76135    25.211592    16.174808 
   86000    247.02374    -268.0255    181563.75    -13240.63    1016.1366   -14256.767   -364.65088    554.49793    78.758629    25.208253    16.182567 
   86200    245.55183   -447.73985    181563.75   -13275.686    1010.0818   -14285.767   -1042.6846     554.2656    78.758341    25.206501    16.169626 
   86400    236.05841   -389.91309    181563.75   -13261.425     971.0305   -14232.456   -843.41141    560.66597    78.755796    25.208823     16.19049 
   86600     234.7811   -240.01262    181563.75   -13261.485    965.77624   -14227.262   -279.61065     559.1438    78.756389    25.211036     16.19528 
   86800    231.50937   -305.18419    181563.75   -13271.221    952.31793   -14223.539   -512.35177    558.73518     78.75613    25.208561    16.216809 
   87000    236.52561    -354.7748    181563.75   -13320.445    972.95232   -14293.398   -731.78307    558.21695    78.758841    25.205128    16.243506 
   87200    237.87006   -284.50746    181563.75   -13307.238    978.48276   -14285.721   -484.00672    560.99866    78.761993    25.201177    16.254892 
   87400     242.2527   -380.25077    181563.75   -13286.489     996.5108       -14283   -772.84661    565.39437    78.763071    25.201802    16.265469 
   87600    241.61308   -462.31258    181563.75   -13283.495    993.87974   -14277.375   -1076.6859    569.99373    78.764346    25.203429    16.269361 
   87800    237.60842   -298.52682    181563.75   -13312.922    977.40649   -14290.329    -510.9445    572.96122    78.765811    25.206713    16.272934 
   88000     243.5998     -411.902    181563.75   -13231.399    1002.0521   -14233.451   -915.30633    581.99835    78.767071    25.209407    16.250061 
   88200    242.55652    -357.8541    181563.75   -13227.513    997.76059   -14225.274   -703.26817    581.04002    78.764421      25.2085    16.250578 
   88400    237.92968   -259.17217    181563.75   -13268.278    978.72798   -14247.006    -382.3416    575.56325    78.763643    25.207881    16.291901 
   88600     242.1949   -486.70453    181563.75   -13338.353    996.27304   -14334.626   -1143.5036    572.94736     78.75861    25.203833    16.289008 
   88800    243.04112   -532.68554    181563.75   -13381.127    999.75401   -14380.881   -1309.8865    574.33588    78.756837    25.202671    16.276275 
   89000    233.47236   -384.19401    181563.75   -13388.706    960.39271   -14349.098   -788.83389    574.95192    78.755656    25.205268     16.26859 
   89200    236.84003   -220.83852    181563.75   -13385.694     974.2457   -14359.939   -227.64675    573.35333    78.754459    25.202202    16.289778 
   89400    244.76113   -474.49307    181563.75   -13324.663    1006.8293   -14331.493    -1119.172    576.32744    78.750352    25.199443    16.294944 
   89600    240.50334   -303.92378    181563.75   -13380.158    989.31479   -14369.472    -531.0079    580.59012    78.748542    25.197855    16.269739 
   89800    246.65927   -376.29479    181563.75   -13312.849    1014.6373   -14327.486   -744.75534    579.15778    78.747838    25.196883    16.245258 
   90000    238.56884   -330.13618    181563.75   -13266.255    981.35719   -14247.612   -588.79873    574.60995    78.748526    25.194765    16.229844 
   90200    236.33447   -398.81402    181563.75    -13341.83    972.16605   -14313.996   -840.62663    573.24064    78.748313    25.195398    16.229652 
   90400    230.33548   -391.39776    181563.75   -13369.657     947.4891   -14317.146   -857.69066    573.16633    78.750509     25.19312    16.228951 
   90600    245.14077   -377.69087    181563.75   -13253.518    1008.3909   -14261.909   -791.90318    576.25115    78.756006    25.186309    16.232817 
   90800    244.93196   -152.86159    181563.75   -13216.335     1007.532   -14223.867    7.9968955    573.04976    78.757915    25.184419    16.267884 
   91000    250.06407   -277.70841    181563.75     -13261.9     1028.643   -14290.543    -420.2722    572.34751    78.758724    25.183436    16.256061 
   91200    242.25072   -282.03206    181563.75   -13291.317    996.50267    -14287.82   -423.59604    577.41314    78.758169    25.184917    16.236235 
   91400    230.39975     -283.269    181563.75   -13362.508    947.75348   -14310.261    -413.9766    579.89234    78.760189    25.183776    16.264458 
   91600    237.27719   -361.73029    181563.75     -13271.7    976.04398   -14247.744    -704.6621    580.09796    78.762093    25.187368    16.280963 
   91800    235.76522   -243.99653    181563.75   -13303.034    969.82446   -14272.858   -276.66393    578.75463    78.759962     25.18717    16.289691 
   92000    238.92015   -370.71541    181563.75   -13270.409    982.80229   -14253.211   -766.65438    581.51534    78.760124    25.190524    16.277742 
   92200    237.40846   -338.77056    181563.75   -13274.692    976.58393   -14251.276   -676.75367    583.33774    78.757798    25.187202    16.296025 
   92400    248.68154   -331.51938    181563.75   -13204.377    1022.9559   -14227.333   -583.04752    584.82055    78.759452    25.186248    16.316432 
   92600    236.31366   -357.21865    181563.75   -13277.618    972.08047   -14249.698   -682.69809    587.26668    78.761195    25.187644    16.325348 
   92800    232.56789   -374.01442    181563.75   -13325.501    956.67216   -14282.173   -763.28621    594.63333    78.761816    25.184487    16.319708 
   93000     243.0382   -278.61363    181563.75    -13374.16    999.74199   -14373.902   -400.56086    598.22358    78.759813    25.180686    16.335227 
   93200    238.70513   -588.99024    181563.75   -13368.732    981.91782    -14350.65   -1501.6151    601.37493    78.756114    25.177179    16.350224 
   93400    238.48877   -440.96131    181563.75   -13381.094    981.02783   -14362.122   -992.36839    600.20321    78.755577    25.173601    16.307063 
   93600    240.37472   -384.56908    181563.75   -13329.747    988.78572   -14318.532   -776.59829    602.03836    78.750428    25.168801     16.33655 
   93800    240.43758   -238.28255    181563.75   -13258.606    989.04426    -14247.65   -259.59235    603.88921    78.750282    25.163569    16.326017 
   94000    238.90037   -433.95818    181563.75   -13326.207    982.72095   -14308.928   -1024.3695    608.18917    78.751864    25.165084    16.299116 
   94200    249.76217   -309.30585    181563.75   -13264.462    1027.4012   -14291.863   -534.86293    603.95119    78.755364    25.162964    16.280508 
   94400    245.79156     -241.905    181563.75    -13266.21     1011.068   -14277.278   -303.59859    605.12077    78.757293    25.161003    16.292569 
   94600    249.96723   -295.46652    181563.75   -13291.266    1028.2447   -14319.511   -492.90471    607.41946    78.756426    25.161286    16.300508 
   94800    256.85141   -289.61473    181563.75   -13250.765    1056.5629   -14307.328   -423.99922    609.02775     78.75986    25.166649    16.293004 
   95000    233.43062   -446.53944    181563.75   -13349.863    960.22102   -14310.084   -1043.6599    609.66108    78.761483    25.167407    16.289483 
   95200    233.21335   -453.80212    181563.75   -13332.739    959.32727   -14292.066   -1087.2331    611.43761    78.761356    25.167415    16.275063 
   95400    240.73937    -435.9956    181563.75   -13349.592    990.28569   -14339.878   -978.77557    611.26912    78.760429    25.169934    16.271829 
   95600    238.69762   -343.52072    181563.75   -13378.615    981.88692   -14360.502   -656.19651    610.00614    78.760612    25.168875    16.284192 
   95800    241.43196   -261.02412    181563.75   -13381.646     993.1347   -14374.781   -368.39943    612.78793    78.761214    25.169918    16.296805 
   96000    242.64324   -367.69485    181563.75   -13397.582    998.11732   -14395.699   -723.63112    609.93283    78.765106    25.166349    16.322213 
   96200    234.72943   -411.14712    181563.75   -13394.177     965.5637    -14359.74   -940.87331    609.91149    78.766348    25.162153    16.317632 
   96400    234.43029   -339.84949    181563.75   -13321.453    964.33319   -14285.786   -689.17266    615.63734    78.767995     25.15965    16.313842 
   96600     232.2797    -417.5319    181563.75   -13389.027    955.48668   -14344.514   -936.20513    616.69399    78.769945    25.157322    16.293218 
   96800    240.21932   -349.27319    181563.75   -13296.714    988.14647    -14284.86    -702.9761    616.91198    78.772764    25.155861    16.307887 
   97000     244.6136   -308.65175    181563.75   -13299.693    1006.2224   -14305.915   -498.78565    616.80915     78.77298    25.155621    16.296271 
   97200    248.34375   -322.17741    181563.75   -13267.202    1021.5665   -14288.768   -608.78094    617.18621    78.777754    25.153823    16.264917 
   97400    231.30309   -272.38708    181563.75   -13365.956     951.4694   -14317.425   -434.60889    614.00643    78.778035    25.155177     16.24185 
   97600    236.69605   -335.41449    181563.75   -13317.598    973.65342   -14291.251   -608.23738    614.70885    78.782021    25.160313    16.263914 
   97800    234.46215   -360.72524    181563.75   -13314.263    964.46426   -14278.727   -667.36136    614.41521    78.785279    25.164365    16.238247 
   98000    231.07468   -391.03747    181563.75   -13347.566    950.52981   -14298.096   -787.94891    615.93232    78.781913    25.166768    16.265017 
   98200    236.52126   -331.07707    181563.75   -13336.366    972.93442   -14309.301   -598.37567     613.9579    78.780974    25.170059    16.281202 
   98400      236.947   -404.20764    181563.75   -13329.072    974.68571   -14303.758   -910.31012    614.34643    78.780009    25.171168    16.265732 
   98600    240.89721   -353.85513    181563.75   -13303.552      990.935   -14294.487   -742.09771    617.31105    78.780995    25.172588    16.247773 
   98800    251.43372   -225.63673    181563.75   -13194.751    1034.2771   -14229.028   -206.54288    619.37671    78.784468    25.178618    16.223866 
   99000    247.39339   -415.86127    181563.75    -13244.77    1017.6571   -14262.427   -911.12841    622.64575     78.78208    25.180687    16.264706 
   99200    243.06922   -467.07655    181563.75   -13271.955    999.86959   -14271.824   -1107.1559    625.46981    78.783971    25.181452    16.257419 
   99400    249.98671   -414.40605    181563.75   -13270.621    1028.3248   -14298.945   -901.31241    627.23268    78.784922    25.175932    16.252625 
   99600    239.59909   -347.37935    181563.75   -13262.806    985.59513   -14248.401   -689.49361    629.41703    78.787018    25.176537     16.24985 
   99800    247.94913   -333.31836    181563.75   -13267.659    1019.9432   -14287.602   -628.64685    631.05833    78.787105      25.1758    16.234085 
  100000    240.97585   -319.65341    181563.75   -13322.028    991.25845   -14313.287    -554.7407     627.7317    78.787836     25.17075    16.240437 
  100200    243.71215    -167.2357    181563.75   -13233.902    1002.5143   -14236.416   -15.398541    622.64596    78.787761    25.167825    16.239751 
  100400    245.35173   -243.07897    181563.75   -13291.052    1009.2587   -14300.311   -260.43065    621.81361    78.785853    25.166032    16.216802 
  100600    234.49499   -329.87395    181563.75   -13367.742    964.59933   -14332.341    -601.2841    624.30675    78.786673     25.16323    16.234949 
  100800    248.37445   -210.08392    181563.75   -13319.841    1021.6927   -14341.534   -146.10937     622.8769    78.786415    25.159997    16.226269 
[...]
 5175800    230.26718   -757.70179    181563.75   -14686.249    947.20818   -15633.457   -2046.5534    4594.3839    79.768719    25.660841    16.410177 
 5176000    227.90041    -849.8548    181563.75   -14639.672     937.4724   -15577.144   -2384.4322    4594.6434     79.76915    25.661319    16.412411 
 5176200    225.43602   -731.75514    181563.75   -14652.038    927.33508   -15579.373   -1906.9898    4594.2184    79.769505    25.662736    16.408464 
 5176400    226.01663   -725.58045    181563.75   -14691.448    929.72346   -15621.172   -1936.3611      4591.38    79.769733    25.662251    16.410771 
 5176600    219.92238   -883.22669    181563.75   -14638.946    904.65465     -15543.6   -2477.8329     4595.983    79.769995    25.663642    16.405603 
 5176800    225.60157   -761.26801    181563.75   -14669.821    928.01608   -15597.837   -2002.2822    4594.8676    79.770293    25.663862    16.405055 
 5177000    222.63458   -719.83795    181563.75   -14679.726    915.81134   -15595.537   -1893.0533    4592.9493     79.77079    25.663793    16.407941 
 5177200    231.95012   -917.28574    181563.75   -14634.136    954.13096   -15588.267   -2585.1907    4596.8858    79.771506    25.663602    16.405438 
 5177400    226.75994   -776.87418    181563.75   -14665.211    932.78108   -15597.992   -2079.6325    4593.7512    79.772586    25.663918    16.403678 
 5177600    232.77875    -735.5937    181563.75   -14672.544    957.53955   -15630.083   -1950.7138    4591.2169     79.77314    25.664316    16.402787 
 5177800    228.12688   -846.20953    181563.75   -14683.523      938.404   -15621.927    -2368.639    4597.0894    79.774345    25.665876    16.405775 
 5178000    223.48777   -823.84609    181563.75   -14664.045    919.32095   -15583.366   -2224.9729    4595.9941    79.774931    25.665803    16.398736 
 5178200    230.84526   -764.39219    181563.75   -14680.223    949.58609   -15629.809   -2051.9315    4592.0279      79.7739    25.667026    16.404363 
 5178400    225.44663   -837.04693    181563.75   -14656.586    927.37873   -15583.964   -2351.4887    4596.1314    79.773578    25.667925    16.404923 
 5178600    233.17272   -792.11672    181563.75   -14652.459    959.16017   -15611.619   -2121.5986    4596.7703    79.772611    25.667667    16.402858 
 5178800    231.87141   -747.00476    181563.75   -14630.921    953.80719   -15584.729   -2004.8883     4592.622    79.772004     25.66836    16.402918 
 5179000    230.42159   -774.51612    181563.75   -14617.259    947.84332   -15565.102   -2114.4606    4594.8618    79.771194    25.669274    16.402861 
 5179200      222.731   -851.87904    181563.75    -14663.81    916.20796   -15580.018   -2388.2623    4596.6702    79.771807    25.670503    16.396562 
 5179400     219.3861   -755.92977    181563.75   -14670.572    902.44864   -15573.021   -2034.3535    4592.1497     79.77044    25.671201    16.406192 
 5179600    220.02803   -725.63268    181563.75   -14690.349    905.08923   -15595.438   -1918.0656     4593.889    79.769109    25.671817    16.407821 
 5179800    226.39366   -880.65627    181563.75   -14651.063    931.27435   -15582.337    -2483.932    4597.6327    79.768892    25.672653    16.401753 
 5180000     228.4606   -706.79424    181563.75   -14681.082    939.77676   -15620.858   -1833.8445    4590.9286    79.767379    25.672332    16.403722 
 5180200    225.95602   -663.73869    181563.75   -14662.553    929.47413   -15592.027   -1690.8132    4590.9405     79.76756    25.671893    16.405377 
 5180400    228.40358   -893.49857    181563.75   -14647.296    939.54222   -15586.838   -2497.3816    4596.1876    79.768312     25.67095    16.402288 
 5180600    219.61705   -724.19056    181563.75   -14707.688    903.39867   -15611.087   -1885.7457    4592.6365    79.768441    25.669994    16.405252 
 5180800    229.01647   -683.58314    181563.75   -14680.919    942.06335   -15622.982   -1781.0701    4593.0873    79.768869    25.668107    16.404474 
 5181000    226.07256   -899.99849    181563.75   -14686.004     929.9535   -15615.958   -2550.4232    4597.5466    79.769049    25.668151    16.404719 
 5181200     226.2399   -832.31449    181563.75   -14664.622    930.64189   -15595.264   -2335.1529    4595.8931    79.768783    25.668871    16.407441 
 5181400    229.52418   -673.22083    181563.75   -14652.964    944.15182   -15597.116   -1768.3253    4591.0696    79.768966     25.66832    16.401004 
 5181600    221.45473   -848.68671    181563.75    -14651.73    910.95797   -15562.688   -2352.7557    4596.2377    79.767868    25.669138    16.400221 
 5181800    223.86804   -788.89329    181563.75   -14627.089    920.88519   -15547.975   -2179.4519    4596.3037    79.768584      25.6689     16.40283 
 5182000    227.85963   -695.45405    181563.75   -14697.818    937.30468   -15635.123   -1827.1022    4592.4152    79.768157    25.668087    16.401381 
 5182200    217.95622   -860.28236    181563.75   -14766.991    896.56679   -15663.558   -2386.3459    4596.5239    79.767219    25.667621    16.407353 
 5182400    226.74022   -832.12489    181563.75   -14671.234    932.69996   -15603.934   -2314.1781    4596.4032    79.766282    25.668973      16.4063 
 5182600    229.07396   -686.14795    181563.75   -14644.427    942.29985   -15586.727   -1848.7088    4590.3908    79.764657    25.668349    16.403286 
 5182800    220.89533   -830.63662    181563.75   -14669.751    908.65687   -15578.408   -2258.6469    4595.1602    79.763019    25.668033    16.399238 
 5183000    226.19886   -844.68513    181563.75   -14664.085    930.47304   -15594.558   -2326.0594    4596.8172    79.763802    25.667692    16.402227 
 5183200    227.06061   -651.30533    181563.75    -14636.59    934.01787   -15570.607   -1653.8504     4588.977    79.763141    25.668069    16.400001 
 5183400    225.38483   -816.89752    181563.75   -14687.172    927.12451   -15614.296    -2219.677    4596.3652    79.763302    25.669506    16.399172 
 5183600    221.02252   -886.70405    181563.75   -14669.777    909.18007   -15578.957   -2495.7053    4597.1439    79.762853    25.670396    16.403543 
 5183800     225.2336   -624.92297    181563.75    -14705.91    926.50245   -15632.413     -1588.59    4590.3691     79.76201    25.670011    16.395514 
 5184000    223.71277   -765.96366    181563.75   -14684.129    920.24646   -15604.376   -2059.3087    4595.0018    79.761686    25.670563    16.400083 
 5184200    224.34117   -890.72578    181563.75   -14673.943     922.8314   -15596.774   -2487.9089     4599.952    79.762346    25.670662    16.400239 
 5184400    223.82413   -647.03533    181563.75   -14689.054    920.70456   -15609.758   -1662.3049    4591.0262     79.76274    25.669368    16.403415 
 5184600    225.94149   -686.10189    181563.75    -14657.13    929.41437   -15586.545    -1780.179    4593.3296     79.76216    25.669719     16.40013 
 5184800    227.94965   -943.70898    181563.75   -14613.635    937.67496    -15551.31   -2697.2381    4599.6623    79.761805    25.668779    16.396048 
 5185000    233.12337   -665.44513    181563.75   -14615.124    958.95715   -15574.081   -1722.0993    4591.9697    79.761351    25.668713    16.401659 
 5185200     227.3441   -707.28337    181563.75   -14659.022    935.18401   -15594.206   -1862.0901    4593.3025     79.76049    25.668604    16.397271 
 5185400    227.26739   -938.25816    181563.75   -14671.336    934.86845   -15606.205   -2653.5795    4598.5719    79.759465    25.668504    16.397816 
 5185600    220.47666   -643.44078    181563.75   -14725.844    906.93469   -15632.779   -1603.5815    4591.3419    79.758171    25.668615    16.403689 
 5185800    226.57087   -688.88565    181563.75   -14666.914    932.00331   -15598.917   -1818.4447     4591.938    79.757121    25.668463    16.403559 
 5186000    231.32668   -908.51195    181563.75   -14627.179    951.56642   -15578.745    -2537.476    4597.8171    79.757035    25.666663    16.404708 
 5186200    230.52868   -708.91034    181563.75   -14615.643    948.28384   -15563.927   -1898.0069    4590.1611    79.757096    25.667559    16.401061 
 5186400     228.9061    -641.3875    181563.75   -14685.066    941.60933   -15626.676   -1648.9978     4590.781    79.756121    25.667035    16.395761 
 5186600    228.78991   -842.26945    181563.75   -14667.378    941.13138   -15608.509   -2317.5135    4597.2005    79.756134    25.667111    16.397614 
 5186800    236.74065   -732.76832    181563.75   -14635.033     973.8369    -15608.87   -1940.9675    4592.4583     79.75584    25.667747    16.403167 
 5187000    225.73783   -684.76931    181563.75   -14673.552    928.57658   -15602.128    -1758.073    4591.0918    79.756442    25.666661    16.401376 
 5187200    230.46507   -925.91367    181563.75   -14655.463     948.0222   -15603.485   -2634.5006    4597.3545    79.757451     25.66624    16.403181 
 5187400    222.86246   -788.07825    181563.75   -14703.876     916.7487   -15620.624   -2132.1244    4593.5775    79.756485    25.666503     16.40418 
 5187600    228.94967   -679.00894    181563.75   -14682.361    941.78854   -15624.149   -1757.8758    4592.5977    79.755463    25.665271    16.401192 
 5187800    228.33443   -965.12386    181563.75    -14653.49    939.25775   -15592.747   -2784.4667    4598.8942    79.754923     25.66371    16.404064 
 5188000    219.62155   -738.99086    181563.75   -14680.656    903.41718   -15584.074   -1960.1315     4594.635    79.754225    25.664947    16.408677 
 5188200    232.80833   -727.85592    181563.75   -14655.626    957.66123   -15613.287   -1951.6156     4592.285    79.752855    25.664614    16.401469 
 5188400    222.33765    -959.5788    181563.75   -14669.697    914.58988   -15584.287   -2757.0494    4596.7266    79.752719    25.664342    16.399284 
 5188600     220.7212   -773.37469    181563.75   -14692.022    907.94058   -15599.963   -2063.0214    4594.4606    79.752532    25.665462    16.401839 
 5188800    228.19239   -710.26839    181563.75   -14645.653    938.67347   -15584.327   -1917.5948    4590.8948    79.751853    25.664873    16.400085 
 5189000    224.56906   -859.33629    181563.75   -14664.816    923.76884   -15588.585   -2403.2698    4596.7898    79.751223    25.664832    16.404427 
 5189200    225.22631   -745.75479    181563.75   -14650.056    926.47244   -15576.529   -1980.5119    4594.4194    79.750167      25.6645    16.401031 
 5189400    225.52797   -672.24549    181563.75   -14668.141    927.71332   -15595.854   -1757.6373    4591.2288    79.749622      25.6635    16.398912 
 5189600    226.99293   -847.08555    181563.75   -14679.488    933.73946   -15613.228   -2348.4043     4596.242    79.749763    25.663232    16.407424 
 5189800    224.43845   -773.20913    181563.75   -14681.695    923.23155   -15604.927    -2067.736    4592.2503    79.750495     25.66355    16.405097 
 5190000    222.56579   -736.57438    181563.75    -14662.53    915.52834   -15578.058     -1980.99    4593.5552    79.749819    25.663822    16.403279 
 5190200      218.328    -883.3519    181563.75   -14696.316    898.09615   -15594.412   -2511.9223    4595.1309    79.749899    25.664375    16.404624 
 5190400       228.99   -757.35245    181563.75   -14655.082    941.95446   -15597.037   -2038.3746    4594.6548    79.749811    25.664972    16.406169 
 5190600    234.83571   -692.39396    181563.75   -14638.672    966.00089   -15604.673   -1824.5851    4592.0745    79.749704    25.665676    16.393107 
 5190800    231.34188   -802.88831    181563.75   -14663.459    951.62897   -15615.088    -2194.653    4595.3317    79.750059    25.665081    16.397869 
 5191000    214.42971   -858.85754    181563.75   -14709.966    882.06043   -15592.027    -2408.369    4595.8328    79.749864    25.665464     16.40108 
 5191200    224.08706   -657.69974    181563.75   -14683.705    921.78612   -15605.491   -1681.2592    4591.7965     79.74937    25.664896    16.405396 
 5191400     226.3557   -793.45767    181563.75   -14665.489    931.11821   -15596.608   -2174.0163    4594.4759    79.748041    25.664933    16.400387 
 5191600    228.01593    -897.7965    181563.75   -14659.476    937.94761   -15597.424   -2522.2999    4597.0126    79.749682    25.665425    16.401272 
 5191800    222.88435   -709.09713    181563.75   -14676.177    916.83877   -15593.016   -1910.6175    4590.3748    79.750709    25.666968    16.400852 
 5192000    232.32449   -724.91744    181563.75   -14639.971    955.67093   -15595.642   -1935.5597    4592.7051    79.751647    25.669401    16.396311 
 5192200    238.74413   -824.95162    181563.75   -14594.256    982.07826   -15576.334    -2258.093    4599.2383    79.752267    25.670025    16.407686 
 5192400    236.35079   -655.44206    181563.75   -14587.977    972.23319    -15560.21   -1694.8329    4590.4571    79.750354    25.671032    16.397957 
 5192600    222.73807   -756.20179    181563.75   -14659.667    916.23705   -15575.904   -2006.4463    4594.4324    79.750437    25.671753     16.39873 
 5192800    220.43748   -866.28478    181563.75   -14670.711    906.77352   -15577.485   -2416.5353     4598.578    79.751394     25.67134    16.403727 
 5193000    227.78595   -620.70173    181563.75   -14657.278    937.00159    -15594.28   -1542.1347    4592.1046    79.752373    25.671576    16.398958 
 5193200    225.25025   -754.46578    181563.75   -14646.747    926.57091   -15573.318   -2019.9211    4594.2209      79.7521    25.670584    16.404408 
 5193400    222.90709   -884.37876    181563.75   -14714.539    916.93231   -15631.471   -2464.6586    4598.3589    79.751821    25.670975    16.403156 
 5193600    232.22442   -699.14504    181563.75   -14653.504    955.25932   -15608.763   -1834.2033    4592.4765     79.75269    25.670036    16.400084 
 5193800    222.23946   -688.67141    181563.75   -14681.492    914.18597   -15595.677   -1768.8823    4594.4373    79.751211    25.671479    16.398795 
 5194000    230.35145   -858.72998    181563.75   -14637.403    947.55481   -15584.957   -2394.9379     4597.643    79.751338    25.668409    16.402817 
 5194200    228.25752   -744.18142    181563.75    -14659.76    938.94138   -15598.701   -1979.2357    4595.0748    79.751758    25.667401    16.397237 
 5194400    234.97592   -716.71849    181563.75   -14630.137    966.57764   -15596.715   -1859.6388    4594.4318    79.749889    25.667084      16.3954 
 5194600    224.90343   -855.84981    181563.75   -14676.801    925.14429   -15601.945   -2398.0698    4597.5275    79.750225    25.667548     16.39893 
 5194800    230.02357   -763.00678    181563.75   -14644.883    946.20607   -15591.089   -2076.7922    4595.7149    79.748714    25.668964       16.397 
 5195000    226.40285   -717.33197    181563.75   -14633.859    931.31216   -15565.172    -1917.023    4593.9069    79.747757    25.669431    16.394221 
 5195200    221.06165   -850.65097    181563.75   -14683.874    909.34105   -15593.216   -2327.2861    4598.4426    79.748071    25.670192    16.387373 
 5195400    224.61753   -799.38333    181563.75    -14657.55    923.96821   -15581.519   -2171.1805    4596.8726    79.747825    25.670096    16.390435 
 5195600    224.83738   -768.68873    181563.75   -14662.801    924.87257   -15587.674   -2102.0324    4594.7379     79.74864    25.670656    16.388136 
 5195800    214.68158   -803.15765    181563.75    -14667.39     883.0965   -15550.487   -2185.6468    4596.7953    79.746512    25.670946    16.391827 
 5196000    232.33551   -841.57836    181563.75   -14623.102    955.71628   -15578.818   -2314.5007    4596.2088    79.746889    25.670996    16.391964 
 5196200    221.85759   -712.66531    181563.75   -14656.085    912.61517     -15568.7   -1897.2982    4592.5067     79.74672    25.671278    16.394383 
 5196400    223.78973   -843.67331    181563.75   -14602.407    920.56305    -15522.97   -2345.8444    4598.4217    79.746372    25.670117    16.395607 
 5196600    220.73768    -782.5373    181563.75   -14678.479    908.00841   -15586.487   -2093.6639    4597.5334    79.745926    25.670431    16.396143 
 5196800    222.38351   -706.59878    181563.75    -14662.43    914.77854   -15577.208   -1838.9848    4593.0001    79.746144    25.670281    16.395662 
 5197000    230.26209   -788.72057    181563.75   -14640.581    947.18723   -15587.768   -2147.6822    4595.1221    79.746468    25.670112    16.398605 
 5197200    227.59324    -892.4976    181563.75   -14651.922    936.20886   -15588.131    -2540.952    4596.9182     79.74686    25.669488     16.38858 
 5197400     232.3691   -680.16037    181563.75   -14593.895    955.85445   -15549.749   -1727.5891    4592.7182    79.745384    25.668997    16.392903 
 5197600    229.32678   -787.34644    181563.75   -14634.706    943.33983   -15578.046   -2144.5129    4596.1756    79.745531     25.66877    16.394061 
 5197800    229.92191   -884.99488    181563.75   -14638.775    945.78789   -15584.563   -2491.8511    4599.2824    79.746811    25.667547    16.396374 
 5198000    233.56998   -681.68393    181563.75   -14610.919    960.79428   -15571.714   -1707.5572    4592.9275    79.746471    25.668493    16.388762 
 5198200    233.17746   -772.45063    181563.75    -14643.97    959.17964   -15603.149   -2102.2118    4594.2034    79.745177    25.668615    16.395299 
 5198400    227.31954   -884.57681    181563.75   -14673.586      935.083   -15608.669   -2510.2012    4597.3222    79.744822    25.667126     16.39542 
 5198600    227.71755   -726.12408    181563.75   -14660.363    936.72021   -15597.083   -1950.5622    4591.6661    79.743928     25.66688    16.386518 
 5198800    218.40808   -769.50041    181563.75   -14696.611    898.42552   -15595.036   -2087.7925    4595.4403    79.743031    25.667127    16.391522 
 5199000    226.23351   -886.34263    181563.75   -14666.077    930.61558   -15596.693   -2500.1902    4597.6251    79.743083    25.667853    16.393229 
 5199200    226.64119   -714.43521    181563.75   -14666.252     932.2926   -15598.544   -1896.6812    4594.6853    79.743719    25.666883    16.392129 
 5199400    222.79147    -756.4442    181563.75   -14694.866    916.45668   -15611.323   -2008.4454    4596.2998    79.742801    25.665862    16.391629 
 5199600    221.22427   -843.82812    181563.75   -14696.748    910.00999   -15606.758   -2320.1293    4596.9474    79.742685    25.665876    16.388668 
 5199800    228.66376   -738.67932    181563.75    -14646.49    940.61247   -15587.102    -1970.822    4593.1545    79.740936    25.666651     16.39379 
 5200000    227.16733   -745.88342    181563.75   -14645.455    934.45689   -15579.912   -1980.2122    4593.9297    79.739415     25.66682    16.389027 
Loop time of 7706.87 on 100 procs for 5200000 steps with 9253 atoms

Performance: 582.961 ns/day, 0.041 hours/ns, 674.723 timesteps/s
97.5% CPU use with 100 MPI tasks x no OpenMP threads

MPI task timing breakdown:
Section |  min time  |  avg time  |  max time  |%varavg| %total
---------------------------------------------------------------
Pair    | 0.509      | 2054.2     | 6311.6     |4999.9 | 26.65
Neigh   | 4.8722     | 145.31     | 355.46     | 975.0 |  1.89
Comm    | 126.09     | 1495.6     | 5519.6     |3876.6 | 19.41
Output  | 89.194     | 89.332     | 93.246     |   4.2 |  1.16
Modify  | 200.95     | 3723.7     | 7404.3     |4975.3 | 48.32
Other   |            | 198.6      |            |       |  2.58

Nlocal:    92.53 ave 188 max 0 min
Histogram: 30 0 8 12 0 0 0 4 34 12
Nghost:    793.93 ave 1089 max 578 min
Histogram: 23 7 0 22 13 5 4 14 2 10
Neighs:    0 ave 0 max 0 min
Histogram: 100 0 0 0 0 0 0 0 0 0
FullNghs:  9918.66 ave 22750 max 0 min
Histogram: 34 16 0 0 0 0 0 24 21 5

Total # of neighbors = 991866
Ave neighs/atom = 107.194
Neighbor list builds = 516989
Dangerous builds = 0
write_data 		${DIR}/data.${NAME}_run
write_data 		run_24/data.${NAME}_run
write_data 		run_24/data.ibeam_cooling_24_run
Total wall time: 2:08:42
