

### IMPORT ATOMS ###
read_data ../Box_Setup/data.Ibeam_240K
  orthogonal box = (0 0 0) to (157.504 42.9242 26.8557)
  10 by 5 by 2 MPI processor grid
  reading atoms ...
  9253 atoms
  reading velocities ...
  9253 velocities
group water type 2
1381 atoms in group water
group graphite type 1
7872 atoms in group graphite


# Define potential
#
pair_style          sw
pair_coeff * * MLC_e.sw C mW

# Add velocity/set timestep
#

fix		1 graphite setforce 0.0 0.0 0.0
velocity 	graphite set 0.0 0.0 0.0
velocity            water create ${START_TEMP} ${SEED} rot yes dist gaussian
velocity            water create 240 ${SEED} rot yes dist gaussian
velocity            water create 240 9795 rot yes dist gaussian
timestep            5.0

# Define output
#
compute 1 water msd
compute 2 water temp


thermo	            100
thermo_style custom step c_2 press vol etotal ke pe c_1[4] density

# Neighbor lists
#
neigh_modify        delay 0 every 1 check yes


# Set fixes
#
fix                 2 water momentum 10 linear 1 1 1 rescale
fix                 3 all nve
fix                 4 water temp/csvr ${START_TEMP} ${START_TEMP} 500.0 928347
fix                 4 water temp/csvr 240 ${START_TEMP} 500.0 928347
fix                 4 water temp/csvr 240 240 500.0 928347

# Run 0.05 ns equilibration
#
dump                1 all custom 100 ${DIR}/eq.${NAME}.dump id type x y z vx vy vz
dump                1 all custom 100 run_24/eq.${NAME}.dump id type x y z vx vy vz
dump                1 all custom 100 run_24/eq.ibeam_cooling_24.dump id type x y z vx vy vz
run                 10000
Neighbor list info ...
  update every 1 steps, delay 0 steps, check yes
  max neighbors/atom: 2000, page size: 100000
  master list distance cutoff = 6.67472
  ghost atom cutoff = 6.67472
  binsize = 3.33736, bins = 48 13 9
  1 neighbor lists, perpetual/occasional/extra = 1 0 0
  (1) pair sw, perpetual
      attributes: full, newton on
      pair build: full/bin/atomonly
      stencil: full/bin/3d
      bin: standard
Per MPI rank memory allocation (min/avg/max) = 3.369 | 4.254 | 4.745 Mbytes
Step c_2 Press Volume TotEng KinEng PotEng c_1[4] Density 
       0          240   -344.39513    181563.75    -13284.54    987.24429   -14271.784            0    1.0922001 
     100    241.92164   -265.71556    181563.75    -13248.86    995.14898   -14244.009   0.80789085    1.0922001 
     200    244.22181   -331.58604    181563.75   -13294.286    1004.6108   -14298.897    1.1917194    1.0922001 
     300    240.28215   -335.62462    181563.75   -13287.507    988.40494   -14275.912    1.6087371    1.0922001 
     400    234.78533   -412.58127    181563.75    -13300.29    965.79366   -14266.083      1.98718    1.0922001 
     500    235.14102   -274.25787    181563.75    -13310.44    967.25679   -14277.697    2.3543405    1.0922001 
     600    231.83198    -310.1585    181563.75   -13395.552      953.645   -14349.197    2.7751676    1.0922001 
     700    233.44175   -269.51547    181563.75   -13387.413    960.26682    -14347.68    3.3240785    1.0922001 
     800    231.31126   -393.52061    181563.75   -13416.155    951.50299   -14367.658    3.7937229    1.0922001 
     900    234.81982   -361.40587    181563.75   -13378.698    965.93554   -14344.633    4.2289927    1.0922001 
    1000    246.57166   -313.34344    181563.75   -13322.208    1014.2769   -14336.485    4.5941326    1.0922001 
    1100    237.21656   -259.72583    181563.75   -13349.361    975.79455   -14325.155    4.7478533    1.0922001 
    1200    232.33139   -418.97888    181563.75   -13379.503    955.69931   -14335.202    4.8328148    1.0922001 
    1300    237.66105   -425.43499    181563.75   -13338.344    977.62298   -14315.967    5.0135239    1.0922001 
    1400    239.15587   -243.83549    181563.75   -13279.095    983.77193   -14262.867    5.4319805    1.0922001 
    1500    250.95077   -169.74605    181563.75   -13295.625    1032.2905   -14327.915    5.9586551    1.0922001 
    1600    237.82947   -299.78691    181563.75   -13268.306    978.31579   -14246.621    6.1872073    1.0922001 
    1700    242.63352   -345.25768    181563.75   -13293.749    998.07731   -14291.826     6.625139    1.0922001 
    1800    245.85693   -463.09496    181563.75   -13307.904    1011.3369   -14319.241    6.8717622    1.0922001 
    1900    249.54095   -204.67097    181563.75   -13246.734    1026.4912   -14273.225    7.0364536    1.0922001 
    2000     249.2032   -380.00831    181563.75   -13223.843    1025.1018   -14248.945    7.4325699    1.0922001 
    2100    248.73377   -358.47538    181563.75   -13230.719    1023.1708    -14253.89    7.6272004    1.0922001 
    2200    243.02411   -257.56409    181563.75   -13228.521    999.68404   -14228.205    7.9698507    1.0922001 
    2300    240.72676    -215.0822    181563.75   -13272.952    990.23381   -14263.185    8.5571404    1.0922001 
    2400    245.79583   -228.41048    181563.75   -13268.595    1011.0855    -14279.68    8.8676347    1.0922001 
    2500    252.74796   -328.66019    181563.75   -13266.292    1039.6832   -14305.975    9.3657426    1.0922001 
    2600    241.04682   -307.88829    181563.75   -13310.004    991.55039   -14301.555     9.741557    1.0922001 
    2700    245.35294   -479.69234    181563.75    -13295.44    1009.2637   -14304.704     10.02631    1.0922001 
    2800    244.59148   -382.70524    181563.75   -13298.096    1006.1314   -14304.227    10.558367    1.0922001 
    2900    235.83081   -394.49046    181563.75    -13342.25    970.09427   -14312.344     11.00954    1.0922001 
    3000    246.38934   -438.44118    181563.75   -13361.983    1013.5269    -14375.51    11.430269    1.0922001 
    3100     242.1509   -293.91929    181563.75   -13357.813    996.09206   -14353.905    11.408184    1.0922001 
    3200    236.38723   -306.33681    181563.75     -13362.4    972.38309   -14334.783     11.63604    1.0922001 
    3300    243.75296    -313.1956    181563.75   -13310.706    1002.6822   -14313.388    12.129499    1.0922001 
    3400    232.08228   -229.79042    181563.75   -13325.657    954.67461   -14280.332    12.343539    1.0922001 
    3500    235.55511   -416.12469    181563.75   -13328.016    968.96017   -14296.976    12.740512    1.0922001 
    3600      239.103   -398.07933    181563.75   -13316.534    983.55445   -14300.088    12.930487    1.0922001 
    3700     234.5239   -400.28349    181563.75   -13350.649    964.71824   -14315.367    13.201428    1.0922001 
    3800    240.81228   -404.74862    181563.75   -13334.266    990.58562   -14324.852    13.417971    1.0922001 
    3900    245.30286   -357.55849    181563.75   -13349.199    1009.0577   -14358.257    13.804895    1.0922001 
    4000    238.13856   -350.14476    181563.75   -13362.847    979.58724   -14342.434    14.095361    1.0922001 
    4100    245.20211    -392.2565    181563.75   -13335.531    1008.6433   -14344.174     14.49129    1.0922001 
    4200    244.44992   -488.32996    181563.75   -13306.246    1005.5491   -14311.795    14.686111    1.0922001 
    4300    251.06702   -301.72755    181563.75   -13244.024    1032.7687   -14276.793    14.991101    1.0922001 
    4400    247.52202   -428.34022    181563.75   -13253.717    1018.1863   -14271.904    15.205458    1.0922001 
    4500    246.40548   -245.13881    181563.75   -13307.018    1013.5934   -14320.612    15.360763    1.0922001 
    4600     235.2682   -310.59928    181563.75   -13331.646    967.77992   -14299.426    15.892702    1.0922001 
    4700    240.54005   -348.22931    181563.75   -13342.892    989.46581   -14332.358    16.237403    1.0922001 
    4800    243.70401   -448.23745    181563.75   -13323.688    1002.4808   -14326.169    16.916666    1.0922001 
    4900    235.15403   -225.41612    181563.75   -13351.786    967.31031   -14319.096    16.865818    1.0922001 
    5000    236.27113   -363.05641    181563.75   -13381.352    971.90553   -14353.257    17.100184    1.0922001 
    5100    239.54742   -356.01023    181563.75   -13390.627    985.38258    -14376.01    17.739454    1.0922001 
    5200    243.42934   -368.20123    181563.75   -13374.305    1001.3509   -14375.655    17.531516    1.0922001 
    5300    235.00652   -375.83324    181563.75   -13418.161    966.70351   -14384.864    17.976153    1.0922001 
    5400    238.82807   -306.79502    181563.75     -13377.8    982.42353   -14360.224    18.018546    1.0922001 
    5500    242.85176   -331.38235    181563.75   -13402.476    998.97504   -14401.451    18.105828    1.0922001 
    5600    231.44815   -323.90456    181563.75   -13406.419    952.06612   -14358.485    18.376249    1.0922001 
    5700    240.42485    -439.5008    181563.75    -13360.91    988.99191   -14349.902     18.22801    1.0922001 
    5800    243.58897   -347.47164    181563.75     -13290.6    1002.0076   -14292.608    18.002741    1.0922001 
    5900    238.69465   -379.82051    181563.75   -13323.333     981.8747   -14305.207    18.208889    1.0922001 
    6000    235.72292   -302.86891    181563.75   -13388.822    969.65044   -14358.472    18.399383    1.0922001 
    6100    237.35569   -331.77952    181563.75   -13381.024    976.36688   -14357.391    18.412664    1.0922001 
    6200    241.63002   -323.86454    181563.75   -13353.751    993.94941     -14347.7    18.801963    1.0922001 
    6300     242.0625    -309.6488    181563.75   -13333.742    995.72843   -14329.471    19.639992    1.0922001 
    6400    241.65235   -215.71982    181563.75   -13332.559    994.04125     -14326.6    20.302131    1.0922001 
    6500    239.15628    -417.5133    181563.75   -13346.829    983.77364   -14330.603    20.715268    1.0922001 
    6600    235.68154   -348.52152    181563.75   -13393.634    969.48024   -14363.114    21.236272    1.0922001 
    6700    245.27547   -393.48231    181563.75   -13419.481     1008.945   -14428.426    21.571595    1.0922001 
    6800    234.57909   -342.12699    181563.75   -13401.212    964.94529   -14366.158    21.796932    1.0922001 
    6900    229.29151   -293.05855    181563.75   -13424.964    943.19473   -14368.159    21.582167    1.0922001 
    7000    234.94258   -249.73376    181563.75   -13404.122    966.44051   -14370.562     21.60189    1.0922001 
    7100    242.60629   -244.20054    181563.75    -13335.36     997.9653   -14333.325    21.914233    1.0922001 
    7200    246.45956   -361.31831    181563.75   -13340.804    1013.8158    -14354.62    22.589031    1.0922001 
    7300    229.61131   -364.08289    181563.75   -13396.207    944.51021   -14340.717    23.437363    1.0922001 
    7400    231.82561    -399.7284    181563.75   -13398.788    953.61878   -14352.407    23.832916    1.0922001 
    7500    235.29984   -260.71567    181563.75   -13411.753    967.91011   -14379.664    23.875044    1.0922001 
    7600    230.26639   -351.92404    181563.75   -13424.024     947.2049   -14371.229    23.702791    1.0922001 
    7700     235.7073   -321.63469    181563.75   -13405.926     969.5862   -14375.513     23.92996    1.0922001 
    7800    244.22096   -535.99159    181563.75   -13357.478    1004.6073   -14362.085    24.191423    1.0922001 
    7900    238.83874   -500.41102    181563.75   -13356.482    982.46741   -14338.949     24.57007    1.0922001 
    8000    236.39756   -432.94134    181563.75   -13349.721     972.4256   -14322.146    25.000099    1.0922001 
    8100    241.41439   -405.71364    181563.75   -13363.606     993.0624   -14356.668    25.058725    1.0922001 
    8200    229.71617   -524.48644    181563.75   -13381.113    944.94157   -14326.055    25.527789    1.0922001 
    8300    235.68564   -408.51027    181563.75   -13390.545    969.49708   -14360.042    25.957379    1.0922001 
    8400    233.80074    -331.9861    181563.75   -13391.861    961.74352   -14353.605    26.102859    1.0922001 
    8500       236.39   -315.94964    181563.75   -13374.777     972.3945   -14347.172    26.119151    1.0922001 
    8600    243.24025   -370.29763    181563.75   -13338.965    1000.5731   -14339.538       26.357    1.0922001 
    8700    231.60978   -466.58949    181563.75   -13398.676    952.73096   -14351.407    26.431673    1.0922001 
    8800    238.71358   -398.24911    181563.75   -13361.459    981.95257   -14343.412    26.892008    1.0922001 
    8900    234.23978   -328.22895    181563.75   -13374.092    963.54951   -14337.642     26.92626    1.0922001 
    9000    241.98494   -408.58292    181563.75   -13336.074    995.40937   -14331.483    27.518381    1.0922001 
    9100    248.90305    -446.4744    181563.75   -13327.322    1023.8671   -14351.189    28.121694    1.0922001 
    9200    240.14346    -441.9875    181563.75   -13361.482    987.83441   -14349.317    28.557882    1.0922001 
    9300    236.51595   -553.55597    181563.75   -13368.184    972.91258   -14341.097    28.846687    1.0922001 
    9400    236.00024   -452.07675    181563.75   -13364.322    970.79119   -14335.114    28.903667    1.0922001 
    9500    234.32483   -246.87974    181563.75   -13342.195    963.89939   -14306.094    29.166191    1.0922001 
    9600    220.95307    -233.2991    181563.75   -13395.552     908.8944   -14304.446    29.330238    1.0922001 
    9700    238.06156   -262.74046    181563.75   -13337.793    979.27046   -14317.063    29.870363    1.0922001 
    9800    232.10069   -406.60325    181563.75   -13365.406    954.75034   -14320.157    30.251325    1.0922001 
    9900    235.48259   -460.16583    181563.75    -13321.23    968.66185   -14289.892    30.717652    1.0922001 
   10000    247.15902    -361.8048    181563.75   -13270.651     1016.693   -14287.344    31.032399    1.0922001 
Loop time of 15.4066 on 100 procs for 10000 steps with 9253 atoms

Performance: 280.400 ns/day, 0.086 hours/ns, 649.074 timesteps/s
97.8% CPU use with 100 MPI tasks x no OpenMP threads

MPI task timing breakdown:
Section |  min time  |  avg time  |  max time  |%varavg| %total
---------------------------------------------------------------
Pair    | 0.00098586 | 4.4131     | 12.982     | 236.2 | 28.64
Neigh   | 0.0052013  | 0.15743    | 0.36207    |  31.7 |  1.02
Comm    | 0.22553    | 2.9219     | 11.322     | 182.5 | 18.97
Output  | 0.14518    | 0.14539    | 0.15539    |   0.3 |  0.94
Modify  | 0.27236    | 7.6298     | 14.902     | 231.5 | 49.52
Other   |            | 0.139      |            |       |  0.90

Nlocal:    92.53 ave 188 max 0 min
Histogram: 30 1 9 10 0 0 0 4 35 11
Nghost:    792.35 ave 1107 max 579 min
Histogram: 24 6 0 24 14 2 8 10 2 10
Neighs:    0 ave 0 max 0 min
Histogram: 100 0 0 0 0 0 0 0 0 0
FullNghs:  9998.7 ave 22999 max 0 min
Histogram: 35 15 0 0 0 0 3 21 21 5

Total # of neighbors = 999870
Ave neighs/atom = 108.059
Neighbor list builds = 551
Dangerous builds = 0
write_data 	    ${DIR}/data.${NAME}_eq
write_data 	    run_24/data.${NAME}_eq
write_data 	    run_24/data.ibeam_cooling_24_eq

undump              1
unfix               4



################################################
#######         Run Simulation         #########
################################################

reset_timestep      0
timestep	    10.0
log                 ${DIR}/log.run_${NAME}
log                 run_24/log.run_${NAME}
log                 run_24/log.run_ibeam_cooling_24
