
# Set production fixes - Nose/Hoover
#
fix                 4 water temp/csvr ${START_TEMP} ${END_TEMP} 500.0 928347
fix                 4 water temp/csvr 240 ${END_TEMP} 500.0 928347
fix                 4 water temp/csvr 240 227 500.0 928347


## divide "droplet" into core and surface
#region		core_reg cylinder z 135 135 44.6 20 INF units box
#region		surface_reg cylinder z 135 135 44.6 20 INF units box side out
#group		core dynamic all region core_reg
#group		surface dynamic all region surface_reg

## compute pressure core
#compute        peratom_core core stress/atom NULL
#compute        p_core core reduce sum c_peratom_core[1] c_peratom_core[2] c_peratom_core[3]
#variable       press_core equal -(c_p_core[1]+c_p_core[2]+c_p_core[3])/(3*1249982.5)


## compute pressure surface
#compute        peratom_surf surface stress/atom NULL
#compute        p_surf surface reduce sum c_peratom_surf[1] c_peratom_surf[2] #c_peratom_surf[3]
#variable       press_surf equal -(c_p_surf[1]+c_p_surf[2]+c_p_surf[3])/(3*42395)

## compute total pressure of drop
compute        peratom water stress/atom NULL
compute        p water reduce sum c_peratom[1] c_peratom[2] c_peratom[3]
variable       press equal -(c_p[1]+c_p[2]+c_p[3])/(3*58301)


# compute order parameter
compute        3 all orientorder/atom nnn NULL cutoff 3.5

# compute center of mass of bridge
compute 	4 water com

# Run simulation
thermo_style        custom step c_2 press vol etotal ke pe v_press c_1[4] c_4[*]
thermo              200
dump		     1 water custom 400 ${DIR}/prod.${NAME}.dump id type x y z vx vy vz c_3[*] c_peratom[*]
dump		     1 water custom 400 run_11/prod.${NAME}.dump id type x y z vx vy vz c_3[*] c_peratom[*]
dump		     1 water custom 400 run_11/prod.ibeam_cooling_11.dump id type x y z vx vy vz c_3[*] c_peratom[*]
run                 ${STEPS}
run                 5200000
Neighbor list info ...
  update every 1 steps, delay 0 steps, check yes
  max neighbors/atom: 2000, page size: 100000
  master list distance cutoff = 6.6747184
  ghost atom cutoff = 6.6747184
  binsize = 3.3373592, bins = 48 11 14
  2 neighbor lists, perpetual/occasional/extra = 1 1 0
  (1) pair sw, perpetual
      attributes: full, newton on
      pair build: full/bin/atomonly
      stencil: full/bin/3d
      bin: standard
  (2) compute orientorder/atom, occasional, copy from (1)
      attributes: full, newton on
      pair build: copy
      stencil: none
      bin: none
Per MPI rank memory allocation (min/avg/max) = 6.104 | 6.801 | 7.323 Mbytes
Step c_2 Press Volume TotEng KinEng PotEng v_press c_1[4] c_4[1] c_4[2] c_4[3] 
       0     242.9294   -296.32165    263624.46   -25747.346    1966.0032    -27713.35   -792.05443    36.854826    78.606922    18.375438    27.509772 
     200    239.84247   -151.37552    263624.46    -25788.63    1941.0209   -27729.651   -155.90818    37.839259    78.605143    18.376124    27.520261 
     400    236.42371   -332.68765    263624.46   -25792.497    1913.3533   -27705.851   -963.75709     39.20618     78.60571    18.377062    27.527928 
     600    245.51506   -293.75376    263624.46   -25682.149    1986.9286   -27669.078   -740.05648    40.536672    78.607377    18.378088     27.53567 
     800    236.27027   -346.54042    263624.46   -25683.567    1912.1115   -27595.678   -1006.9362    41.425024    78.606631    18.377848    27.558092 
    1000    239.48058   -269.64035    263624.46   -25746.089    1938.0922   -27684.181   -663.36421    42.420721    78.606052    18.379448    27.552388 
    1200    237.32695   -263.01087    263624.46   -25737.441    1920.6631   -27658.104   -697.56695    43.997328     78.60521    18.380719    27.547523 
    1400    241.65119   -429.35064    263624.46   -25729.919    1955.6587   -27685.578   -1407.8543    44.786168    78.605182    18.379679    27.542357 
    1600    236.61794   -191.91934    263624.46   -25715.988    1914.9252   -27630.913   -302.94596    45.543843    78.604747    18.380128    27.536868 
    1800    239.97762   -413.86232    263624.46   -25696.691    1942.1147   -27638.805   -1316.1457    46.691745    78.603253    18.377333    27.545833 
    2000    245.00716   -196.22413    263624.46   -25623.758    1982.8182   -27606.576   -372.29732    47.724152     78.60213    18.376566    27.556345 
    2200    240.03627   -129.97871    263624.46   -25712.031    1942.5894    -27654.62   -30.139485    48.783208    78.603216    18.376765    27.563847 
    2400    243.02599   -166.96018    263624.46   -25655.477    1966.7849   -27622.262   -216.02356    50.860503    78.603529    18.378039    27.566846 
    2600    239.00505   -277.98243    263624.46   -25678.292    1934.2438   -27612.536   -714.26223    51.876876     78.60362    18.380333    27.566092 
    2800    241.96667   -212.00559    263624.46   -25590.157    1958.2119   -27548.369   -412.46998    53.447494    78.603345    18.381772    27.571148 
    3000    244.86724   -238.58683    263624.46   -25569.732    1981.6859   -27551.418   -552.02231    54.989069     78.60415    18.384386    27.585825 
    3200     243.1271   -163.43117    263624.46   -25670.405    1967.6031   -27638.009   -241.40132    56.055748     78.60613    18.386035    27.572434 
    3400    237.23418   -193.92213    263624.46   -25669.637    1919.9124   -27589.549   -327.29191    58.094727    78.606386    18.383884    27.562718 
    3600    231.73861   -238.09039    263624.46   -25622.424    1875.4372   -27497.861   -570.78713    60.080128    78.607963    18.383771    27.563932 
    3800    245.42037    -196.4138    263624.46   -25587.803    1986.1624   -27573.965   -366.64782    62.211765    78.609213    18.386572      27.5737 
    4000    236.79858   -353.70232    263624.46   -25663.574    1916.3871   -27579.961   -1048.5145     64.04685    78.610716    18.386959    27.559063 
    4200    240.39628   -275.17437    263624.46   -25605.518    1945.5029   -27551.021   -733.67392    66.076489    78.611882    18.387462    27.537785 
    4400    235.36567   -190.90134    263624.46   -25647.781    1904.7906   -27552.572   -297.43827    68.056867    78.612469    18.387295    27.512682 
    4600    234.73148   -345.05563    263624.46   -25757.121    1899.6582   -27656.779   -1031.8894    70.375067     78.61193    18.387234    27.500217 
    4800    243.97896   -291.01428    263624.46   -25643.824    1974.4972   -27618.322   -791.52689    72.351273    78.611173    18.390626    27.465569 
    5000    238.36186   -233.31682    263624.46   -25694.937    1929.0386   -27623.976   -499.94553    73.541679    78.610255    18.393716    27.455758 
    5200    242.69489   -447.99782    263624.46   -25686.008    1964.1053   -27650.113   -1457.2183    76.065802    78.608639    18.394297    27.460668 
    5400    237.52821   -292.62743    263624.46   -25720.639    1922.2919   -27642.931   -782.04724    78.003951    78.607211    18.394534    27.440838 
    5600    236.97895   -225.95175    263624.46   -25744.996    1917.8468   -27662.843   -478.96207    80.520244    78.606229    18.391657     27.43852 
    5800    244.25539   -320.82307    263624.46   -25698.683    1976.7343   -27675.418   -921.50017     81.61258    78.605655    18.391243    27.453848 
    6000     239.9032   -181.77862    263624.46   -25757.194    1941.5124   -27698.707   -286.11079    82.195951    78.606452    18.390101    27.454119 
    6200    239.91335   -339.18552    263624.46   -25727.312    1941.5946   -27668.907   -970.61451    83.820086    78.606957     18.38777     27.42953 
    6400    236.33158   -386.79639    263624.46   -25707.254    1912.6076   -27619.861   -1213.2335    84.926131    78.607456    18.385663    27.435738 
    6600    236.15776    -260.3296    263624.46   -25756.711     1911.201   -27667.912   -631.33125    86.825394    78.608469    18.382509    27.437615 
    6800    241.91966   -289.30468    263624.46   -25740.487    1957.8314   -27698.318   -765.93513    88.199433    78.607233    18.381465    27.453097 
    7000    242.16724   -298.00516    263624.46   -25711.456    1959.8351   -27671.292   -816.38327    89.854221    78.606314    18.381273    27.467792 
    7200    240.28892    -199.2978    263624.46   -25784.204    1944.6341   -27728.838   -364.48474    90.245195    78.606021    18.383691    27.453573 
    7400    236.35239   -298.89126    263624.46   -25722.896    1912.7761   -27635.672   -862.68875    91.231001    78.604189    18.385574    27.436767 
    7600    249.02092   -361.94664    263624.46   -25645.743    2015.3012   -27661.044   -1125.1157    91.997922    78.603614    18.386283    27.430143 
    7800       234.32   -334.48507    263624.46   -25790.998    1896.3281   -27687.326   -1024.1305    92.966686    78.604154    18.385476    27.430841 
    8000    236.35675   -239.79128    263624.46   -25654.171    1912.8114   -27566.982    -587.9441    93.969482    78.605111    18.384294     27.43895 
    8200    241.01503   -284.51627    263624.46   -25645.948    1950.5104   -27596.459   -786.48966    96.352094    78.606575     18.38571    27.445762 
    8400    243.96166   -339.66411    263624.46   -25603.346    1974.3571   -27577.703   -1027.4087    98.506869    78.606403    18.386491     27.43868 
    8600     239.6269   -233.03482    263624.46   -25676.615    1939.2764   -27615.891   -525.84999     99.35485    78.605473    18.383793    27.435169 
    8800    236.30679   -246.80147    263624.46   -25712.815    1912.4071   -27625.222   -574.05993    100.21999    78.605642    18.382071    27.408144 
    9000    241.56518   -326.11983    263624.46   -25701.479    1954.9627   -27656.442   -937.55841    101.89138    78.604673    18.380998    27.417717 
    9200    240.77405   -271.99138    263624.46   -25658.413    1948.5602   -27606.973   -726.27151    104.14002    78.605274    18.380474    27.418309 
    9400    239.63105   -217.90436    263624.46   -25719.102    1939.3099   -27658.412   -451.02507    105.45472     78.60673    18.383219    27.407544 
    9600     235.9641   -180.99295    263624.46    -25721.25    1909.6337   -27630.884   -334.62844    108.30616    78.606702    18.382436    27.397822 
    9800    242.40903   -119.51085    263624.46   -25620.986    1961.7918   -27582.778   -16.744913    110.91156    78.604188    18.383783    27.402477 
   10000    244.30703   -171.41161    263624.46   -25648.977    1977.1522    -27626.13   -255.43617    112.81068    78.603125    18.384877    27.386179 
   10200    243.43525   -165.70199    263624.46   -25588.975    1970.0969   -27559.072   -260.96909    114.99929    78.601998    18.384875    27.398887 
   10400     237.4647   -375.16108    263624.46   -25644.924    1921.7779   -27566.702   -1185.9444    117.55971    78.602195    18.384227     27.41215 
   10600    243.64851   -204.98735    263624.46    -25716.39    1971.8228   -27688.213   -458.37581    118.99497    78.602486    18.384025    27.402035 
   10800    236.30679    -201.8518    263624.46    -25762.61     1912.407   -27675.017   -413.17965    121.25861    78.603464    18.384528    27.426685 
   11000    235.54349   -154.24189    263624.46   -25731.039    1906.2297   -27637.268    -189.0929    123.02668    78.603279    18.384822    27.425585 
   11200    233.21902    -144.7295    263624.46   -25764.275     1887.418   -27651.693   -166.50908    123.97083    78.603306    18.385546    27.437504 
   11400    244.18297   -278.77627    263624.46   -25746.999    1976.1482   -27723.147     -799.712    125.44414    78.603553    18.385664    27.438702 
   11600    244.20663   -353.73962    263624.46   -25642.555    1976.3396   -27618.894   -1059.6665     125.6964    78.604516    18.386897    27.428704 
   11800    234.54875   -168.45493    263624.46   -25639.447    1898.1794   -27537.626   -268.36037    127.37883    78.605513    18.389141    27.430468 
   12000    242.78241   -251.80159    263624.46   -25609.357    1964.8136    -27574.17   -667.26273    127.81005    78.605927    18.387811    27.456069 
   12200     241.5662   -42.996417    263624.46   -25638.767     1954.971   -27593.738    339.16523    129.65847    78.605909    18.386315    27.453288 
   12400    240.78465   -246.90899    263624.46   -25640.687    1948.6459   -27589.332   -609.24168    131.12331    78.607885     18.38616    27.448418 
   12600    241.78048   -265.66356    263624.46   -25577.419    1956.7051   -27534.124   -721.17111    132.13727    78.605509    18.386578    27.447656 
   12800    243.91658   -312.29063    263624.46   -25610.312    1973.9923   -27584.305   -874.73328    133.20279    78.604789    18.388306    27.442238 
   13000    238.97405   -440.77318    263624.46   -25647.894    1933.9929   -27581.886   -1480.6206    136.37456    78.604669    18.388458    27.430547 
   13200    236.94602   -210.09895    263624.46   -25697.773    1917.5803   -27615.353   -480.88318    138.65143    78.604818    18.387548    27.456212 
   13400    238.58827   -415.79701    263624.46    -25749.03    1930.8708   -27679.901   -1350.7846    141.06887    78.603755    18.388022    27.470942 
   13600    231.36345   -241.62754    263624.46   -25734.124    1872.4011   -27606.525   -591.58878    142.98081    78.603515    18.388931    27.470402 
   13800    236.91266   -366.16525    263624.46   -25643.887    1917.3103   -27561.197   -1172.5636    145.31605    78.603061    18.389409    27.464238 
   14000    243.72909   -224.96431    263624.46   -25578.758    1972.4749   -27551.233   -532.67052    147.51184    78.602668    18.385207    27.446595 
   14200    240.51385    -342.9616    263624.46   -25678.302    1946.4544   -27624.757   -1102.3907    149.19967    78.602563    18.382393    27.456049 
   14400    240.03306   -247.83852    263624.46   -25705.526    1942.5634    -27648.09   -607.86505    150.06255    78.600594    18.382868    27.457516 
   14600    239.68488     -316.607    263624.46   -25680.149    1939.7456   -27619.894   -947.47774    152.31843    78.600825     18.38151    27.469485 
   14800    238.26491   -237.62508    263624.46   -25659.407    1928.2539    -27587.66    -584.4899    153.27184    78.600558    18.380997    27.463977 
   15000    239.16057   -260.99704    263624.46    -25692.26    1935.5024   -27627.762   -662.66105    154.98183    78.601953     18.38167    27.465229 
   15200    243.84292   -403.42806    263624.46   -25689.845    1973.3962   -27663.241   -1313.2077    157.79074    78.602015    18.383333    27.481102 
   15400    242.92543   -348.16062    263624.46   -25772.188     1965.971   -27738.159   -1092.8513    160.17439    78.601801    18.384074    27.477288 
   15600    243.55425   -190.90185    263624.46   -25620.401      1971.06   -27591.461   -356.40453    163.18141    78.602971     18.38185    27.466673 
   15800    237.85089   -442.02718    263624.46   -25637.639    1924.9033   -27562.542   -1478.5862    164.10408    78.603668    18.379937    27.450176 
   16000    236.02953   -162.22438    263624.46   -25683.293    1910.1632   -27593.456   -285.01658    163.97073     78.60345    18.379363    27.446991 
   16200     242.5987   -381.61995    263624.46     -25669.9    1963.3268   -27633.227   -1212.9612    164.60541    78.602952    18.378855    27.431334 
   16400    234.86599   -291.44112    263624.46   -25698.682    1900.7468   -27599.429   -824.39946    162.98474    78.603079    18.376629     27.42167 
   16600     240.1332   -240.08167    263624.46   -25594.166    1943.3738   -27537.539   -615.04956     164.3504    78.602854    18.376653    27.437704 
   16800    243.25894   -147.67499    263624.46   -25631.974    1968.6701   -27600.644   -144.01259    166.62654    78.604256    18.375006    27.459484 
   17000     236.7902     -305.319    263624.46   -25678.926    1916.3193   -27595.245    -904.5976    167.44026    78.602917    18.375684    27.443071 
   17200    238.18867   -372.06967    263624.46   -25698.674    1927.6369   -27626.311     -1185.14    167.77357    78.604609    18.376023    27.453664 
   17400    235.46279   -325.89127    263624.46    -25830.65    1905.5767   -27736.226   -1016.8049    168.02827    78.604962    18.378125    27.438409 
   17600     236.4409   -294.33374    263624.46   -25743.791    1913.4924   -27657.284   -835.88162     169.3501    78.604693    18.378276    27.437909 
   17800    234.25673   -77.612821    263624.46   -25748.373    1895.8161   -27644.189    189.96546    170.86706    78.603423    18.376405    27.460938 
   18000    241.62573   -187.86099    263624.46    -25692.11    1955.4527   -27647.563   -375.84891    172.11749    78.602594    18.376259    27.469547 
   18200    239.07983   -383.50301    263624.46   -25766.955     1934.849   -27701.804   -1225.6243     172.1807    78.601667    18.376759    27.480238 
   18400    236.56699   -326.91471    263624.46   -25745.955    1914.5128   -27660.467   -981.00545    172.82386    78.600012    18.377028    27.500327 
   18600    243.57461   -244.26179    263624.46   -25722.354    1971.2248   -27693.579    -589.5683    173.47851     78.60077     18.37752    27.505896 
   18800    234.45513   -219.52211    263624.46   -25766.994    1897.4218   -27664.415   -492.80917    175.64121    78.600155    18.378829    27.511249 
   19000    240.34432   -316.95381    263624.46   -25698.119    1945.0824   -27643.201   -967.45473     177.8623    78.598451    18.380153    27.508652 
   19200    236.81616    -296.0161    263624.46   -25739.084    1916.5293   -27655.614   -831.38689    178.16527    78.599102    18.381696    27.497555 
   19400    239.28724   -207.60656    263624.46   -25683.012    1936.5276   -27619.539   -434.89617    179.91503    78.602048    18.380167    27.487147 
   19600    242.49536   -72.494953    263624.46   -25712.026    1962.4905   -27674.517    214.36479     180.5518    78.601874    18.382431    27.492448 
   19800    242.96021   -324.39283    263624.46   -25695.681    1966.2525   -27661.934   -956.78899    182.54147    78.601713    18.382357    27.483277 
   20000    236.97238   -385.79971    263624.46   -25680.401    1917.7936   -27598.195   -1202.7603    184.22373    78.603439    18.386261    27.473382 
   20200    237.14659   -253.01135    263624.46   -25750.984    1919.2035   -27670.188   -628.59034    185.39586    78.604688    18.387172    27.464789 
   20400    242.41275    -379.7187    263624.46   -25682.308     1961.822    -27644.13   -1177.3037    188.58354    78.605092    18.389126    27.463042 
   20600    237.01577   -130.83448    263624.46   -25752.648    1918.1447   -27670.793   -76.810197    189.82895    78.605078     18.38988    27.480242 
   20800    239.68667   -260.42536    263624.46   -25660.088    1939.7601   -27599.848   -675.45815    190.60289    78.605683    18.388516    27.501588 
   21000     239.8845   -258.63052    263624.46   -25669.137    1941.3611   -27610.498   -683.63323    192.87338    78.605383    18.387686    27.507992 
   21200    241.91402   -240.76867    263624.46    -25662.17    1957.7858   -27619.956   -572.95297    195.49097    78.606958      18.3868    27.509467 
   21400    238.14444   -347.95848    263624.46   -25667.922     1927.279   -27595.201   -1052.4525    197.92472    78.608495     18.38654      27.5044 
   21600    247.41199   -187.72893    263624.46    -25575.58    2002.2803    -27577.86   -328.14014    199.06351    78.608401    18.384962    27.494292 
   21800    237.52413   -272.15395    263624.46   -25667.933    1922.2589   -27590.192   -657.18279    199.85156    78.609211    18.382689    27.465365 
   22000    236.78871   -245.26944    263624.46    -25735.36    1916.3072   -27651.667   -574.36244    200.95921    78.610909    18.380526    27.464674 
   22200    235.46495   -343.98281    263624.46   -25761.104    1905.5942   -27666.698   -1045.3513    201.53128    78.609202    18.379114    27.449236 
   22400    242.36803   -237.48515    263624.46   -25615.103    1961.4601   -27576.563   -583.00659     201.2933    78.609298    18.377735    27.441229 
   22600    240.53038   -372.79186    263624.46   -25652.304    1946.5881   -27598.892   -1214.2623    202.56073    78.609588    18.377648     27.45116 
   22800    241.39014    -195.4939    263624.46     -25628.8    1953.5461   -27582.346   -413.16627    204.50038    78.610659    18.377788    27.444416 
   23000    239.31178   -318.29507    263624.46   -25721.237    1936.7261   -27657.963   -930.12279     205.4248    78.610666    18.380296    27.470651 
   23200    242.61999   -157.03413    263624.46   -25652.767    1963.4992   -27616.266   -224.43222    206.68724    78.610719    18.380956    27.474436 
   23400    239.07557   -532.66015    263624.46   -25644.146    1934.8145   -27578.961   -1885.3715    208.76851    78.611267    18.380712    27.460805 
   23600    247.39075    -191.6049    263624.46   -25574.606    2002.1084   -27576.714   -362.95575    210.10292    78.611473    18.381716    27.483026 
   23800    243.27344   -314.82794    263624.46   -25617.691    1968.7874   -27586.478   -885.83152     211.8285    78.612509    18.382042    27.478263 
   24000     239.9531   -151.36939    263624.46   -25711.364    1941.9163    -27653.28   -143.31143    214.55264    78.612232    18.381324    27.482981 
   24200    243.07952   -374.40888    263624.46   -25720.344    1967.2181   -27687.562   -1199.8478    217.49611     78.61469    18.379558    27.490998 
   24400    237.18147   -136.61543    263624.46   -25720.918    1919.4858   -27640.404   -122.20255    219.16401    78.614923     18.37823    27.489651 
   24600    238.25746   -148.31714    263624.46   -25773.998    1928.1936   -27702.192    -164.8501    219.84223    78.615424    18.377425     27.48309 
   24800    241.56662   -218.11621    263624.46   -25760.515    1954.9743   -27715.489    -500.3598     222.3174    78.614895    18.377453    27.494765 
   25000    234.71155   -283.83033    263624.46   -25722.195    1899.4969   -27621.692    -791.2805    222.13193      78.6164     18.37678    27.496454 
   25200    234.35166   -158.48712    263624.46   -25851.688    1896.5844   -27748.272   -201.02582    223.84403    78.615516    18.375724    27.505747 
   25400    238.66456   -287.79234    263624.46   -25749.713    1931.4882   -27681.201   -785.23522    224.23083     78.61571    18.374942    27.521997 
   25600    240.22546   -329.85336    263624.46   -25600.355    1944.1204   -27544.475   -989.38498    226.75199    78.614007    18.375795    27.533146 
   25800    249.35733    -205.9133    263624.46   -25580.022    2018.0237   -27598.046   -434.58188    228.33791    78.613555    18.374187    27.519397 
   26000     247.1571   -352.97039    263624.46   -25616.583    2000.2175     -27616.8   -1069.1083     229.9428    78.611611    18.372727    27.528342 
   26200    241.49257   -89.940868    263624.46   -25687.025    1954.3751     -27641.4    159.48245    230.37532    78.613331    18.372355    27.535626 
   26400    241.13915   -299.10685    263624.46     -25749.9    1951.5149   -27701.414   -818.43792    232.40867    78.612981    18.372781    27.547739 
   26600    242.18015    -358.8589    263624.46    -25661.35    1959.9395   -27621.289   -1091.1432    232.99054    78.613742    18.373319    27.537067 
   26800    241.47015   -116.88611    263624.46   -25682.959    1954.1936   -27637.153   -49.375559    233.82062    78.614235    18.373819    27.527887 
   27000    243.95952   -363.49742    263624.46   -25659.584    1974.3398   -27633.924   -1113.9064     235.6964    78.611829    18.371651    27.499139 
   27200    237.07414    -266.4868    263624.46   -25675.469    1918.6171   -27594.086   -692.63279    237.31241    78.613465      18.3704    27.495168 
   27400    241.14396   -268.61816    263624.46   -25610.928    1951.5538   -27562.482   -696.57689    237.32705    78.612881    18.370091    27.495917 
   27600    240.94169   -241.33049    263624.46   -25777.067    1949.9169   -27726.984    -596.9516    238.07167    78.614339    18.369475     27.49178 
   27800    246.92856    -205.1081    263624.46   -25641.155     1998.368   -27639.523   -419.28226    238.92168    78.614966      18.3681     27.50043 
   28000    236.73196   -327.05288    263624.46   -25810.628    1915.8479   -27726.476   -959.98985    238.82529    78.616373    18.368103    27.518802 
   28200    236.71937   -265.65058    263624.46   -25732.874    1915.7461    -27648.62   -701.35559    239.28716    78.616946    18.366449    27.527016 
   28400    238.35313   -329.91078    263624.46   -25749.013    1928.9679   -27677.981   -991.11159    239.63443    78.617513    18.366199    27.532332 
   28600     230.6572   -408.14468    263624.46   -25770.611    1866.6855   -27637.297   -1337.8911    241.22439    78.618309    18.363926    27.546141 
   28800    241.72582   -145.25007    263624.46   -25775.907    1956.2627    -27732.17   -145.20929    242.57107    78.622561    18.362259    27.565882 
   29000    238.87029   -338.76028    263624.46   -25701.607    1933.1532    -27634.76   -977.24806    244.13655    78.623447    18.360748    27.585416 
   29200    241.71669   -258.52289    263624.46   -25655.311    1956.1888     -27611.5   -685.00357    245.84078    78.624411    18.360298    27.581173 
   29400     241.3487   -210.19794    263624.46   -25662.205    1953.2107   -27615.416   -439.35116    246.95179     78.62438    18.358257    27.577241 
   29600    239.89759   -190.00408    263624.46   -25645.764    1941.4671   -27587.231   -344.02505    249.06596    78.625267    18.356995    27.566975 
   29800    237.51872   -290.75618    263624.46   -25756.236    1922.2151   -27678.451   -804.45168    249.79909    78.624194     18.35856    27.549717 
   30000    234.13427   -233.61381    263624.46   -25797.654    1894.8251    -27692.48   -495.53777    252.20128    78.622791    18.357481    27.548186 
   30200    232.57492   -254.43744    263624.46   -25765.574    1882.2054    -27647.78   -649.69846    252.75371    78.623294    18.357034    27.538738 
   30400    238.98872   -1.0980414    263624.46   -25685.188    1934.1116   -27619.299    515.01964    253.51776    78.623041    18.356315    27.540193 
   30600    238.22203   -178.62825    263624.46   -25725.401    1927.9069   -27653.308   -286.58695    256.36313     78.62052    18.356267     27.53051 
   30800     237.5507   -211.48591    263624.46   -25728.403    1922.4739   -27650.877   -445.13118    258.19146    78.620929    18.359702    27.526248 
   31000    242.88982   -167.93441    263624.46   -25693.405    1965.6829   -27659.088   -206.60429      259.054    78.621591    18.363081     27.52527 
   31200    242.91869   -326.75927    263624.46   -25713.009    1965.9165   -27678.925   -946.09651    262.40647    78.622208    18.364051    27.515277 
   31400    236.12019   -310.67513    263624.46   -25714.586    1910.8969   -27625.483   -860.17452     263.9143    78.624215    18.364267    27.508523 
   31600    244.03001   -117.84234    263624.46   -25691.717    1974.9103   -27666.627    15.463533    264.17856    78.624781    18.363215    27.523439 
   31800    240.80512   -315.67472    263624.46   -25695.028    1948.8116    -27643.84   -884.39606    263.20805    78.625942    18.362168    27.518807 
   32000    241.13599   -174.47159    263624.46   -25760.554    1951.4893   -27712.043   -301.57696    263.48049    78.626138    18.361336    27.518205 
   32200    234.19148    -282.6611    263624.46   -25903.602     1895.288    -27798.89   -746.23668    265.76443    78.625507    18.361713    27.537477 
   32400    240.10064   -309.19572    263624.46    -25871.51    1943.1103    -27814.62    -859.9145    267.37837    78.625884    18.362447    27.535963 
   32600    240.27429   -233.39716    263624.46   -25765.851    1944.5157   -27710.367   -563.83868    267.61711    78.624811    18.363967    27.528971 
   32800     242.3337   -169.71691    263624.46   -25750.987    1961.1823   -27712.169   -224.64616    269.21794    78.625678    18.366014    27.538543 
   33000    236.76952   -343.02787    263624.46   -25757.517    1916.1519   -27673.669   -992.36341    271.48423    78.624849      18.3646     27.51726 
   33200    231.61129   -259.34681    263624.46   -25772.686    1874.4069   -27647.093    -667.0912    272.17233    78.622735    18.365906    27.517799 
   33400    234.65577   -343.49322    263624.46   -25741.755    1899.0455     -27640.8    -1035.323    276.37065    78.622604    18.365521    27.540753 
   33600    235.56347   -114.98573    263624.46   -25760.751    1906.3914   -27667.142    28.386508    276.26613    78.622199    18.364511    27.546809 
   33800    241.11038   -319.34956    263624.46   -25597.485     1951.282   -27548.767   -975.49309    276.89042    78.621526    18.365802    27.554326 
   34000    232.72329   -324.45091    263624.46   -25669.036    1883.4062   -27552.442   -938.70979    276.79434    78.620468    18.365935    27.562914 
   34200    248.52547   -312.65443    263624.46   -25673.966    2011.2916   -27685.257   -930.46382    280.63054    78.623057    18.364043    27.568725 
   34400    236.27689    -327.0625    263624.46   -25672.238    1912.1651   -27584.404   -964.32906    282.09219    78.625322    18.363282    27.548796 
   34600    239.60076   -96.497569    263624.46   -25576.524    1939.0648   -27515.588    71.607783     282.8189     78.62559    18.362152    27.536593 
   34800    236.48792   -241.84626    263624.46    -25673.33    1913.8729   -27587.203   -584.74625    284.65505    78.623211    18.361044     27.52841 
   35000    239.16407   -270.36777    263624.46    -25722.04    1935.5308    -27657.57   -677.20931    285.92128    78.622681    18.362701    27.548461 
   35200    235.54461   -178.52354    263624.46   -25650.212    1906.2388   -27556.451   -287.74643    287.80489    78.622769     18.36309    27.562141 
   35400    242.32286   -128.06427    263624.46   -25708.272    1961.0945   -27669.366   -88.470199    288.53593    78.621226    18.364019    27.580445 
   35600     244.0905   -181.79872    263624.46   -25707.117    1975.3998   -27682.516   -333.85519    288.90004     78.62126    18.363599    27.595713 
   35800    243.41498   -409.14454    263624.46   -25546.334    1969.9329   -27516.267   -1319.8558    290.85242    78.620561    18.361893    27.590765 
   36000    246.49954   -250.92849    263624.46   -25700.384     1994.896    -27695.28   -651.92064    291.78663    78.620758    18.361356    27.591646 
   36200    242.34545   -313.61923    263624.46   -25699.182    1961.2773   -27660.459   -893.28423    291.54795    78.622203     18.36186    27.596879 
   36400    232.79356   -223.37512    263624.46   -25713.102    1883.9749   -27597.076   -508.28656    292.42678    78.622423    18.359187    27.590687 
   36600    237.67632   -288.31993    263624.46    -25668.95    1923.4905   -27592.441   -756.11739    294.05981    78.623057    18.358803     27.58555 
   36800    237.85829   -181.15799    263624.46   -25783.314    1924.9632   -27708.277   -280.44481    296.14879    78.623086    18.356677    27.595376 
   37000    241.51574   -297.10617    263624.46   -25751.929    1954.5626   -27706.492   -789.60373    299.14803    78.623462    18.356343    27.586418 
   37200    235.29278   -295.25761    263624.46   -25836.746    1904.2007   -27740.947   -805.18038    301.98463    78.623681    18.356298    27.585286 
   37400    230.81614    -279.5155    263624.46   -25827.326    1867.9718   -27695.298     -714.444    303.79912    78.622955    18.355469     27.57609 
   37600    233.00797   -220.94817    263624.46   -25826.277      1885.71   -27711.987    -454.6339    306.15389    78.624223    18.353874    27.571298 
   37800    235.34386   -250.34661    263624.46   -25888.647    1904.6142   -27793.261   -558.44096    306.44936    78.622266    18.353458    27.559731 
   38000    237.57978   -212.03479    263624.46   -25756.793    1922.7092   -27679.502   -448.23602    307.96362    78.620614    18.353406    27.551985 
   38200    237.93032   -160.73184    263624.46   -25732.558    1925.5461   -27658.104    -195.6289    310.59805    78.620994    18.351774    27.560759 
   38400    240.20512   -336.42913    263624.46   -25690.703    1943.9558   -27634.659   -967.51124    312.01625    78.619896    18.350236    27.564927 
   38600    236.91234   -150.86104    263624.46   -25719.982    1917.3077    -27637.29   -183.45106    312.59978    78.619906    18.348279    27.587327 
   38800     232.8788   -404.99439    263624.46   -25812.902    1884.6647   -27697.567   -1266.0504    314.34552    78.620193    18.346744    27.583435 
   39000     244.6785   -257.76882    263624.46   -25742.378    1980.1585   -27722.536   -663.02679    314.15849    78.622149    18.346376    27.581938 
   39200     237.4077   -343.17018    263624.46   -25857.482    1921.3166   -27778.798   -1004.2892     314.5408    78.621843    18.346098    27.576513 
   39400    242.86283   -173.96344    263624.46   -25741.029    1965.4645   -27706.493   -272.60657    316.64845    78.621516     18.34448    27.595833 
   39600    237.26262   -271.37652    263624.46   -25719.377    1920.1425    -27639.52   -672.17776    317.33257    78.620658    18.341983    27.596072 
   39800    234.34808   -294.11444    263624.46   -25795.474    1896.5554   -27692.029   -843.39139    318.62674    78.619971    18.339965    27.602017 
   40000    235.61157   -274.11708    263624.46   -25792.215    1906.7807   -27698.996   -724.71287    319.33806    78.620004    18.336842    27.603012 
   40200    240.91211   -324.00309    263624.46   -25745.636    1949.6774   -27695.314   -934.06746    320.40088    78.619529    18.334155     27.60973 
   40400     234.0133   -206.65398    263624.46   -25810.185     1893.846   -27704.031   -390.07373     320.9346    78.618096    18.334149    27.579949 
   40600     239.6637   -278.75753    263624.46   -25729.871    1939.5742   -27669.445   -733.17447    323.02124    78.616484    18.334217    27.589823 
   40800    237.59134    -254.4615    263624.46   -25748.114    1922.8028   -27670.916   -607.84286    324.35983    78.617049    18.335298    27.603157 
   41000    236.00234   -272.91705    263624.46   -25776.083    1909.9432   -27686.026   -696.84106    325.50248    78.616625    18.334865    27.614858 
   41200    241.81517   -255.86586    263624.46   -25661.558    1956.9858   -27618.544   -625.88927    325.89308    78.616618     18.33602    27.611762 
   41400    240.02751   -311.17629    263624.46   -25702.548    1942.5185   -27645.066   -887.98163    327.46848    78.615945    18.335883    27.619171 
   41600    237.94218   -180.37706    263624.46   -25701.908    1925.6421    -27627.55   -272.46167    328.42384    78.616528    18.334291    27.621444 
   41800    239.89827   -308.34954    263624.46   -25721.267    1941.4726   -27662.739   -879.26535    330.14857      78.6168    18.334032    27.618504 
   42000     236.1699   -261.47895    263624.46   -25766.345    1911.2992   -27677.644   -598.78299    330.93305    78.615735    18.335329     27.62196 
   42200    239.49724   -419.57648    263624.46   -25758.635     1938.227   -27696.862   -1352.9472    331.13519    78.616087    18.333455    27.627205 
   42400    234.19047   -318.12787    263624.46   -25711.963    1895.2799   -27607.242    -913.4727    332.04195    78.615392    18.335123    27.649012 
   42600    242.66808   -460.70882    263624.46   -25709.544    1963.8883   -27673.432   -1534.7962    332.50702     78.61762    18.334413    27.645296 
   42800    240.09846   -175.64134    263624.46   -25713.673    1943.0927   -27656.766   -279.25061    331.04801    78.616149    18.335736    27.647317 
   43000    239.09053   -321.46893    263624.46   -25697.765    1934.9356   -27632.701   -941.90787    333.95726    78.614845    18.337784    27.658214 
   43200    242.31874   -299.64246    263624.46    -25679.36    1961.0612   -27640.421   -817.43409    336.68118     78.61556    18.339185    27.655068 
   43400    239.55463   -369.93471    263624.46   -25708.017    1938.6915   -27646.709   -1131.4333    337.97068    78.612937    18.335626    27.655435 
   43600    236.58614   -260.20124    263624.46   -25708.977    1914.6678   -27623.644   -669.78974     340.2885    78.613324    18.335269    27.650476 
   43800    242.82824   -217.33762    263624.46   -25738.164    1965.1845   -27703.348   -442.19108    342.99668    78.613073     18.33604    27.660464 
   44000    230.17505   -266.66211    263624.46   -25795.516    1862.7835   -27658.299    -637.3183    345.02516    78.612393    18.335891    27.637743 
   44200    243.10645   -189.75001    263624.46   -25722.844     1967.436    -27690.28   -383.48416    346.79449    78.612067    18.334401     27.61497 
   44400    239.26549    -272.3432    263624.46   -25766.219    1936.3515    -27702.57   -713.67591    346.95007    78.611761    18.332486    27.615217 
   44600     237.4714   -306.83853    263624.46   -25782.906    1921.8321   -27704.738   -847.54025    349.89065    78.612506    18.332511     27.62751 
   44800    241.21723   -122.28527    263624.46   -25747.165    1952.1468   -27699.312    8.8117732    351.40527    78.613878    18.332322    27.665834 
   45000    240.43129   -306.08335    263624.46   -25713.813    1945.7862     -27659.6   -817.91896    352.99876    78.615494    18.332081    27.654606 
   45200    242.65824   -422.97748    263624.46       -25710    1963.8087   -27673.809   -1391.9086    355.59271    78.615648    18.332263    27.643605 
   45400    235.48689   -221.54756    263624.46     -25756.7    1905.7717   -27662.472   -485.46842    358.60517    78.615152    18.334091    27.653026 
   45600    239.99589   -245.47063    263624.46   -25688.831    1942.2626   -27631.094   -565.68676    358.81666    78.616763    18.333374    27.654405 
   45800    239.35075    -308.7321    263624.46   -25707.773    1937.0415   -27644.815    -862.8672    361.38403    78.615994    18.333997    27.642869 
   46000    241.00314   -247.64818    263624.46   -25691.194    1950.4142   -27641.608   -577.41484    362.87668    78.615485    18.333977    27.623579 
   46200     238.0332   -463.14751    263624.46   -25689.253    1926.3787   -27615.632   -1567.4484    365.71132     78.61406    18.334661    27.607603 
   46400    239.73394   -315.38303    263624.46    -25755.98    1940.1427   -27696.123   -918.09577    366.83583    78.615188    18.334468     27.58822 
   46600    236.68846   -218.59195    263624.46   -25765.291    1915.4959   -27680.787   -478.64898    367.84527     78.61533     18.33548    27.596568 
   46800     240.7849    -229.3543    263624.46    -25669.89    1948.6479   -27618.538   -510.06262    368.16417    78.616355    18.336127    27.584158 
   47000    231.41711    -229.8213    263624.46   -25726.515    1872.8354    -27599.35   -489.13477    370.32994    78.616762     18.33704    27.604121 
   47200    237.61367   -291.15284    263624.46    -25750.47    1922.9835   -27673.454   -753.61122    371.59848    78.617496    18.335787    27.592772 
   47400    240.44927   -332.63424    263624.46   -25725.468    1945.9317     -27671.4   -1000.1511    374.59299    78.616336    18.336179    27.596937 
   47600    243.47093   -34.201439    263624.46   -25709.177    1970.3857   -27679.563    365.02666    374.12793    78.616017    18.335608    27.586921 
   47800    239.77721   -357.31321    263624.46   -25700.129    1940.4929   -27640.622   -1070.5261     376.4991    78.614365    18.335885    27.563373 
   48000    238.86472   -406.79071    263624.46   -25698.229    1933.1081   -27631.337   -1304.4432    377.87282    78.614763    18.337325     27.56513 
   48200    238.06983    -257.7199    263624.46   -25730.716    1926.6751   -27657.391   -649.04517    379.06656    78.615334    18.340869    27.574918 
   48400    236.74785   -247.52748    263624.46   -25747.758    1915.9765   -27663.734   -563.47514    381.06571    78.615589     18.34318    27.573746 
   48600    239.43389   -172.64302    263624.46   -25793.655    1937.7144   -27731.369   -277.11802    381.10131     78.61565    18.345022    27.569068 
   48800    240.42105    -258.9542    263624.46    -25742.79    1945.7034   -27688.493   -622.63868    381.35247    78.615697    18.345276    27.541055 
   49000    239.18624   -177.68164    263624.46   -25736.518    1935.7102   -27672.229   -219.03209    382.50434    78.616855    18.346347    27.524185 
   49200    242.43686   -230.52179    263624.46   -25705.531    1962.0171   -27667.548   -537.64583    384.25817    78.616415    18.345339    27.501901 
   49400    238.58519   -355.12966    263624.46    -25809.05    1930.8459   -27739.896    -1070.531    387.68381    78.617098     18.34553    27.491357 
   49600    240.43699   -360.91007    263624.46   -25787.673    1945.8323   -27733.506   -1113.0347    390.26916    78.617397    18.346256    27.492262 
   49800     232.2928   -462.87303    263624.46   -25784.071    1879.9222   -27663.993   -1564.7793    391.89219    78.618627    18.348229    27.492714 
   50000     238.5651   -315.89913    263624.46   -25770.723    1930.6833   -27701.406   -893.59222    393.32753    78.618023     18.34817    27.502457 
   50200    236.64744   -213.67889    263624.46   -25701.702    1915.1639   -27616.866    -437.1186    395.78112    78.618644    18.348559    27.499092 
   50400     235.6282   -183.12543    263624.46   -25700.685    1906.9153     -27607.6   -306.50947     396.0055    78.618922    18.350303    27.495769 
   50600    244.11993   -342.82977    263624.46   -25585.209     1975.638   -27560.847   -1052.9537    396.41494    78.619275    18.350658    27.472741 
   50800    238.38378   -187.63596    263624.46   -25744.133    1929.2159   -27673.349   -324.77959    397.87678    78.618243    18.352219    27.465744 
   51000    235.53709    -225.2339    263624.46     -25752.5    1906.1779   -27658.678   -472.71572    398.10361    78.617034     18.35305    27.453613 
   51200    240.76194   -539.87771    263624.46   -25795.888    1948.4621    -27744.35   -1894.3031    401.30752    78.616859    18.353528     27.47394 
   51400    236.91136   -270.41637    263624.46   -25817.056    1917.2998   -27734.356   -683.59508    399.78014    78.618946    18.354358    27.446929 
   51600    239.52737   -415.53485    263624.46    -25758.43    1938.4709   -27696.901   -1337.2551    402.12041    78.619625    18.356115    27.445815 
   51800    240.19471   -253.53699    263624.46    -25740.46    1943.8716   -27684.332   -619.93912    400.06561    78.620206    18.356357    27.448756 
   52000     238.7094   -188.99707    263624.46   -25776.387    1931.8511   -27708.238   -358.83989    401.49827    78.620951    18.355672     27.47659 
   52200    235.18042   -402.63524    263624.46   -25854.962    1903.2914   -27758.253   -1215.8969    402.89895    78.622781    18.356046    27.483383 
   52400    231.44463   -319.29384    263624.46   -25890.142    1873.0581     -27763.2   -887.03505    402.62735    78.623271     18.35635    27.474314 
   52600    241.12479   -295.99244    263624.46   -25730.208    1951.3986   -27681.607   -804.18502    403.21971    78.622664    18.356559    27.485325 
   52800    242.92694    -386.1653    263624.46   -25656.414    1965.9833   -27622.397    -1182.165    403.72167    78.623651    18.357832    27.490207 
   53000    240.87527   -243.58958    263624.46   -25612.744    1949.3793   -27562.123   -587.03722    403.80347    78.622815    18.358149    27.505854 
   53200    237.42343   -230.52356    263624.46   -25724.675    1921.4439   -27646.119   -511.82975    405.18351    78.621727     18.35887    27.490789 
   53400    240.73485   -369.89401    263624.46   -25635.814    1948.2429   -27584.057   -1118.6901    405.66684    78.620912    18.358019    27.488935 
   53600    239.77344   -289.97789    263624.46   -25712.397    1940.4623   -27652.859   -787.40308     407.1373    78.621739    18.357625    27.506616 
   53800    238.82152    -112.8879    263624.46   -25685.406    1932.7585   -27618.164    11.441521     409.7872    78.622997     18.35655    27.484869 
   54000    243.89749   -249.51541    263624.46   -25742.456    1973.8378   -27716.294   -589.55207    412.07953    78.625192    18.353731    27.489063 
   54200    241.80818   -149.59437    263624.46   -25640.151    1956.9293   -27597.081   -156.30515    414.17944    78.625232    18.353145    27.505961 
   54400    236.13412   -260.64688    263624.46   -25655.666    1911.0096   -27566.676   -600.60157    415.88128    78.624246    18.353347    27.507391 
   54600    238.72061   -165.64658    263624.46   -25658.607    1931.9418   -27590.549    -246.1499    417.69905    78.624348    18.352981    27.528806 
   54800    240.79214   -265.80395    263624.46   -25673.234    1948.7065    -27621.94   -671.01417     419.5457    78.624472    18.354003    27.530833 
   55000    248.18112   -369.82219    263624.46   -25652.433    2008.5048   -27660.938   -1107.1283    422.10207    78.625122    18.354046    27.540412 
   55200    234.61675   -263.08126    263624.46   -25811.277    1898.7297   -27710.007   -637.59663    423.14521    78.626114    18.353672     27.54794 
   55400    236.66327   -222.73128    263624.46   -25754.838     1915.292    -27670.13   -470.02431    425.78672    78.626091    18.353221    27.559845 
   55600    243.63487   -153.53315    263624.46   -25719.881    1971.7125   -27691.593   -141.91751    429.03512    78.625406    18.351795    27.570694 
   55800    244.27336   -219.63747    263624.46   -25670.224    1976.8797   -27647.104   -449.12747    431.72181    78.624345    18.349898    27.577983 
   56000    243.46564   -312.85838    263624.46   -25656.584    1970.3429   -27626.927   -902.96681     432.4676    78.622363    18.348776    27.555154 
   56200    243.05793   -294.19362    263624.46   -25680.876    1967.0433   -27647.919   -803.73515     433.2606     78.62137    18.349852    27.541063 
   56400    240.39582   -298.74244    263624.46    -25802.09    1945.4991   -27747.589   -839.25519    434.53593    78.619469    18.350332    27.547074 
   56600    231.48078    -232.7656    263624.46   -25824.364    1873.3506   -27697.715   -547.45441    432.14609     78.61957    18.350434    27.557392 
   56800    239.64196   -231.85429    263624.46   -25707.978    1939.3983   -27647.376   -501.29034    435.23923    78.621714    18.350289    27.540977 
   57000    233.86708   -396.76321    263624.46   -25774.678    1892.6627   -27667.341   -1244.0517    437.52551    78.621332    18.346585    27.534846 
   57200    238.12693    -278.9768    263624.46   -25688.248    1927.1373   -27615.385   -708.78873    440.16736    78.620715    18.344216    27.524194 
   57400     234.3659   -279.84263    263624.46   -25715.589    1896.6996   -27612.289   -760.09297    442.16708    78.620593    18.341599     27.51621 
   57600    240.21468   -333.56783    263624.46   -25794.855    1944.0332   -27738.888   -984.82694    445.64938    78.622308    18.341828    27.498146 
   57800    240.89124   -400.17362    263624.46   -25659.809    1949.5086   -27609.317   -1265.3211    450.07045    78.622722    18.341699    27.489915 
   58000    242.32249   -338.64427    263624.46   -25718.541    1961.0915   -27679.632    -986.7321    451.44364    78.621879    18.340977    27.492388 
   58200    241.78565   -202.31536    263624.46    -25665.85    1956.7469   -27622.597   -380.82699    453.05036     78.62289    18.338605    27.499244 
   58400    238.32314   -248.92314    263624.46    -25733.85    1928.7252   -27662.576    -649.1862    456.97438    78.623078    18.338562    27.481405 
   58600     241.1776   -225.39383    263624.46   -25771.867     1951.826   -27723.694   -506.11401     457.4388    78.622318    18.340622    27.466564 
   58800    238.48463   -238.43211    263624.46   -25799.536    1930.0321   -27729.568   -539.86056    456.69706    78.621458    18.341889    27.462659 
   59000    242.12936   -169.59995    263624.46       -25689    1959.5285   -27648.528   -256.38875    456.75358    78.621254    18.343273    27.441337 
   59200     243.8098   -217.69394    263624.46    -25718.74    1973.1282   -27691.868    -480.2626    457.27827    78.621404    18.343532    27.441685 
   59400    241.62812   -217.42209    263624.46   -25702.497     1955.472   -27657.969   -468.62167    457.58586    78.621015    18.343999    27.435606 
   59600    243.27002   -261.89319    263624.46   -25739.244    1968.7598   -27708.004   -696.28714    459.54927    78.620461     18.34315    27.444882 
   59800    235.79698    -317.8161    263624.46   -25862.784    1908.2812   -27771.065   -919.37123    460.61129    78.620368    18.344561    27.454261 
   60000    241.51385   -205.65481    263624.46   -25766.719    1954.5473   -27721.266   -420.80865    461.38226    78.622955    18.342142    27.449318 
   60200    238.88472   -311.89998    263624.46   -25777.261      1933.27   -27710.531   -909.19591    463.03776    78.623467    18.339826    27.431253 
   60400    239.88622   -265.86779    263624.46   -25704.847     1941.375   -27646.222   -695.11291    460.36809    78.623593     18.33956    27.417403 
   60600    236.24031   -296.98619    263624.46   -25777.697    1911.8691   -27689.566   -827.78747    458.72358    78.622271    18.338667     27.41925 
   60800     246.3322   -396.45062    263624.46    -25631.98    1993.5417   -27625.522   -1236.0243    462.74096    78.620671    18.338445    27.406123 
   61000    239.44468   -212.74667    263624.46   -25728.554    1937.8016   -27666.355   -453.48176      463.992    78.620223    18.338554    27.404369 
   61200    244.11804   -84.598985    263624.46   -25715.879    1975.6227   -27691.501    93.252115    466.73582    78.618106    18.339385    27.414646 
   61400    234.34279   -333.32649    263624.46   -25745.392    1896.5126   -27641.905   -980.52485    468.99373    78.616016    18.339392    27.433921 
   61600    236.72687   -215.48078    263624.46   -25772.527    1915.8068   -27688.334   -492.93128    468.53961     78.61487    18.339678    27.431902 
   61800    239.46955   -223.59104    263624.46   -25777.239    1938.0029   -27715.242   -515.23315    470.31183    78.615314    18.338845    27.420023 
   62000    237.70308    -240.1544    263624.46   -25752.876     1923.707   -27676.583   -573.61613    470.40796    78.616053    18.339985     27.40716 
   62200     239.5359   -277.80133    263624.46   -25752.961    1938.5399   -27691.501   -751.01601    469.54961    78.616794    18.341152    27.403949 
   62400     240.3697   -217.91842    263624.46   -25780.945    1945.2878   -27726.233   -451.54582    469.21717    78.615551     18.34346    27.398361 
   62600    239.36803   -427.14956    263624.46   -25763.564    1937.1814   -27700.745   -1432.6219    471.02111    78.614233    18.344438      27.3984 
   62800    237.25323   -401.81765    263624.46   -25810.315    1920.0665   -27730.381   -1287.3393    471.07526    78.613436    18.344733     27.40628 
   63000    239.99053    -286.8832    263624.46   -25805.107    1942.2192   -27747.326   -753.88635    471.41136    78.613887    18.345681     27.40139 
   63200    240.54364   -147.96089    263624.46   -25763.381    1946.6954   -27710.076   -153.52279    472.72595    78.615063    18.345089     27.43043 
   63400    236.48925   -243.50656    263624.46   -25853.636    1913.8836    -27767.52   -571.65987    472.51359    78.614536     18.34303    27.435012 
   63600    234.75146   -257.08059    263624.46   -25817.721    1899.8199   -27717.541   -626.04525    473.63784    78.613543    18.341928    27.452868 
   63800    231.38693   -195.75236    263624.46   -25867.438    1872.5911   -27740.029   -328.80133    474.91675    78.614618    18.339002    27.453067 
   64000    242.58383   -136.38161    263624.46       -25720    1963.2065   -27683.207   -96.579592    478.36421    78.615114    18.336681    27.448325 
   64200    236.13366    -307.9227    263624.46   -25706.392    1911.0059   -27617.398   -905.35631    480.86854    78.612574    18.334691    27.434823 
   64400    234.51851   -172.92066    263624.46   -25753.614    1897.9347   -27651.549   -261.14607    481.91488    78.611084    18.333516     27.43591 
   64600    235.29476   -125.18973    263624.46   -25764.444    1904.2168   -27668.661   -24.410835    483.31306    78.609448    18.333037    27.428384 
   64800    236.46682   -207.84972    263624.46   -25716.161    1913.7022   -27629.863    -384.6864    485.00649    78.609333    18.331434    27.434277 
   65000    243.14989   -221.76284    263624.46   -25688.518    1967.7876   -27656.305   -438.12248    486.35653    78.608417    18.331763    27.437516 
   65200    240.25356   -72.955002    263624.46   -25747.304    1944.3479   -27691.652    205.74477    485.48112    78.607617    18.331602    27.447073 
   65400    238.39581   -369.71649    263624.46   -25713.138    1929.3132   -27642.451   -1145.5293    484.36205    78.608522    18.333755     27.45034 
   65600     239.2151   -270.56171    263624.46   -25679.965    1935.9437   -27615.909   -667.71292     487.1306    78.610554    18.332557    27.459749 
   65800    245.43258   -360.65996    263624.46   -25729.886    1986.2612   -27716.147   -1104.0549    490.05709    78.610898    18.331246    27.460394 
   66000    243.06842   -254.78961    263624.46   -25713.049    1967.1282   -27680.177    -629.9044    493.06404    78.610572    18.332438    27.457587 
   66200    234.64131   -184.45657    263624.46    -25748.31    1898.9285   -27647.239   -334.62571    494.86135     78.61055    18.332156    27.461444 
   66400    241.82963   -387.63115    263624.46   -25746.711    1957.1028   -27703.814   -1208.9145    497.01094    78.609465    18.331193    27.468193 
   66600     244.0061   -285.54505    263624.46   -25755.038    1974.7168   -27729.754     -797.014    499.74745    78.610975    18.330534    27.471179 
   66800     234.5192    -161.3304    263624.46   -25793.668    1897.9403   -27691.608    -161.6576    501.14832    78.610186    18.328112    27.460929 
   67000    234.14362   -162.38871    263624.46   -25829.668    1894.9008   -27724.569   -168.33095    500.99439    78.608625    18.327724    27.461431 
   67200    243.49994   -274.60443    263624.46   -25787.149    1970.6205    -27757.77   -715.09319    502.19629    78.609216    18.327454    27.476667 
   67400    242.94337    -273.0885    263624.46   -25758.891    1966.1162   -27725.007   -689.16056    503.31422     78.60901    18.327336    27.476889 
   67600    243.02841   -193.34053    263624.46   -25637.394    1966.8044   -27604.198   -371.04979     502.1935    78.609576    18.326783    27.479608 
   67800    237.34336   -379.09948    263624.46   -25732.771    1920.7959   -27653.567   -1145.5297    503.87827    78.609993    18.324346    27.465004 
   68000    239.63653   -202.76668    263624.46   -25796.658    1939.3543   -27736.012   -384.05487    505.36672    78.610051    18.323682    27.472846 
   68200      236.231   -233.13329    263624.46   -25759.778    1911.7937   -27671.572   -486.72104    505.39934    78.612559    18.324066    27.482732 
   68400    247.16613   -294.62566    263624.46   -25653.833    2000.2906   -27654.123   -823.11157    507.05779    78.613685    18.325229    27.469325 
   68600    235.73065   -291.61334    263624.46   -25666.413    1907.7444   -27574.158   -768.31891    509.13439    78.612964    18.326191    27.464037 
   68800    240.74622   -308.20136    263624.46   -25654.103    1948.3349   -27602.437   -857.09482    510.82425    78.611946    18.327669     27.47196 
   69000    240.18806   -325.58748    263624.46   -25686.775    1943.8178   -27630.592   -955.40932    512.94551    78.612019    18.327984    27.495263 
   69200    229.94569   -472.96485    263624.46   -25719.128    1860.9273   -27580.056   -1587.3574    515.22997    78.612823    18.326065    27.503089 
   69400    241.38678    -145.9165    263624.46    -25750.06    1953.5189   -27703.579   -115.53723    517.12441    78.614352    18.326933    27.507569 
   69600    245.54431   -258.63617    263624.46   -25539.467    1987.1654   -27526.632   -637.24462    522.09469    78.613758    18.327404    27.499102 
   69800    242.25886   -271.09708    263624.46   -25680.903    1960.5766    -27641.48   -681.30666    524.41058    78.614413    18.324958      27.4933 
   70000    245.76189   -230.10106    263624.46   -25632.201    1988.9262   -27621.127   -484.66133     523.0254    78.615118    18.323869    27.507962 
   70200     243.5395   -295.29884    263624.46   -25588.112    1970.9407   -27559.053   -784.35215    525.04082    78.616275    18.322081    27.504969 
   70400    241.39192   -140.39658    263624.46   -25561.908    1953.5605   -27515.469   -150.05033    525.84365    78.614897    18.320374     27.51355 
   70600    240.76783   -407.62655    263624.46   -25688.299    1948.5098   -27636.809   -1289.3336    529.28681    78.613598    18.320159    27.512834 
   70800    237.65975   -311.74505    263624.46   -25719.742    1923.3564   -27643.098   -899.64234    530.48897    78.614838    18.321457    27.489188 
   71000     236.2164   -316.58622    263624.46   -25740.572    1911.6756   -27652.248   -900.01413    531.11708    78.616101     18.32311    27.489583 
   71200    241.48371    -278.6972    263624.46   -25720.868    1954.3033   -27675.172     -717.546    532.13797    78.618081    18.324625    27.490024 
   71400    232.40668   -309.61097    263624.46   -25755.108    1880.8438   -27635.951   -873.00894    532.97535    78.619071    18.325533     27.50351 
   71600    234.49703   -320.73708    263624.46   -25692.212    1897.7608   -27589.972   -934.69234    534.67221    78.619244    18.323995    27.508799 
   71800    236.96225   -229.70878    263624.46   -25819.984    1917.7116   -27737.696   -464.50365    536.63311    78.618909    18.325904    27.520255 
   72000    234.75105   -258.42851    263624.46   -25786.719    1899.8166   -27686.536   -620.53806    537.19045     78.61999    18.326945    27.508837 
   72200    241.91669   -378.79223    263624.46    -25637.77    1957.8074   -27595.577    -1188.965    535.08024    78.619757     18.32854    27.509811 
   72400    240.36807   -483.73462    263624.46   -25776.872    1945.2746   -27722.146   -1666.3703    533.50448     78.61951    18.327756    27.507014 
   72600    247.48714   -209.44693    263624.46   -25677.778    2002.8885   -27680.666   -417.00429    533.46789    78.619568    18.326914    27.503354 
   72800    234.72857   -162.82491    263624.46   -25713.304    1899.6347   -27612.939   -190.54152    535.07873      78.6208    18.327946    27.513754 
   73000    244.67435   -205.47864    263624.46   -25705.969    1980.1249   -27686.094   -391.99364    537.90814    78.620567    18.331775    27.522096 
   73200    243.52514   -257.91348    263624.46   -25645.824    1970.8245   -27616.649   -602.55888    543.34368    78.621123    18.332246    27.522623 
   73400    240.54537    -300.2182    263624.46   -25657.736    1946.7094   -27604.445   -819.12431    545.84612    78.621075    18.330694    27.542359 
   73600    242.29635   -186.49064    263624.46   -25651.089      1960.88   -27611.969   -306.71132    546.37266    78.620983    18.330665    27.526411 
   73800    234.40724   -114.51336    263624.46   -25734.253    1897.0342   -27631.287    3.6882089    545.32805    78.620402    18.331912    27.515099 
   74000    236.61413   -225.82646    263624.46   -25754.177    1914.8943   -27669.071   -480.86308    543.72277    78.622053     18.33388     27.51237 
   74200    235.95065   -317.00185    263624.46   -25690.464    1909.5249   -27599.989    -924.9341    543.63543    78.621376    18.333413    27.524883 
   74400    240.27082   -137.97508    263624.46   -25637.336    1944.4876   -27581.824   -114.82276    543.87501    78.622848    18.332044    27.523509 
   74600    239.09381   -376.93021    263624.46   -25698.288    1934.9622    -27633.25   -1192.1972    545.66145     78.62375    18.331788    27.532591 
   74800    239.20143   -353.27948    263624.46   -25678.626    1935.8331   -27614.459   -1098.9611    546.74724    78.622543    18.333079    27.544314 
   75000       244.27    -352.2784    263624.46   -25697.314    1976.8525   -27674.167   -1056.9502    549.21535    78.621754    18.335329    27.551941 
   75200    244.86985   -255.90208    263624.46   -25660.924     1981.707   -27642.631   -633.60284    550.83783    78.621828    18.336754    27.565641 
   75400    238.70742   -417.07593    263624.46    -25740.21    1931.8351   -27672.045   -1322.3358     552.8473    78.620535    18.339163     27.56102 
   75600    236.66084   -246.18973    263624.46   -25673.256    1915.2723   -27588.529   -578.86434     551.3665    78.620434    18.339107    27.581601 
   75800    239.63805    -78.58932    263624.46   -25608.417    1939.3666   -27547.784    120.59104    550.70873    78.621249     18.33945    27.569439 
   76000    245.59526   -456.77714    263624.46   -25639.199    1987.5777   -27626.777   -1521.8547    555.67017    78.621058    18.339821    27.574785 
   76200    240.07679   -292.12907    263624.46   -25787.463    1942.9173    -27730.38   -784.92997    558.19467    78.621352    18.338246    27.569519 
   76400    233.24025   -318.29655    263624.46   -25762.999    1887.5898   -27650.588   -940.94176       558.57    78.622101    18.338818    27.588116 
   76600    246.32678   -193.53645    263624.46   -25744.712    1993.4978    -27738.21   -334.18029    559.65913    78.623513     18.33942    27.582941 
   76800    229.54198   -348.81094    263624.46   -25783.406    1857.6601   -27641.066   -1071.6895    558.92615    78.625204    18.337756    27.584659 
   77000    245.33713   -254.36327    263624.46   -25661.556    1985.4886   -27647.045   -605.38862    557.79272    78.624571    18.337766    27.588861 
   77200     241.1293    -263.0908    263624.46    -25694.14    1951.4352   -27645.575    -677.6535    559.02482     78.62569    18.338653     27.57243 
   77400    236.15058    -315.6829    263624.46    -25722.43    1911.1429   -27633.572   -894.93549    562.95125    78.625114    18.338252    27.561883 
   77600    231.46141   -325.22903    263624.46   -25770.827    1873.1939   -27644.021   -941.61842    562.69734     78.62592    18.335635    27.550159 
   77800    235.27183   -340.61701    263624.46   -25756.928    1904.0312   -27660.959    -1030.472    563.47673    78.625214     18.33544    27.551311 
   78000    240.67475   -211.17524    263624.46   -25774.764    1947.7565    -27722.52   -408.03885    565.47411    78.624864    18.333763    27.558852 
   78200    240.13841   -252.97692    263624.46   -25818.504     1943.416    -27761.92    -628.3222    568.72213    78.623125    18.333781     27.56835 
   78400    239.23114   -243.57709    263624.46   -25786.395    1936.0735   -27722.469    -601.6212    570.78189    78.623485    18.333065     27.57534 
   78600     238.1556   -169.30426    263624.46   -25735.504    1927.3693   -27662.873    -258.6237    572.29843    78.622879    18.330614    27.586965 
   78800    239.68751   -348.80062    263624.46   -25685.957    1939.7669   -27625.723   -1028.3644    575.53151    78.623634    18.329197    27.590857 
   79000    236.72229   -270.86036    263624.46    -25654.98    1915.7696    -27570.75   -716.00341    572.97238    78.624048    18.328438    27.590827 
   79200    243.07551   -262.63997    263624.46   -25646.653    1967.1856   -27613.839   -659.43931    573.85712    78.622846    18.325949    27.608279 
   79400    244.98625   -321.24366    263624.46   -25595.604     1982.649   -27578.253   -924.42984    571.98927    78.623144    18.326416    27.611357 
   79600    236.25774   -334.76438    263624.46   -25706.647    1912.0101   -27618.657   -959.75886    574.82825     78.62241    18.325649    27.603488 
   79800    235.69464   -249.16968    263624.46   -25677.554     1907.453   -27585.007   -600.91881    577.31454    78.620582    18.325887    27.598327 
   80000    240.26272   -270.22348    263624.46   -25696.415     1944.422   -27640.837   -748.13402    578.55523    78.619865    18.327363    27.601759 
   80200    236.58708   -250.69437    263624.46    -25736.18    1914.6754   -27650.856   -627.20476    577.68699    78.620279    18.327403    27.600474 
   80400    235.49623   -176.62842    263624.46   -25755.129    1905.8473   -27660.976   -315.30981    579.89605    78.619714     18.32893    27.599632 
   80600    238.17095   -212.52816    263624.46   -25679.483    1927.4935   -27606.977   -467.91187    580.21536    78.619236    18.329579     27.59302 
   80800    240.36794   -227.47493    263624.46   -25677.503    1945.2736   -27622.777   -542.25722    581.89849     78.61773    18.330605    27.605227 
   81000    243.27546   -202.06476    263624.46   -25664.045    1968.8038   -27632.849   -419.11521    582.93489    78.617216     18.33234    27.608334 
   81200     241.8836   -397.88088    263624.46   -25665.995    1957.5396   -27623.534   -1280.0659    583.75086    78.617732    18.334568    27.588484 
   81400    237.94662   -270.12698    263624.46   -25682.548    1925.6781   -27608.226    -754.3905    584.46514    78.618109    18.333689    27.566095 
   81600    238.89236   -477.71714    263624.46   -25712.567    1933.3318   -27645.899   -1597.4014    586.82332    78.618084    18.330969    27.548173 
   81800    237.11793   -214.95985    263624.46   -25738.682    1918.9715   -27657.654   -492.24697    587.87267    78.617897    18.328092    27.545571 
   82000    240.44668   -296.64677    263624.46   -25662.163    1945.9108   -27608.074   -830.72108    588.93242    78.617812    18.327315    27.531198 
   82200    240.17864   -209.85143    263624.46   -25619.493    1943.7415   -27563.234   -461.11221     591.8679    78.617671    18.327761    27.546264 
   82400    243.56264   -299.25696    263624.46   -25665.808    1971.1279   -27636.935   -868.33532    590.38707     78.61577    18.328287    27.556926 
   82600    241.21283   -105.18371    263624.46    -25621.32    1952.1112   -27573.432   -2.5119378    589.99678     78.61555        18.33    27.572493 
   82800    235.49657   -390.82523    263624.46   -25729.491      1905.85   -27635.341   -1275.5007    590.26089    78.615486    18.332302    27.582452 
   83000    240.40763    -299.8707    263624.46    -25654.47    1945.5948   -27600.064   -779.22856    589.50072    78.614425    18.335656    27.574745 
   83200    236.96739   -424.47474    263624.46   -25698.598    1917.7533   -27616.351   -1377.1339    591.89028    78.615786    18.335627    27.569599 
   83400    242.09316   -359.91073    263624.46   -25702.105    1959.2355   -27661.341   -1081.0722     595.0734    78.614403    18.334144    27.577288 
   83600    233.16711   -349.54701    263624.46    -25768.87    1886.9979   -27655.868   -1081.3426    598.26925    78.614424    18.335358    27.571585 
   83800    237.75579   -254.31194    263624.46   -25755.511    1924.1337   -27679.644   -604.27413    598.80427    78.613032     18.33606    27.577238 
   84000    237.47723   -274.86084    263624.46   -25717.596    1921.8793   -27639.475   -726.40749    602.44284    78.612405    18.337354    27.545222 
   84200    234.56274   -183.77827    263624.46   -25691.284    1898.2927   -27589.577   -324.32591    604.10125    78.612923    18.337779    27.554576 
   84400    238.67264   -262.70406    263624.46    -25741.32    1931.5536   -27672.874   -659.63106    606.28287    78.612082    18.339407    27.563337 
   84600    241.56878   -401.63671    263624.46   -25681.861    1954.9918   -27636.853   -1261.7074    609.56707    78.611201    18.339528    27.570087 
   84800    241.12705   -296.08323    263624.46   -25738.019    1951.4169   -27689.436   -818.99788    612.92555     78.60949     18.33871    27.579735 
   85000    234.47713   -303.94656    263624.46     -25764.3    1897.5998     -27661.9   -832.68279    612.35338    78.609706    18.338058    27.567169 
   85200    239.07971   -308.62975    263624.46   -25769.768     1934.848   -27704.616   -889.05023    613.45788    78.610101     18.33706     27.57042 
   85400    237.73982   -260.89753    263624.46   -25795.937    1924.0045   -27719.941   -657.19869    612.87347    78.610572    18.335223    27.581048 
   85600    241.06134   -348.87813    263624.46    -25802.63    1950.8852   -27753.515   -1052.5592    615.88343    78.609315    18.335989    27.595031 
   85800    239.82607   -317.61733    263624.46   -25740.116    1940.8882   -27681.004   -943.13105    617.33626    78.610482    18.338004    27.586774 
   86000    241.76434   -183.77885    263624.46   -25725.225    1956.5745   -27681.799   -327.21847    618.70512    78.610499    18.337505    27.601832 
   86200    240.36511   -249.23742    263624.46   -25682.338    1945.2506   -27627.588    -614.1627    617.89076    78.610024    18.336022    27.602474 
   86400    234.69083   -393.02735    263624.46   -25719.587    1899.3293   -27618.916   -1263.6121     619.4854    78.608651    18.338049    27.607584 
   86600    237.96648   -264.07945    263624.46    -25657.93    1925.8387   -27583.769   -648.80997    621.60835    78.607686    18.339792    27.596965 
   86800    238.64453   -175.97481    263624.46   -25728.874    1931.3262     -27660.2   -309.13296    621.21844    78.606714    18.340858    27.603289 
   87000    245.04623   -176.02452    263624.46   -25667.366    1983.1345   -27650.501   -298.57799    618.82693    78.608127    18.341985    27.607872 
   87200    243.45616   -265.97027    263624.46   -25722.452    1970.2662   -27692.718   -699.07658    617.97514     78.60822    18.342831    27.611076 
   87400    237.25264   -383.79135    263624.46    -25769.59    1920.0617   -27689.651   -1205.6923    620.02951    78.608679    18.342345    27.613108 
   87600    243.34232   -165.08286    263624.46   -25724.619    1969.3449   -27693.964   -191.66043      620.835    78.608479    18.342366    27.609728 
   87800    244.61439   -351.27271    263624.46   -25742.512    1979.6396   -27722.151   -1058.9208    621.23296    78.608658    18.345861    27.620127 
   88000    238.69287   -219.71351    263624.46    -25742.84    1931.7173   -27674.557   -461.51189    621.18386    78.609856     18.34731    27.608305 
   88200    235.30348   -164.17313    263624.46   -25822.875    1904.2874   -27727.162   -194.24514    622.72885    78.611061    18.345739    27.599529 
   88400    237.79865   -156.32447    263624.46   -25731.635    1924.4805   -27656.115    -137.8912    622.57898    78.612267    18.344055    27.594873 
   88600    238.10811   -372.23883    263624.46   -25750.532     1926.985   -27677.517   -1148.5064    624.09376    78.613278    18.343582    27.602416 
   88800    240.72396   -305.55785    263624.46   -25769.267    1948.1548   -27717.422   -829.79224     624.7676    78.613971    18.340949    27.601578 
   89000     246.6067   -313.59534    263624.46   -25780.046    1995.7632   -27775.809   -878.00572    625.27428    78.613542    18.341033    27.592633 
   89200    242.77939   -293.81005    263624.46   -25778.178    1964.7891   -27742.967   -790.11679    624.60319     78.61218    18.341841    27.574319 
   89400    240.18323   -179.97086    263624.46   -25784.587    1943.7787   -27728.365   -276.67594    622.99592    78.611433    18.340917    27.565952 
   89600    231.05556   -384.88457    263624.46    -25864.28    1869.9093    -27734.19   -1229.6928    623.68429    78.611265    18.337688    27.574444 
   89800    239.30199   -193.33233    263624.46   -25733.645    1936.6469   -27670.292   -313.66494     620.0519    78.611518    18.337882    27.572797 
   90000    242.57294   -318.20479    263624.46   -25755.556    1963.1183   -27718.674   -904.62583    621.29194     78.61022    18.340274    27.581152 
   90200     240.7598   -284.68155    263624.46   -25790.598    1948.4448   -27739.043   -752.30813    622.99835    78.609419    18.344401     27.57957 
   90400    237.44031   -148.17436    263624.46   -25713.206    1921.5805   -27634.786   -143.66158    624.60418    78.610691    18.344441    27.599215 
   90600    239.94686   -266.58446    263624.46   -25650.713    1941.8658   -27592.579   -678.29475    628.03197    78.610003    18.344934      27.5908 
   90800    240.96949   -306.74768    263624.46   -25703.212    1950.1418   -27653.353   -818.37962    628.92409     78.60957    18.344618    27.589467 
   91000    240.83397   -294.34475    263624.46    -25683.78     1949.045   -27632.825   -780.68265     631.8546    78.607889    18.345523    27.583197 
   91200    234.59951   -236.58939    263624.46   -25779.583    1898.5902   -27678.174   -575.33015    634.08109    78.608241    18.345439    27.588189 
   91400    239.55679   -353.84391    263624.46   -25719.543     1938.709   -27658.252   -1061.0833    636.97518    78.609052     18.34645     27.58411 
   91600    238.57468   -124.13837    263624.46   -25609.669    1930.7608    -27540.43   -80.430934     635.8388    78.609353    18.347294    27.589631 
   91800    239.35445   -348.08618    263624.46   -25637.519    1937.0715   -27574.591   -1048.2488    636.54342     78.60938    18.346765    27.587709 
   92000    240.95709   -209.04276    263624.46   -25655.969    1950.0414    -27606.01   -421.84024     635.3926    78.609132    18.346281    27.600276 
   92200    243.07879   -295.14061    263624.46   -25751.309    1967.2121   -27718.521   -838.25183    638.03892    78.607874    18.345279     27.60547 
   92400      241.877   -290.75502    263624.46   -25722.759    1957.4862   -27680.245   -753.58458    637.37835    78.606653    18.345599    27.598083 
   92600    245.39099    -119.4232    263624.46   -25666.404    1985.9246   -27652.329   0.57948599     639.6557    78.606971    18.344564    27.619058 
   92800    241.49023   -196.82469    263624.46   -25724.123    1954.3561   -27678.479   -381.18874    640.54474    78.606968     18.34664     27.61048 
   93000    240.26007   -190.01816    263624.46   -25733.403    1944.4006   -27677.804   -330.99488    640.35173      78.6069    18.348736    27.613487 
   93200    239.45355   -442.23912    263624.46   -25674.989    1937.8735   -27612.862   -1472.6582    641.29345    78.606044    18.350625    27.618998 
   93400    235.11077   -291.18982    263624.46    -25747.61    1902.7278   -27650.338   -795.39305    642.43224    78.608167    18.352221    27.633247 
   93600    240.31524   -435.67606    263624.46   -25723.832     1944.847   -27668.679   -1442.6252    645.44765    78.608913       18.354    27.643366 
   93800    237.93637      -210.76    263624.46   -25747.936     1925.595   -27673.531   -448.44643    644.71039    78.609317     18.35337    27.655256 
   94000    238.82872   -297.40604    263624.46   -25764.559    1932.8168   -27697.376   -800.80201    646.40195    78.610099    18.355002    27.655608 
   94200    239.89853   -156.51867    263624.46   -25661.625    1941.4747   -27603.099   -187.01342    648.08262    78.609564    18.357638    27.661291 
   94400    236.31355   -288.65094    263624.46    -25710.81    1912.4617   -27623.272    -765.2052    652.95612    78.608924    18.358047    27.665743 
   94600    243.89565    -302.8922    263624.46   -25743.119     1973.823   -27716.942   -871.25836    658.33672    78.609463    18.358601    27.658212 
   94800    237.43283   -373.87986    263624.46   -25744.702      1921.52   -27666.222   -1189.6408    663.19084    78.609816    18.361676    27.642139 
   95000    232.37108   -230.03701    263624.46   -25783.389    1880.5557   -27663.944   -521.32685    664.13773    78.610051    18.362813    27.646487 
   95200    243.15852   -207.88922    263624.46   -25725.481    1967.8574   -27693.338    -402.7053    667.88248     78.60953    18.362542    27.642524 
   95400    237.61856    -377.2425    263624.46   -25717.369     1923.023   -27640.392   -1222.0828    670.06611    78.608695    18.363195    27.641226 
   95600    242.01008    -149.0475    263624.46   -25691.661    1958.5632   -27650.224   -186.41831    668.09222    78.608398     18.36113     27.64525 
   95800    239.79889   -201.21661    263624.46   -25684.913    1940.6682   -27625.581   -382.04833    667.91487    78.608609    18.361929    27.646649 
   96000    242.13625   -243.65714    263624.46    -25659.68    1959.5843   -27619.264   -606.11763     667.6861    78.608778    18.362099    27.654366 
   96200     239.9086   -433.81308    263624.46   -25657.007    1941.5561   -27598.563   -1446.0129    669.57754    78.609411      18.3632    27.641423 
   96400    244.30716   -290.54148    263624.46   -25743.114    1977.1532   -27720.267   -775.79854    672.31209    78.609467    18.361491     27.63543 
   96600    235.21318   -283.01669    263624.46    -25791.43    1903.5566   -27694.986   -750.14223    672.75806    78.612185    18.361086    27.644768 
   96800    241.46328   -353.36115    263624.46   -25742.734     1954.138   -27696.872   -1069.0027    676.00861    78.612701    18.360264    27.634418 
   97000    234.70955   -183.94354    263624.46   -25829.173    1899.4808   -27728.654   -293.90494    677.56187    78.612856     18.35748    27.636322 
   97200    236.38117   -395.19435    263624.46   -25799.149     1913.009   -27712.158   -1291.6152    677.99464    78.612872    18.357321    27.646023 
   97400    237.96427   -167.55753    263624.46   -25760.282    1925.8209   -27686.103   -293.43199    676.90796    78.612407    18.355933    27.661853 
   97600    243.59593   -371.90737    263624.46   -25666.617    1971.3973   -27638.014   -1116.9603    680.17777     78.61145    18.356309    27.650578 
   97800    232.36352    -342.4752    263624.46   -25688.759    1880.4945   -27569.254   -1046.6465    682.20171    78.612375    18.357534    27.654746 
   98000    236.23643   -187.50889    263624.46   -25696.003    1911.8376   -27607.841    -325.8316    684.75085    78.612457    18.356608    27.659666 
   98200    245.48132   -319.86652    263624.46   -25711.168    1986.6556   -27697.824   -944.58073     684.5128    78.613849    18.357745    27.682687 
   98400    239.59893   -282.51288    263624.46   -25744.738      1939.05   -27683.788   -732.68468    685.75508    78.613077    18.361752    27.691005 
   98600    234.88414   -135.75989    263624.46   -25745.201    1900.8937   -27646.094   -136.26142    688.66333    78.612168    18.360468    27.679229 
   98800    242.34995   -271.32671    263624.46   -25657.111    1961.3137   -27618.424   -757.60979    690.71123    78.611613    18.358278     27.67173 
   99000    239.16729   -184.36099    263624.46   -25743.546    1935.5568   -27679.103   -307.10973    694.59516    78.612712    18.358349    27.662313 
   99200    243.72174   -377.64975    263624.46   -25697.646    1972.4155   -27670.061   -1170.5617    697.55909    78.613979    18.356783    27.666466 
   99400    236.32004   -317.08407    263624.46   -25759.789    1912.5143   -27672.303   -926.06476    700.81159    78.614308    18.357061    27.671896 
   99600    240.35516   -244.76652    263624.46   -25683.954    1945.1701   -27629.124   -592.96635    704.06891    78.613612    18.357717    27.658374 
   99800    239.86266   -360.99569    263624.46   -25737.063    1941.1844   -27678.247   -1149.8046    708.59731     78.61316    18.355936    27.645909 
  100000     235.9295   -478.85701    263624.46   -25661.971    1909.3537   -27571.324   -1640.6572     710.6017    78.613967    18.354899    27.645452 
  100200    231.02947   -228.10066    263624.46   -25760.072    1869.6982    -27629.77   -514.87436    711.15644    78.614796    18.353942    27.649956 
  100400    237.11993   -213.38638    263624.46   -25696.982    1918.9877   -27615.969   -457.06078    715.13576     78.61567    18.355838    27.640027 
  100600    238.36325   -295.16904    263624.46   -25717.322    1929.0498   -27646.372   -850.67298    718.63386    78.616378     18.35786    27.639512 
  100800    242.43603    58.242235    263624.46    -25810.55    1962.0104    -27772.56    749.73846    716.66236    78.616379    18.357268    27.634224 
[...]
 5176000    223.49675   -336.30775    263624.46   -28254.165    1808.7367   -30062.902   -781.35435    6928.5703    78.436952    17.575996    27.259206 
 5176200     229.1301   -340.15405    263624.46   -28206.996    1854.3268   -30061.323   -839.43633    6928.6611    78.440596     17.57374    27.255321 
 5176400    228.43621   -415.50591    263624.46   -28223.059    1848.7113    -30071.77   -1154.3396    6925.1408    78.441828    17.576947    27.249365 
 5176600    231.11163   -321.64258    263624.46   -28159.936    1870.3631   -30030.299   -656.73047    6921.7891      78.4411    17.575952    27.257262 
 5176800    223.53248   -461.24663    263624.46   -28183.818    1809.0259   -29992.844   -1346.3893    6928.7245    78.442002    17.578577    27.267368 
 5177000    222.99885   -292.44623    263624.46   -28180.856    1804.7072   -29985.563   -575.17021    6926.5748     78.44259    17.577536    27.260898 
 5177200    229.68442   -346.42282    263624.46   -28141.788    1858.8128   -30000.601    -781.6853    6927.7926    78.445552    17.577359    27.257656 
 5177400    228.76847   -309.45808    263624.46   -28104.923    1851.4002   -29956.323   -622.15976     6927.772     78.44675    17.578791    27.247496 
 5177600    232.62334   -264.32745    263624.46   -28115.345    1882.5973   -29997.942   -471.89779    6920.7546    78.446206    17.580261    27.251663 
 5177800    224.80673   -378.95164    263624.46   -28170.417    1819.3382   -29989.756   -931.49859    6930.1295    78.445499    17.580454    27.247573 
 5178000    223.21004   -183.31307    263624.46   -28216.246    1806.4164   -30022.663   -69.212812    6921.3598    78.445805    17.580627    27.243852 
 5178200    230.96117   -397.82649    263624.46   -28186.124    1869.1455   -30055.269   -1024.9339     6929.714    78.447424    17.583333    27.252661 
 5178400    224.26327   -225.80018    263624.46   -28164.739      1814.94   -29979.679   -226.36762    6921.9741    78.446065    17.582713    27.245581 
 5178600    224.80056   -334.69001    263624.46    -28178.29    1819.2883   -29997.578   -759.58435    6927.2613    78.446699    17.584736    27.252107 
 5178800    227.76902   -375.71071    263624.46   -28143.191    1843.3117   -29986.502   -910.90208    6929.4483    78.446848    17.584944    27.260948 
 5179000    225.50601   -379.50443    263624.46   -28205.304    1824.9974   -30030.301   -984.20861    6930.7049    78.449442    17.585769    27.256504 
 5179200    227.60805   -380.29581    263624.46    -28226.89     1842.009   -30068.899   -971.56027    6928.7052     78.45123    17.588874      27.2525 
 5179400      230.701    -298.9216    263624.46   -28107.905      1867.04   -29974.945    -600.6416    6923.0069    78.448849    17.588685    27.255378 
 5179600     228.3068   -379.49147    263624.46   -28194.669     1847.664   -30042.333   -960.89558    6924.0503    78.447362    17.589124    27.247732 
 5179800    224.85416   -364.20304    263624.46   -28236.467    1819.7221   -30056.189   -855.51213    6926.7127    78.446839    17.588513    27.257389 
 5180000    223.30669   -329.22016    263624.46   -28303.343    1807.1985   -30110.541   -711.27414    6924.3552    78.450177    17.588615    27.256265 
 5180200     225.3489   -422.14302    263624.46   -28258.285    1823.7259   -30082.011    -1168.726    6926.0023    78.449814    17.588633    27.253152 
 5180400    227.57765   -293.93926    263624.46   -28158.888     1841.763   -30000.651   -550.41266    6921.6324    78.448934    17.589427    27.266506 
 5180600    226.35362   -404.44006    263624.46   -28193.187     1831.857   -30025.044   -1069.7063    6931.4833    78.450717    17.588806    27.254196 
 5180800    220.94576   -276.43446    263624.46    -28255.48    1788.0918   -30043.572   -496.15251    6927.4769    78.454839    17.589142    27.259303 
 5181000    225.67602   -336.93214    263624.46   -28168.204    1826.3733   -29994.578    -762.4826    6928.7448     78.46017    17.589438    27.253417 
 5181200    224.52631   -379.45397    263624.46    -28242.42    1817.0688   -30059.489   -930.26027     6930.677    78.464711    17.587419    27.269197 
 5181400     226.7001   -246.98203    263624.46   -28196.778    1834.6611   -30031.439   -362.46195    6922.1084    78.467382    17.587288    27.263586 
 5181600    220.38058   -298.04208    263624.46   -28234.503    1783.5179   -30018.021   -607.00206     6925.124    78.467602    17.588204    27.262588 
 5181800    224.66007   -349.73797    263624.46   -28177.444    1818.1514   -29995.595   -842.68284     6925.856    78.468625    17.588608     27.27187 
 5182000    226.20804   -319.11811    263624.46    -28178.22    1830.6789   -30008.899   -669.27223    6930.5687     78.47102    17.588872    27.262337 
 5182200    231.24222   -299.36513    263624.46   -28146.687      1871.42   -30018.107   -582.98311    6929.4556    78.475321    17.588834    27.263491 
 5182400    226.09367   -180.79848    263624.46   -28220.887    1829.7533   -30050.641   -89.680078    6927.2345    78.476663    17.588603    27.274512 
 5182600    229.34307   -372.64121    263624.46   -28214.742    1856.0504   -30070.793   -967.47116    6930.3923    78.481305    17.586138    27.261697 
 5182800    228.25847   -264.47761    263624.46   -28183.414    1847.2728   -30030.687   -410.60226    6926.5046    78.482224    17.588998    27.270846 
 5183000    231.44702   -366.08764    263624.46   -28123.729    1873.0774   -29996.806    -915.1208    6922.2019    78.483867    17.589311    27.262571 
 5183200    225.06525   -344.99081    263624.46   -28158.467    1821.4304   -29979.897   -796.70042    6925.9505    78.482128    17.592509     27.26464 
 5183400    223.85614    -363.2914    263624.46   -28255.537    1811.6452   -30067.183   -898.19979    6926.8133    78.483384    17.590905    27.258549 
 5183600    221.01639   -359.68044    263624.46   -28230.216    1788.6634    -30018.88   -874.16793    6927.8409    78.484429     17.59366    27.263273 
 5183800    228.98836    -273.6979    263624.46   -28205.467    1853.1797   -30058.647   -479.72745    6927.1267    78.485168    17.591819    27.259184 
 5184000    228.74329    -304.3528    263624.46   -28158.142    1851.1964   -30009.339    -615.5264    6929.4424    78.487226    17.592144     27.26728 
 5184200    227.55306   -339.08148    263624.46   -28167.326     1841.564    -30008.89   -748.15661    6924.2183    78.486919    17.590921    27.269775 
 5184400    225.97498    -440.7242    263624.46   -28167.141    1828.7928   -29995.934   -1205.5998    6923.2155    78.485206    17.591709    27.273817 
 5184600    227.27971   -314.28269    263624.46   -28179.327    1839.3518   -30018.679   -668.31625    6925.2861      78.4816    17.589825    27.272541 
 5184800    224.04603   -367.43549    263624.46   -28180.842    1813.1819   -29994.024   -909.73528    6931.4739    78.481947     17.59056    27.260935 
 5185000    225.23141   -262.95069    263624.46    -28171.26    1822.7752   -29994.035   -407.74791    6920.9762    78.478929    17.587434    27.248476 
 5185200    227.33952    -380.6451    263624.46   -28205.844    1839.8358    -30045.68   -961.74139    6925.0268    78.475678    17.589982     27.26138 
 5185400    228.85605   -250.15956    263624.46   -28175.016    1852.1089   -30027.125   -407.79313    6920.9664    78.471989    17.591307    27.264261 
 5185600    224.13963   -338.27226    263624.46   -28185.506    1813.9394   -29999.446   -767.53572    6923.7858    78.468253      17.5906    27.263964 
 5185800    224.87118    -335.6735    263624.46   -28133.614    1819.8598   -29953.473   -774.79676    6924.7901    78.467218    17.593075    27.257571 
 5186000    230.32922   -376.13888    263624.46   -28111.991    1864.0312   -29976.023   -936.99838     6924.793    78.464252    17.593132    27.255966 
 5186200    230.30408   -269.32837    263624.46   -28150.948    1863.8277   -30014.775   -432.15737    6923.8568    78.461536    17.593593    27.257289 
 5186400    226.79806   -387.45591    263624.46   -28169.209    1835.4538   -30004.663   -975.77909    6927.2037    78.460116    17.597948    27.249716 
 5186600    224.24991   -290.35008    263624.46   -28192.014     1814.832   -30006.846   -542.11753    6920.8813    78.458269    17.598381    27.247715 
 5186800    227.53547   -342.42611    263624.46   -28101.163    1841.4217   -29942.585   -746.55178    6927.3474    78.458344    17.597277    27.249633 
 5187000    236.80239   -253.62339    263624.46   -28092.687    1916.4179   -30009.105   -385.80133    6926.7077     78.45883    17.598464     27.26046 
 5187200     222.5208     -291.837    263624.46   -28249.169    1800.8384   -30050.007   -566.64772    6928.0289    78.462471    17.594014     27.26283 
 5187400    223.16561   -282.79314    263624.46   -28256.599    1806.0568   -30062.656   -559.09308    6924.5805    78.462231     17.59305    27.264962 
 5187600    227.95676   -328.01713    263624.46   -28159.019    1844.8311    -30003.85   -749.33543    6926.5068    78.463957    17.590515    27.263088 
 5187800     231.1417   -263.52052    263624.46   -28194.461    1870.6065   -30065.067   -432.72463     6926.657    78.465138    17.588417    27.263214 
 5188000    231.76108   -377.52232    263624.46   -28112.668    1875.6191   -29988.287   -978.90676    6929.8964    78.468645    17.586401    27.262594 
 5188200    232.97948   -286.64958    263624.46   -28138.894    1885.4795   -30024.373   -545.15255    6929.9822     78.46925    17.585097    27.261532 
 5188400    228.17807   -453.74199    263624.46   -28194.364    1846.6221   -30040.986   -1277.0983    6933.4836    78.472447    17.583009    27.249659 
 5188600    221.45744   -315.62714    263624.46   -28238.858    1792.2327   -30031.091   -666.97934    6927.0632     78.47328    17.580733    27.263114 
 5188800    224.30357   -387.23751    263624.46   -28216.773    1815.2662   -30032.039    -1020.932    6930.0804    78.472926    17.580642     27.26631 
 5189000    225.55235   -356.62115    263624.46   -28179.798    1825.3725   -30005.171    -863.0674    6931.3801    78.473806    17.581848    27.271663 
 5189200    225.01086   -335.54795    263624.46   -28275.977    1820.9902   -30096.967    -746.7831    6932.1164     78.47614    17.582168    27.268363 
 5189400    222.92161    -299.8265    263624.46   -28211.826    1804.0821   -30015.908   -587.66032    6929.3683    78.475947    17.583811    27.260592 
 5189600    228.67528   -311.51149    263624.46   -28169.164     1850.646    -30019.81   -595.27303    6925.3881    78.476915    17.583263    27.262373 
 5189800    227.88143   -427.94703    263624.46   -28221.643    1844.2214   -30065.864   -1138.6573    6928.8897    78.475094    17.583001    27.261265 
 5190000    225.41673   -242.70001    263624.46   -28203.149    1824.2749   -30027.424   -337.21334    6925.1663    78.476165    17.583257    27.254054 
 5190200    227.60461   -366.76066    263624.46   -28228.115    1841.9812   -30070.097   -888.23856    6926.5631     78.47316    17.583361    27.258248 
 5190400    231.74455    -281.5482    263624.46   -28054.961    1875.4853   -29930.446   -495.71672    6920.4961    78.471743    17.584994    27.249889 
 5190600     227.0357   -425.93186    263624.46   -28188.973    1837.3771    -30026.35   -1116.6496    6927.9735    78.467545    17.586584    27.246882 
 5190800    227.20906   -293.98266    263624.46   -28171.274      1838.78   -30010.054   -553.27055    6923.3152    78.465835     17.58823    27.243779 
 5191000    229.23945   -465.58174    263624.46   -28213.397    1855.2117   -30068.608   -1355.7082    6925.6849    78.463226    17.588166    27.263402 
 5191200    222.79106   -375.97764    263624.46   -28182.258    1803.0256   -29985.283   -898.07467    6927.0941    78.460965    17.590284    27.241294 
 5191400    224.33928   -394.88476    263624.46   -28189.622    1815.5552   -30005.177   -1007.3483    6926.5552    78.461468    17.589222    27.252903 
 5191600    228.07096   -332.52999    263624.46   -28205.083    1845.7553   -30050.838   -731.40348    6925.6698    78.460772    17.588737    27.244261 
 5191800    237.24033   -402.47118    263624.46   -28103.535    1919.9621   -30023.497   -1020.4629    6925.7088    78.460614    17.588265    27.256355 
 5192000    233.67475   -390.06543    263624.46   -28112.334    1891.1062    -30003.44   -998.62226    6928.0394    78.460112    17.588971    27.257289 
 5192200    227.93168   -301.28332    263624.46   -28172.419    1844.6281   -30017.047   -607.26909    6923.0023     78.46066    17.586594    27.252018 
 5192400    225.11098   -230.34304    263624.46   -28166.942    1821.8005   -29988.743   -272.04772    6920.3445    78.457985    17.586999    27.257781 
 5192600    224.08075   -383.27035    263624.46   -28222.647    1813.4629    -30036.11   -972.60574    6929.4136    78.455335    17.586053    27.255069 
 5192800    232.05412   -291.90136    263624.46   -28156.429    1877.9906   -30034.419   -561.19924    6923.1416    78.453165    17.586606    27.252658 
 5193000    227.89608   -244.30979    263624.46   -28208.201      1844.34   -30052.541   -328.23602    6924.4758    78.452575    17.584355    27.241951 
 5193200    227.15849   -391.90402    263624.46   -28151.907    1838.3708   -29990.278   -983.61946    6928.5137     78.45042    17.587652    27.250391 
 5193400    226.06472   -220.55211    263624.46   -28206.642     1829.519   -30036.161   -280.45585    6918.1111    78.446119    17.585384    27.251972 
 5193600    225.09419   -424.71831    263624.46   -28121.606    1821.6646   -29943.271   -1154.7661     6928.718     78.44255    17.589237    27.259964 
 5193800    226.55215   -305.61373    263624.46   -28217.058    1833.4638   -30050.522   -606.67098     6924.298      78.4421    17.586943    27.247364 
 5194000    219.68879   -410.89776    263624.46   -28304.457    1777.9193   -30082.376   -1064.5941    6923.4446    78.440928    17.590628    27.260305 
 5194200    226.54379   -307.14977    263624.46   -28240.574    1833.3961    -30073.97    -635.5802    6922.4788     78.43846    17.588785     27.25906 
 5194400    227.63762   -302.59912    263624.46   -28153.214    1842.2483   -29995.462   -588.92435    6922.7745     78.43491    17.588145    27.251727 
 5194600    226.67138   -395.42048    263624.46   -28142.818    1834.4287   -29977.247   -1023.1613    6926.9397    78.433344    17.588217    27.255886 
 5194800    223.20312   -328.60058    263624.46   -28149.155    1806.3604   -29955.516   -725.70382    6927.4729    78.432743     17.58519    27.249111 
 5195000    225.44475   -178.55641    263624.46   -28166.822    1824.5017   -29991.324    -47.14644    6924.7354    78.432041    17.585675    27.250702 
 5195200    230.26706   -307.27405    263624.46   -28151.577    1863.5281   -30015.106   -621.80492    6926.1555    78.431334    17.582787    27.255087 
 5195400    233.77896   -365.71216    263624.46   -28149.117    1891.9496   -30041.066   -873.90613    6926.9099    78.429889    17.582868    27.252728 
 5195600    222.23071   -257.76619    263624.46   -28236.966    1798.4907   -30035.456   -396.58505    6922.1484    78.427165     17.58422    27.260683 
 5195800    229.62322   -404.23047    263624.46   -28089.994    1858.3176   -29948.312   -1129.1296    6936.0293    78.427511    17.584015    27.260925 
 5196000    226.50487   -113.64101    263624.46    -28172.75    1833.0811   -30005.831      257.132     6924.179     78.42698    17.582756     27.24839 
 5196200    225.58868   -355.37938    263624.46   -28159.285    1825.6665   -29984.952   -847.24254    6929.5349    78.427477    17.581831     27.25138 
 5196400    224.29746   -323.88634    263624.46    -28139.27    1815.2167   -29954.486    -724.5892    6927.2588    78.426722    17.579124    27.259733 
 5196600     224.4337    -296.9312    263624.46   -28186.602    1816.3193   -30002.921   -588.66648    6927.2393    78.425491    17.579476     27.24959 
 5196800    229.42447   -473.39693    263624.46   -28152.066    1856.7091   -30008.776   -1356.0705    6932.5434      78.4287    17.580591    27.243125 
 5197000    226.91935   -233.72009    263624.46   -28111.226    1836.4354   -29947.661   -263.12745    6930.5406    78.428748    17.577931    27.261022 
 5197200    225.43577   -417.96644    263624.46   -28169.763     1824.429   -29994.192   -1076.9187    6931.9628    78.433414    17.578511    27.247533 
 5197400    229.72772   -219.87962    263624.46   -28145.588    1859.1633   -30004.751   -180.01122    6924.4366    78.433351    17.574683    27.247568 
 5197600     225.6883    -335.4895    263624.46   -28196.325    1826.4727   -30022.797   -756.01503    6932.6508    78.435411    17.575131    27.252585 
 5197800    217.91152   -316.37605    263624.46   -28256.094     1763.536    -30019.63   -689.81526     6932.422    78.437852    17.571633    27.270175 
 5198000    230.30456   -286.27464    263624.46   -28136.331    1863.8316   -30000.163   -553.44772    6934.4273     78.44152    17.569486    27.278075 
 5198200    225.67182   -209.49044    263624.46   -28134.113    1826.3393   -29960.453   -201.23069    6922.6332    78.440688    17.567891     27.27189 
 5198400    217.20369   -359.64256    263624.46   -28220.884    1757.8076   -29978.692   -884.11211    6931.9577    78.441363    17.565181    27.266373 
 5198600    225.97418   -295.95237    263624.46    -28267.02    1828.7863   -30095.806   -594.14237     6932.148    78.441704     17.56598    27.271042 
 5198800    223.62215   -258.63583    263624.46   -28195.293    1809.7515   -30005.044   -422.08949    6930.2061    78.443799     17.56368    27.263599 
 5199000    234.41333   -260.86574    263624.46   -28119.557    1897.0834    -30016.64   -445.03506    6930.7714    78.445389    17.563158    27.268442 
 5199200      231.009   -346.80915    263624.46   -28173.224    1869.5326   -30042.757   -790.39739    6930.4816    78.445509    17.560762     27.24547 
 5199400    226.87743   -314.24428    263624.46   -28200.701    1836.0962   -30036.797   -613.94426    6926.6505    78.445826    17.559512    27.253472 
 5199600    226.98443   -369.59255    263624.46   -28172.826    1836.9622   -30009.788   -937.89354    6929.1974    78.445703    17.557627    27.257201 
 5199800    227.72533   -311.25895    263624.46   -28152.524    1842.9582   -29995.482    -695.1468    6926.1171    78.446101    17.557292        27.25 
 5200000    229.35751   -400.24498    263624.46   -28158.629    1856.1673   -30014.797   -1052.4095    6931.2322    78.448239    17.551698    27.251902 
Loop time of 17878.1 on 80 procs for 5200000 steps with 9436 atoms

Performance: 251.302 ns/day, 0.096 hours/ns, 290.858 timesteps/s
98.2% CPU use with 80 MPI tasks x no OpenMP threads

MPI task timing breakdown:
Section |  min time  |  avg time  |  max time  |%varavg| %total
---------------------------------------------------------------
Pair    | 0.28859    | 4628       | 15300      |7797.1 | 25.89
Neigh   | 0.46762    | 246.35     | 901.89     |2010.5 |  1.38
Comm    | 13.852     | 6141.9     | 15763      |6732.5 | 34.35
Output  | 177.03     | 177.13     | 179.36     |   1.9 |  0.99
Modify  | 247.66     | 6612.5     | 17626      |8282.1 | 36.99
Other   |            | 72.22      |            |       |  0.40

Nlocal:        117.950 ave         375 max           0 min
Histogram: 34 12 10 4 0 0 0 0 3 17
Nghost:        752.325 ave        1253 max           0 min
Histogram: 12 2 2 1 3 6 23 9 8 14
Neighs:         0.00000 ave           0 max           0 min
Histogram: 80 0 0 0 0 0 0 0 0 0
FullNghs:      11898.2 ave       45291 max           0 min
Histogram: 55 5 0 0 0 0 0 2 4 14

Total # of neighbors = 951856
Ave neighs/atom = 100.87495
Neighbor list builds = 565506
Dangerous builds = 0
write_data 		${DIR}/data.${NAME}_run
write_data 		run_11/data.${NAME}_run
write_data 		run_11/data.ibeam_cooling_11_run
System init for write_data ...
Total wall time: 4:58:32
