
### Dimensions ###


### IMPORT ATOMS ###
read_data ../Box_Setup/data.Ibeam_240K
Reading data file ...
  orthogonal box = (0.0000000 0.0000000 0.0000000) to (157.50400 36.487659 45.872046)
  10 by 2 by 4 MPI processor grid
  reading atoms ...
  9436 atoms
  reading velocities ...
  9436 velocities
  read_data CPU = 0.028 seconds
group water type 2
2716 atoms in group water
group graphite type 1
6720 atoms in group graphite


# Define potential
#
pair_style          sw
pair_coeff * * MLC_e.sw C mW

# Add velocity/set timestep
#

fix		1 graphite setforce 0.0 0.0 0.0
velocity 	graphite set 0.0 0.0 0.0
velocity            water create ${START_TEMP} ${SEED} rot yes dist gaussian
velocity            water create 240 ${SEED} rot yes dist gaussian
velocity            water create 240 17364 rot yes dist gaussian
timestep            5.0

# Define output
#
compute 1 water msd
compute 2 water temp


thermo	            100
thermo_style custom step c_2 press vol etotal ke pe c_1[4] density

# Neighbor lists
#
neigh_modify        delay 0 every 1 check yes


# Set fixes
#
fix                 2 water momentum 10 linear 1 1 1 rescale
fix                 3 all nve
fix                 4 water temp/csvr ${START_TEMP} ${START_TEMP} 500.0 928347
fix                 4 water temp/csvr 240 ${START_TEMP} 500.0 928347
fix                 4 water temp/csvr 240 240 500.0 928347

# Run 0.05 ns equilibration
#
dump                1 all custom 100 ${DIR}/eq.${NAME}.dump id type x y z vx vy vz
dump                1 all custom 100 run_11/eq.${NAME}.dump id type x y z vx vy vz
dump                1 all custom 100 run_11/eq.ibeam_cooling_11.dump id type x y z vx vy vz
run                 10000
Neighbor list info ...
  update every 1 steps, delay 0 steps, check yes
  max neighbors/atom: 2000, page size: 100000
  master list distance cutoff = 6.6747184
  ghost atom cutoff = 6.6747184
  binsize = 3.3373592, bins = 48 11 14
  1 neighbor lists, perpetual/occasional/extra = 1 0 0
  (1) pair sw, perpetual
      attributes: full, newton on
      pair build: full/bin/atomonly
      stencil: full/bin/3d
      bin: standard
Per MPI rank memory allocation (min/avg/max) = 3.597 | 4.372 | 4.790 Mbytes
Step c_2 Press Volume TotEng KinEng PotEng c_1[4] Density 
       0          240   -384.81349    263624.46   -25860.227    1942.2958   -27802.523            0   0.81656126 
     100     235.9334   -244.42156    263624.46   -25856.941    1909.3852   -27766.326   0.81890803   0.81656126 
     200    237.16838    -404.7721    263624.46   -25871.875    1919.3798   -27791.255    1.2221104   0.81656126 
     300    232.21578    -371.6148    263624.46   -25851.834    1879.2989   -27731.133    1.6369275   0.81656126 
     400    237.75575   -300.95329    263624.46   -25833.888    1924.1334   -27758.021    2.0919781   0.81656126 
     500    240.60702   -346.02261    263624.46   -25812.265    1947.2084   -27759.474     2.540314   0.81656126 
     600    236.84848   -241.35193    263624.46   -25720.984    1916.7909   -27637.775    2.9906822   0.81656126 
     700    243.24545    -223.2907    263624.46   -25716.702    1968.5609   -27685.263    3.4144256   0.81656126 
     800    238.27569   -326.82885    263624.46   -25692.577    1928.3411   -27620.918    3.8461753   0.81656126 
     900    244.58845   -205.69429    263624.46   -25737.502    1979.4297   -27716.931    4.3350266   0.81656126 
    1000    237.75657   -241.75834    263624.46   -25778.884      1924.14   -27703.024    4.6961719   0.81656126 
    1100    241.93703   -278.11713    263624.46       -25763     1957.972   -27720.972    5.2267487   0.81656126 
    1200    240.73067   -305.07043    263624.46   -25774.187    1948.2091   -27722.396    5.6096288   0.81656126 
    1300    241.69418   -252.46607    263624.46   -25728.954    1956.0067    -27684.96    5.9952218   0.81656126 
    1400    244.43867   -314.77457    263624.46    -25769.15    1978.2175   -27747.368    6.3426482   0.81656126 
    1500    241.96283   -253.23858    263624.46   -25804.897    1958.1808   -27763.077    6.8051646   0.81656126 
    1600    241.38083   -277.57061    263624.46   -25772.668    1953.4707   -27726.139    7.0993817   0.81656126 
    1700    236.09804   -122.79426    263624.46   -25786.262    1910.7176   -27696.979    7.3738605   0.81656126 
    1800    243.87676   -206.69746    263624.46   -25750.807    1973.6701   -27724.477    7.5402792   0.81656126 
    1900    246.50921   -239.93104    263624.46   -25715.083    1994.9742   -27710.058    8.0012753   0.81656126 
    2000    247.91965   -121.47908    263624.46    -25694.68    2006.3888   -27701.068    8.7031484   0.81656126 
    2100    240.97814   -201.13559    263624.46   -25812.853    1950.2118   -27763.065     9.134415   0.81656126 
    2200    242.78712    -247.0771    263624.46   -25778.827    1964.8517   -27743.679    9.4068848   0.81656126 
    2300    244.81475   -385.26811    263624.46   -25748.138    1981.2612   -27729.399    9.8361576   0.81656126 
    2400    243.90358   -256.88192    263624.46   -25745.795    1973.8871   -27719.682    10.319875   0.81656126 
    2500     239.1521   -339.92197    263624.46   -25789.339    1935.4339   -27724.773    10.690485   0.81656126 
    2600    239.53214    -358.6988    263624.46   -25805.118    1938.5095   -27743.628    11.062618   0.81656126 
    2700    238.83317   -313.09966    263624.46   -25812.313    1932.8528   -27745.166    11.433396   0.81656126 
    2800    235.75985   -93.942365    263624.46   -25755.582    1907.9807   -27663.563    11.719068   0.81656126 
    2900    237.83105   -144.36938    263624.46   -25746.316    1924.7428   -27671.059    12.030966   0.81656126 
    3000    243.77107   -239.33095    263624.46   -25753.353    1972.8147   -27726.168    12.465892   0.81656126 
    3100    238.60742    -359.0664    263624.46   -25738.435    1931.0258   -27669.461    12.845515   0.81656126 
    3200    236.86585   -330.11501    263624.46   -25800.452    1916.9315   -27717.384    13.067539   0.81656126 
    3300    230.59112   -285.03517    263624.46   -25881.234    1866.1507   -27747.385     13.51088   0.81656126 
    3400    238.73177   -208.46132    263624.46   -25822.316    1932.0322   -27754.348    13.860194   0.81656126 
    3500    233.74226    -298.6159    263624.46   -25806.629    1891.6525   -27698.281    14.082877   0.81656126 
    3600    237.49855    -316.6493    263624.46   -25795.754    1922.0519   -27717.806    14.295021   0.81656126 
    3700    243.09766   -195.84195    263624.46   -25758.038    1967.3649   -27725.402    14.703073   0.81656126 
    3800    240.34435   -258.28902    263624.46   -25751.195    1945.0827   -27696.278    15.278072   0.81656126 
    3900    243.61914   -232.49045    263624.46   -25768.312    1971.5852   -27739.898    15.649623   0.81656126 
    4000    238.78442   -377.87006    263624.46   -25826.089    1932.4583   -27758.547    16.114748   0.81656126 
    4100    237.11549   -521.71811    263624.46   -25801.957    1918.9518   -27720.909    16.421825   0.81656126 
    4200    241.12158   -268.03235    263624.46   -25786.045    1951.3727   -27737.417    16.774164   0.81656126 
    4300    233.97285   -149.88112    263624.46   -25856.852    1893.5187   -27750.371    17.053227   0.81656126 
    4400    241.55191   -100.17139    263624.46   -25801.286    1954.8553   -27756.142    17.093841   0.81656126 
    4500    237.03527   -249.34439    263624.46   -25838.334    1918.3025   -27756.637    17.692659   0.81656126 
    4600     237.9306   -211.67299    263624.46   -25898.499    1925.5484   -27824.047    17.995119   0.81656126 
    4700     240.9586   -401.93908    263624.46   -25811.228    1950.0537   -27761.282    18.356661   0.81656126 
    4800    244.90703   -329.99808    263624.46   -25773.276     1982.008   -27755.284    18.849426   0.81656126 
    4900    248.25241   -341.95842    263624.46   -25716.381    2009.0818   -27725.462    19.196051   0.81656126 
    5000    235.13064   -161.69882    263624.46   -25794.608    1902.8886   -27697.497    19.398236   0.81656126 
    5100    236.71601   -303.09902    263624.46   -25755.162    1915.7188    -27670.88    19.541008   0.81656126 
    5200    237.94174   -224.77135    263624.46   -25775.948    1925.6385   -27701.587    19.881814   0.81656126 
    5300    237.27842   -310.16874    263624.46   -25831.401    1920.2704   -27751.672    20.337009   0.81656126 
    5400    235.32505   -191.18887    263624.46   -25817.855    1904.4619   -27722.317    20.531881   0.81656126 
    5500    238.55209   -265.99197    263624.46   -25798.647     1930.578   -27729.225    20.858255   0.81656126 
    5600    236.21345   -355.36401    263624.46   -25827.306    1911.6517   -27738.957    21.096895   0.81656126 
    5700    237.02179   -205.88345    263624.46   -25796.815    1918.1935   -27715.008    21.419303   0.81656126 
    5800    244.24987     -193.693    263624.46   -25769.102    1976.6896   -27745.792    21.753229   0.81656126 
    5900    238.83772   -297.11467    263624.46   -25806.951    1932.8896    -27739.84    22.177506   0.81656126 
    6000    237.86734   -335.05798    263624.46   -25819.681    1925.0364   -27744.717    22.667357   0.81656126 
    6100    238.69974   -397.03613    263624.46    -25848.76     1931.773   -27780.533    23.312452   0.81656126 
    6200     238.4499   -251.65866    263624.46   -25842.255    1929.7511   -27772.006    23.723096   0.81656126 
    6300    239.83085   -180.15409    263624.46    -25800.33    1940.9269   -27741.257    24.133558   0.81656126 
    6400    237.90124   -236.73113    263624.46   -25849.683    1925.3108   -27774.993    24.394022   0.81656126 
    6500    239.99396   -310.40815    263624.46   -25855.906     1942.247   -27798.153    24.998844   0.81656126 
    6600    236.70165   -376.49896    263624.46   -25882.817    1915.6026   -27798.419    25.138737   0.81656126 
    6700    235.05091   -209.87778    263624.46   -25905.888    1902.2434   -27808.131     25.41971   0.81656126 
    6800    235.07962   -285.63771    263624.46   -25878.622    1902.4757   -27781.098    25.815094   0.81656126 
    6900    241.57175   -327.73711    263624.46   -25826.229    1955.0158   -27781.245    25.880795   0.81656126 
    7000     237.8007     -226.144    263624.46   -25815.835    1924.4971   -27740.332    26.160956   0.81656126 
    7100    240.62585   -349.16645    263624.46   -25838.275    1947.3608   -27785.636    26.522551   0.81656126 
    7200    237.91354   -296.03512    263624.46    -25909.36    1925.4103    -27834.77    27.179541   0.81656126 
    7300    233.44559   -446.67064    263624.46   -25957.586    1889.2516   -27846.838    27.709516   0.81656126 
    7400    236.27763   -299.50198    263624.46   -25889.427     1912.171   -27801.598    27.956132   0.81656126 
    7500    240.23086   -210.65209    263624.46   -25848.181    1944.1642   -27792.345    28.045612   0.81656126 
    7600    246.91768   -288.34372    263624.46   -25801.718    1998.2799   -27799.997    28.588277   0.81656126 
    7700     235.3944   -265.21752    263624.46   -25849.065    1905.0232   -27754.088    29.029213   0.81656126 
    7800    234.13782   -278.06251    263624.46    -25901.53    1894.8538   -27796.384    29.165949   0.81656126 
    7900    239.90766   -217.81713    263624.46   -25856.238    1941.5485   -27797.787    29.597252   0.81656126 
    8000    242.80285   -317.01114    263624.46   -25783.845     1964.979   -27748.824     29.92264   0.81656126 
    8100    239.49081   -252.68775    263624.46   -25751.495     1938.175    -27689.67    30.001939   0.81656126 
    8200    241.30215   -427.15971    263624.46   -25742.599     1952.834   -27695.433    30.364352   0.81656126 
    8300    243.88463    -158.4081    263624.46   -25705.968    1973.7338   -27679.702    30.603266   0.81656126 
    8400    245.24045   -323.65252    263624.46   -25702.843    1984.7063    -27687.55    30.670884   0.81656126 
    8500    236.00012   -302.59008    263624.46   -25731.126    1909.9252   -27641.051     31.12394   0.81656126 
    8600    242.95494   -304.56441    263624.46   -25726.409    1966.2098   -27692.618    31.548572   0.81656126 
    8700    240.14907   -179.86917    263624.46   -25752.663    1943.5023   -27696.165    31.897717   0.81656126 
    8800    236.76656   -209.69908    263624.46    -25751.25     1916.128   -27667.378    32.377453   0.81656126 
    8900    233.58609   -322.46362    263624.46   -25783.013    1890.3887   -27673.402    32.627958   0.81656126 
    9000    241.68312   -281.34883    263624.46   -25750.456    1955.9172   -27706.373    32.624611   0.81656126 
    9100    239.52174   -152.40169    263624.46   -25771.968    1938.4253   -27710.393    32.899136   0.81656126 
    9200    246.25221   -226.17337    263624.46   -25726.088    1992.8943   -27718.982    33.264146   0.81656126 
    9300    235.08735   -337.36043    263624.46   -25798.548    1902.5382   -27701.087    33.384522   0.81656126 
    9400    238.81799   -330.96646    263624.46   -25768.121      1932.73   -27700.851      33.8332   0.81656126 
    9500    237.54987   -160.86841    263624.46   -25787.281    1922.4672   -27709.749    34.328278   0.81656126 
    9600    237.49817    -402.4588    263624.46   -25793.981    1922.0488    -27716.03    35.051989   0.81656126 
    9700    237.67892   -272.66732    263624.46   -25762.173    1923.5116   -27685.685    35.314911   0.81656126 
    9800    242.79085   -314.37438    263624.46   -25707.467    1964.8819   -27672.349    35.773443   0.81656126 
    9900    247.66412   -196.14376    263624.46   -25729.924    2004.3207   -27734.245    36.431399   0.81656126 
   10000     242.9294   -296.32165    263624.46   -25747.346    1966.0032    -27713.35    36.854826   0.81656126 
Loop time of 33.8342 on 80 procs for 10000 steps with 9436 atoms

Performance: 127.682 ns/day, 0.188 hours/ns, 295.559 timesteps/s
97.9% CPU use with 80 MPI tasks x no OpenMP threads

MPI task timing breakdown:
Section |  min time  |  avg time  |  max time  |%varavg| %total
---------------------------------------------------------------
Pair    | 0.00054502 | 7.8447     | 29.156     | 373.1 | 23.19
Neigh   | 0.00049973 | 0.25026    | 0.93032    |  63.0 |  0.74
Comm    | 0.013276   | 10.192     | 30.905     | 348.1 | 30.12
Output  | 0.17298    | 0.1732     | 0.18034    |   0.2 |  0.51
Modify  | 0.58937    | 15.224     | 33.528     | 382.5 | 45.00
Other   |            | 0.1492     |            |       |  0.44

Nlocal:        117.950 ave         369 max           0 min
Histogram: 36 1 18 5 0 0 0 0 2 18
Nghost:        753.663 ave        1258 max           0 min
Histogram: 12 0 0 4 0 22 18 0 8 16
Neighs:         0.00000 ave           0 max           0 min
Histogram: 80 0 0 0 0 0 0 0 0 0
FullNghs:      11557.2 ave       44931 max           0 min
Histogram: 48 12 0 0 0 0 0 2 9 9

Total # of neighbors = 924580
Ave neighs/atom = 97.984315
Neighbor list builds = 586
Dangerous builds = 0
write_data 	    ${DIR}/data.${NAME}_eq
write_data 	    run_11/data.${NAME}_eq
write_data 	    run_11/data.ibeam_cooling_11_eq
System init for write_data ...

undump              1
unfix               4



################################################
#######         Run Simulation         #########
################################################

reset_timestep      0
timestep	    10.0
log                 ${DIR}/log.run_${NAME}
log                 run_11/log.run_${NAME}
log                 run_11/log.run_ibeam_cooling_11
