
# Set production fixes - Nose/Hoover
#
fix                 4 water temp/csvr ${START_TEMP} ${END_TEMP} 500.0 928347
fix                 4 water temp/csvr 240 ${END_TEMP} 500.0 928347
fix                 4 water temp/csvr 240 227 500.0 928347


## divide "droplet" into core and surface
#region		core_reg cylinder z 135 135 44.6 20 INF units box
#region		surface_reg cylinder z 135 135 44.6 20 INF units box side out
#group		core dynamic all region core_reg
#group		surface dynamic all region surface_reg

## compute pressure core
#compute        peratom_core core stress/atom NULL
#compute        p_core core reduce sum c_peratom_core[1] c_peratom_core[2] c_peratom_core[3]
#variable       press_core equal -(c_p_core[1]+c_p_core[2]+c_p_core[3])/(3*1249982.5)


## compute pressure surface
#compute        peratom_surf surface stress/atom NULL
#compute        p_surf surface reduce sum c_peratom_surf[1] c_peratom_surf[2] #c_peratom_surf[3]
#variable       press_surf equal -(c_p_surf[1]+c_p_surf[2]+c_p_surf[3])/(3*42395)

## compute total pressure of drop
compute        peratom water stress/atom NULL
compute        p water reduce sum c_peratom[1] c_peratom[2] c_peratom[3]
variable       press equal -(c_p[1]+c_p[2]+c_p[3])/(3*50320)


# compute order parameter
compute        3 all orientorder/atom nnn NULL cutoff 3.5

# compute center of mass of bridge
compute 	4 water com

# Run simulation
thermo_style        custom step c_2 press vol etotal ke pe v_press c_1[4] c_4[*]
thermo              200
dump		     1 water custom 400 ${DIR}/prod.${NAME}.dump id type x y z vx vy vz c_3[*] c_peratom[*]
dump		     1 water custom 400 run_27/prod.${NAME}.dump id type x y z vx vy vz c_3[*] c_peratom[*]
dump		     1 water custom 400 run_27/prod.ibeam_cooling_27.dump id type x y z vx vy vz c_3[*] c_peratom[*]
run                 ${STEPS}
run                 5200000
Neighbor list info ...
  update every 1 steps, delay 0 steps, check yes
  max neighbors/atom: 2000, page size: 100000
  master list distance cutoff = 6.67472
  ghost atom cutoff = 6.67472
  binsize = 3.33736, bins = 48 13 11
  2 neighbor lists, perpetual/occasional/extra = 1 1 0
  (1) pair sw, perpetual
      attributes: full, newton on
      pair build: full/bin/atomonly
      stencil: full/bin/3d
      bin: standard
  (2) compute orientorder/atom, occasional, copy from (1)
      attributes: full, newton on
      pair build: copy
      stencil: none
      bin: none
Per MPI rank memory allocation (min/avg/max) = 0.8535 | 5.973 | 7.262 Mbytes
Step c_2 Press Volume TotEng KinEng PotEng v_press c_1[4] c_4[1] c_4[2] c_4[3] 
       0    237.25329   -279.33605    216009.12   -18609.859    1379.7609    -19989.62    -636.1521    34.135748    78.755579    22.595715    25.461988 
     200     238.3931   -263.62223    216009.12    -18667.09    1386.3895   -20053.479   -481.75299    35.251814    78.754883    22.595948    25.459613 
     400     243.4323   -459.58426    216009.12   -18642.362    1415.6952   -20058.057   -1351.2217    36.515161    78.753835    22.593534    25.439101 
     600    248.41403   -285.68655    216009.12   -18541.023    1444.6668   -19985.689   -674.11555    38.056985     78.75362     22.59286      25.4457 
     800    248.38501   -425.30978    216009.12   -18532.814     1444.498   -19977.312   -1254.7202    39.503722    78.753366    22.591963    25.437003 
    1000    240.53985   -423.16613    216009.12   -18674.848     1398.874   -20073.722   -1271.6724    40.766686    78.753167    22.589531    25.432761 
    1200    242.35375   -391.68319    216009.12   -18615.533    1409.4229   -20024.956   -1100.9515    42.069627    78.752003    22.588263    25.445313 
    1400    238.95361   -194.01146    216009.12   -18580.474    1389.6492   -19970.123   -279.34635    42.938323    78.752538    22.589607     25.43198 
    1600    236.21072    -360.6497    216009.12   -18584.613    1373.6977   -19958.311   -976.50348    44.521908    78.752821    22.589805    25.469779 
    1800    240.89274    -466.9679    216009.12   -18552.879    1400.9263   -19953.805   -1384.7911    45.856002    78.753572    22.589938      25.4861 
    2000     243.2368   -231.23142    216009.12   -18489.053    1414.5583   -19903.612   -442.30422    47.080311    78.755934    22.592043    25.478092 
    2200     238.5387   -326.47598    216009.12    -18553.28    1387.2362   -19940.517   -839.76534    49.147565    78.755518    22.590982    25.463555 
    2400    240.51853   -319.84428    216009.12   -18535.848      1398.75   -19934.598   -788.69918    50.518146     78.75515    22.589959     25.48509 
    2600     241.2971   -380.66747    216009.12   -18584.213    1403.2778   -19987.491   -1046.6391    52.609338    78.754816    22.590605    25.490195 
    2800    244.98456   -365.85324    216009.12   -18519.447    1424.7225   -19944.169   -1016.5863    54.445046    78.753437    22.590274    25.492527 
    3000    249.93564   -186.82614    216009.12    -18536.02    1453.5158   -19989.536   -245.40747    55.149008     78.75409    22.591554    25.487771 
    3200    243.73396   -290.78697    216009.12   -18640.212    1417.4496   -20057.662   -648.30971     55.67185    78.753932    22.589877    25.496729 
    3400    241.94776   -239.36831    216009.12    -18608.55    1407.0618   -20015.612    -452.9086    56.415766    78.754131    22.589453    25.507489 
    3600    239.55339   -134.31559    216009.12   -18562.553    1393.1372   -19955.691   -5.9020633    58.523798    78.752177    22.590773     25.48073 
    3800    242.26527   -488.64278    216009.12   -18524.381    1408.9083   -19933.289   -1495.7434     60.05032    78.750004    22.588905    25.478869 
    4000    242.72821   -461.56479    216009.12   -18605.816    1411.6006   -20017.416   -1357.9981    61.136719    78.749528    22.588413    25.464983 
    4200    244.10838    -265.1764    216009.12   -18590.728     1419.627   -20010.355   -555.14498    62.327609    78.749122     22.58802    25.461953 
    4400    238.08029    -404.6028    216009.12   -18595.361    1384.5703   -19979.931   -1173.2551     64.35782    78.749392     22.58396    25.445454 
    4600    235.84327   -316.78003    216009.12   -18667.604    1371.5608   -20039.165   -792.36931    64.944078    78.748554     22.58437    25.440127 
    4800    245.15139     -296.022    216009.12   -18548.903    1425.6927   -19974.595   -736.54965     66.67349    78.749822    22.582527    25.414354 
    5000    236.60493   -229.12421    216009.12   -18594.968    1375.9903   -19970.958   -386.22594    67.383274    78.748809    22.580971    25.417546 
    5200     236.9035   -427.82768    216009.12   -18614.013    1377.7266    -19991.74    -1243.224    69.652407      78.7477    22.580204    25.396176 
    5400    233.54444   -322.60938    216009.12   -18638.356    1358.1918   -19996.548   -789.26073     70.90688    78.747996    22.581129     25.39901 
    5600    235.41429    -282.6467    216009.12   -18665.686     1369.066   -20034.752   -649.63282     73.61899    78.747146    22.579807    25.413171 
    5800    240.34191   -257.50331    216009.12   -18567.088    1397.7229   -19964.811    -575.8412    74.635555     78.74601    22.580445    25.425718 
    6000    235.17625   -405.67754    216009.12   -18619.326    1367.6817   -19987.008   -1167.8351     75.96401    78.747208    22.581002    25.411267 
    6200     234.4999   -235.84461    216009.12   -18634.514    1363.7484   -19998.262   -412.33464    76.345177    78.747934    22.586108    25.404671 
    6400    242.00359   -188.06515    216009.12   -18615.898    1407.3865   -20023.285    -244.5039    77.493785    78.748133    22.586908    25.423235 
    6600    232.82036   -342.35973    216009.12   -18668.807    1353.9808   -20022.788   -880.83324    78.087227    78.749491    22.588855    25.407889 
    6800    241.64442    -479.2101    216009.12   -18666.452    1405.2977    -20071.75   -1489.1321    79.277556    78.751583    22.589808    25.393144 
    7000    239.57699   -207.63478    216009.12   -18584.751    1393.2745   -19978.026   -263.67299    81.657516    78.747654    22.591416    25.396065 
    7200     233.6786    -439.7098    216009.12   -18646.057     1358.972   -20005.029   -1269.1667    83.202882    78.744812    22.592258    25.368731 
    7400    237.39643   -243.24939    216009.12   -18616.968    1380.5933   -19997.561   -468.79922    85.036417    78.745732    22.591449    25.352097 
    7600    244.19805    -296.2617    216009.12   -18567.211    1420.1485    -19987.36   -699.27979    85.884211    78.745214    22.593764    25.320364 
    7800    233.03426   -410.82971    216009.12    -18654.82    1355.2248   -20010.045   -1155.8093    87.003666    78.746959    22.593288    25.296204 
    8000    242.59669   -461.28164    216009.12   -18553.437    1410.8357   -19964.273   -1391.1201    88.396599    78.747181    22.593088    25.295936 
    8200    239.48913   -200.08959    216009.12   -18552.932    1392.7635   -19945.696   -279.91743    90.114298    78.746268    22.593118    25.313232 
    8400    239.86909   -486.30606    216009.12   -18463.257    1394.9732    -19858.23   -1496.4149    92.793797    78.747407    22.594091    25.328299 
    8600     240.8828   -265.99276    216009.12   -18543.362    1400.8685   -19944.231   -542.54394    95.388665    78.748989     22.59749    25.301561 
    8800    241.25224   -259.01793    216009.12   -18548.838     1403.017   -19951.855   -512.98714    98.086896    78.750207     22.59962    25.299679 
    9000    240.34187   -435.49856    216009.12   -18570.241    1397.7227   -19967.964   -1288.0199    101.14635    78.749067    22.598269    25.300109 
    9200    242.70035   -276.61944    216009.12   -18553.603    1411.4385   -19965.042   -642.28059    102.17718    78.746483    22.599497    25.297549 
    9400    237.63534   -277.66846    216009.12   -18549.925    1381.9827   -19931.908   -602.45199    104.22427     78.74624    22.598629    25.297945 
    9600    238.47741    -421.0268    216009.12   -18592.977    1386.8798   -19979.857    -1198.081    106.19181    78.744152    22.600205    25.332955 
    9800    245.90666   -194.29695    216009.12   -18508.561     1430.085   -19938.646    -257.9514    107.09914    78.744117    22.601009    25.345426 
   10000    235.65681   -332.70992    216009.12   -18568.846    1370.4764   -19939.322   -824.65282    109.32837    78.744838    22.599814      25.3498 
   10200    242.52247   -291.66955    216009.12   -18527.501    1410.4041   -19937.905   -732.30257    110.88713    78.746412    22.599739    25.369003 
   10400    244.23195   -350.12079    216009.12   -18522.649    1420.3457   -19942.994   -910.02776    111.79601    78.748291    22.596929    25.393158 
   10600    231.89477   -265.31494    216009.12   -18606.422    1348.5981    -19955.02   -521.34579    113.79423    78.749127    22.595841    25.384843 
   10800    238.58264    -369.8952    216009.12    -18647.84    1387.4918   -20035.331   -1023.4577    116.08448    78.749659    22.596383    25.396843 
   11000    235.82787   -372.56482    216009.12   -18653.653    1371.4712   -20025.125   -1006.4425    118.19916    78.750965    22.595728    25.387735 
   11200     233.5486   -328.04296    216009.12   -18634.442     1358.216   -19992.658   -835.48694    118.57841    78.747986     22.59461     25.35228 
   11400    237.85821   -338.33248    216009.12   -18598.313    1383.2788   -19981.592   -829.88632    119.16632    78.745921    22.593131    25.345116 
   11600     236.5711    -467.3968    216009.12   -18549.212    1375.7935   -19925.006   -1412.1409    120.36887    78.743092    22.593298    25.336142 
   11800    243.74287   -244.02185    216009.12   -18552.357    1417.5014   -19969.858   -446.53161    121.32207    78.740479    22.592414    25.361794 
   12000    242.68159   -323.99495    216009.12   -18539.218    1411.3294   -19950.547   -839.01564    121.46227    78.738175    22.591295    25.382553 
   12200      245.026   -615.96207    216009.12   -18569.705    1424.9635   -19994.669   -2011.6307    121.90009    78.740394    22.590188    25.396489 
   12400    239.60311   -318.88817    216009.12   -18617.166    1393.4264   -20010.592   -772.75303    123.39042    78.738375    22.586977    25.392343 
   12600    240.94315   -363.53102    216009.12   -18546.925    1401.2194   -19948.144    -968.4519    123.15455     78.74022    22.583436    25.414563 
   12800    242.47973   -281.90113    216009.12   -18562.447    1410.1555   -19972.602    -585.8897    123.20006    78.741498    22.581583     25.41894 
   13000    236.79289     -464.407    216009.12   -18594.997    1377.0834    -19972.08   -1384.8689    125.17941    78.743575    22.582964    25.421313 
   13200    236.01471   -274.82733    216009.12   -18605.684    1372.5578   -19978.242    -607.4191    125.48694    78.744097    22.582333    25.442784 
   13400    233.05806   -213.38554    216009.12   -18667.886    1355.3632   -20023.249     -337.367    127.64053    78.744435      22.5825     25.44257 
   13600    234.97855   -275.00683    216009.12   -18637.551    1366.5319   -20004.083   -572.86012    127.93772    78.742573    22.582754    25.430307 
   13800    237.37736   -371.53864    216009.12    -18573.15    1380.4824   -19953.632   -975.15148    129.57452    78.741811    22.584109    25.431421 
   14000     246.2095   -211.86216    216009.12   -18515.345    1431.8462   -19947.191   -329.84235     129.9406      78.7421    22.584383    25.434214 
   14200    241.23107   -276.27126    216009.12   -18573.779    1402.8938   -19976.673   -671.96641    131.03156    78.740253     22.58532    25.418654 
   14400    236.53794   -358.74349    216009.12   -18599.195    1375.6007   -19974.795   -944.12713    133.53346    78.739732     22.58494    25.429147 
   14600     236.7283   -343.83213    216009.12   -18565.421    1376.7077   -19942.129   -866.05397    135.23475    78.739988    22.582733    25.461168 
   14800    245.72237   -392.91668    216009.12   -18529.494    1429.0133   -19958.507   -1116.0747    137.03522    78.741856    22.584347    25.456389 
   15000    240.97641   -272.44832    216009.12   -18548.904    1401.4129   -19950.317   -580.70063    139.23722    78.741805    22.583283    25.476197 
   15200    245.71925   -251.90495    216009.12   -18538.301    1428.9952   -19967.296   -491.93386    141.73041    78.740105    22.582717    25.490808 
   15400    239.05748   -162.73424    216009.12   -18601.598    1390.2532   -19991.851   -112.62282    142.77672    78.738083    22.582293    25.466737 
   15600    250.62783   -328.75333    216009.12   -18463.449    1457.5413   -19920.991    -860.6363    145.04351    78.734834    22.583953    25.462966 
   15800     244.1986   -305.82367    216009.12   -18496.947    1420.1517   -19917.099   -733.23286    146.65125    78.738242    22.584881    25.485882 
   16000    243.09396   -245.08982    216009.12    -18564.39    1413.7276   -19978.118    -504.5379    148.24782     78.73838    22.584466    25.461846 
   16200    240.14591   -322.66401    216009.12   -18557.445     1396.583   -19954.028   -830.67571    150.98382    78.737918     22.58532    25.436051 
   16400    244.60034   -193.48681    216009.12   -18584.959    1422.4881   -20007.448    -283.4957    151.47759    78.736658    22.586604    25.427664 
   16600    242.10236   -375.62492    216009.12   -18510.761    1407.9609   -19918.722   -1042.6944     154.4636    78.736097    22.585494    25.426051 
   16800    233.78306   -241.78433    216009.12   -18546.871    1359.5795   -19906.451   -492.43817    156.75689    78.734351    22.585222    25.444912 
   17000    237.60212   -402.62622    216009.12   -18584.724    1381.7895   -19966.513   -1111.1721     158.2528    78.733301    22.583295    25.424982 
   17200    241.67753   -350.06062    216009.12    -18607.05    1405.4903    -20012.54   -944.70672     159.3448    78.731335    22.582241    25.417956 
   17400    234.37395    -411.8072    216009.12   -18681.586    1363.0159   -20044.601   -1187.5198    162.56373    78.728474     22.58236    25.419594 
   17600    234.05494   -260.95481    216009.12   -18648.508    1361.1607   -20009.668   -497.91345    164.85815    78.730203    22.579411    25.441973 
   17800     235.5549    -244.4796    216009.12    -18638.71    1369.8838   -20008.594   -457.88124    165.62273    78.731356    22.578437    25.436081 
   18000    241.73381   -323.84629    216009.12   -18584.874    1405.8176   -19990.691   -825.88356    166.68541    78.730774    22.578757    25.396428 
   18200    243.68132   -451.56811    216009.12    -18612.45    1417.1434   -20029.593   -1364.9331    167.24226    78.732964    22.581612    25.390995 
   18400    240.48778   -272.12469    216009.12    -18624.53    1398.5712   -20023.101    -613.0293    167.48023    78.730427    22.583365    25.376216 
   18600     243.5203   -336.49519    216009.12   -18599.747     1416.207   -20015.954    -826.1732    168.27396    78.730091    22.581291    25.380646 
   18800    245.60027   -284.35936    216009.12   -18702.841    1428.3032   -20131.144   -617.59695    169.00024    78.731495    22.579795    25.390531 
   19000    239.32968   -256.46442    216009.12   -18622.125    1391.8362   -20013.961   -506.64116    170.25048    78.730563    22.578052    25.401441 
   19200    246.47994    -319.5426    216009.12   -18617.709     1433.419   -20051.128   -754.07549    170.45987    78.730364    22.575912    25.408483 
   19400    239.71788   -190.10413    216009.12   -18576.038    1394.0938   -19970.132   -266.27457    170.51554    78.729615    22.576426    25.438277 
   19600     237.8155   -302.76285    216009.12   -18563.347    1383.0304   -19946.377   -701.19382    172.51892     78.73072    22.575251    25.420942 
   19800     240.7111   -126.13107    216009.12    -18565.38      1399.87    -19965.25    4.6050759    173.83149    78.732852     22.57627    25.448036 
   20000    243.60076   -272.20875    216009.12   -18563.192     1416.675   -19979.867   -591.80371    175.51608    78.730524    22.576419    25.462572 
   20200    237.15785   -216.92936    216009.12   -18652.499    1379.2058   -20031.705   -348.88624    177.02571    78.730322    22.577659    25.450451 
   20400    241.62798   -347.38328    216009.12   -18579.724    1405.2021   -19984.926   -942.89084    178.34313    78.731084    22.580609    25.476565 
   20600    234.33526   -338.91804    216009.12   -18678.306    1362.7908   -20041.097   -872.76651    180.11093    78.728546    22.582957     25.46233 
   20800    245.59204   -337.67245    216009.12   -18605.897    1428.2554   -20034.152   -881.34645     181.0049    78.729326    22.587208    25.463734 
   21000     241.8525   -284.81781    216009.12   -18645.616    1406.5078   -20052.124   -652.04175    180.75923    78.727033    22.590625    25.441351 
   21200    245.31744   -335.21553    216009.12   -18610.494    1426.6584   -20037.152   -868.96081    182.71699     78.72616    22.589061    25.429286 
   21400    235.75339   -485.50851    216009.12   -18591.917    1371.0381   -19962.955   -1506.0597    185.66892    78.721797    22.588352    25.426206 
   21600      250.255   -441.29919    216009.12   -18484.892    1455.3731   -19940.265   -1317.9229    185.99553    78.723447     22.58805    25.425549 
   21800    235.79105   -472.12892    216009.12   -18603.867    1371.2571   -19975.124   -1431.5837    185.70451    78.722625    22.587247    25.425318 
   22000    237.55467   -313.48636    216009.12   -18638.084    1381.5136   -20019.597   -794.74313    186.76529    78.722154    22.589681    25.410466 
   22200    234.34748   -214.57958    216009.12   -18666.421    1362.8619   -20029.283   -356.57917    188.00421    78.719256    22.590633    25.434687 
   22400    238.66687   -343.04998    216009.12   -18534.953    1387.9816   -19922.934   -871.05819    190.55198    78.717768    22.592203    25.447276 
   22600    246.40893   -248.31442    216009.12   -18531.102     1433.006   -19964.108   -458.53163    191.83718    78.714786    22.590605    25.447141 
   22800    239.86437   -303.27097    216009.12   -18495.188    1394.9457   -19890.134   -727.04958    193.02296    78.716835    22.592333    25.440334 
   23000    238.77466   -336.84686    216009.12   -18571.043    1388.6085   -19959.652   -831.89048     194.2772     78.71702    22.592128    25.437486 
   23200    240.39543   -350.94714    216009.12    -18515.96    1398.0341   -19913.994   -895.25703    195.40268    78.716847     22.59236     25.43783 
   23400    235.26096   -258.01539    216009.12   -18512.073    1368.1743   -19880.248   -499.17443    196.11767    78.715849    22.593258    25.439952 
   23600    242.99773   -247.16919    216009.12   -18488.438     1413.168   -19901.606   -495.38222    196.93607    78.716601    22.593316    25.410608 
   23800    247.70074   -311.65136    216009.12   -18529.247    1440.5186   -19969.765    -750.0258    198.75898    78.715675    22.591277     25.39843 
   24000    240.20944     -296.022    216009.12   -18598.886    1396.9525   -19995.838   -669.00937    200.04278    78.718411    22.591373    25.380292 
   24200    244.69618   -210.58035    216009.12   -18618.993    1423.0454   -20042.039   -348.83195    201.27861    78.717345    22.592597    25.393941 
   24400    233.77492    -257.1904    216009.12   -18677.626    1359.5322   -20037.158   -518.68873    202.13665    78.719315    22.594665    25.387212 
   24600    234.98545   -63.826119    216009.12   -18680.325    1366.5721   -20046.897    297.22103    203.85717    78.718548    22.593605    25.404469 
   24800    235.64222   -292.36174    216009.12   -18663.089    1370.3916   -20033.481   -659.49442    204.38544    78.718576    22.594713    25.425632 
   25000    241.27667   -271.59412    216009.12   -18631.671     1403.159    -20034.83   -563.83282    205.35613    78.719836    22.594546    25.411492 
   25200    235.00892   -162.55187    216009.12   -18729.711    1366.7086   -20096.419    -119.5092    206.11818    78.720928    22.594697    25.392806 
   25400    242.59795   -315.08913    216009.12   -18611.263     1410.843   -20022.106   -697.92156    208.54834    78.721282    22.593035    25.388981 
   25600    252.10866   -332.69088    216009.12   -18503.491    1466.1532   -19969.644   -863.90225    210.28661    78.722768    22.592654    25.376941 
   25800    248.20241     -363.813    216009.12   -18553.894    1443.4361    -19997.33   -968.05726    211.68504    78.724426    22.594112    25.371625 
   26000    244.53787   -260.89086    216009.12   -18610.743    1422.1247   -20032.868   -558.11799    212.41354    78.721897    22.594702    25.360194 
   26200    232.16915   -389.78023    216009.12   -18599.123    1350.1937   -19949.317   -1025.9603    216.50592    78.722574    22.597286    25.351062 
   26400    232.70733   -274.11419    216009.12   -18630.623    1353.3235   -19983.947   -557.22023    217.66585    78.722498    22.598032    25.363605 
   26600    246.02064   -425.24399    216009.12   -18542.286    1430.7479   -19973.034   -1243.3296    219.03005    78.724459    22.598951    25.375246 
   26800    245.57143    -241.4643    216009.12   -18574.577    1428.1355   -20002.712   -410.63392    220.43831    78.724429    22.602794    25.375217 
   27000    246.15693   -271.09621    216009.12   -18519.209    1431.5405   -19950.749    -584.3118    221.43507    78.726641     22.60254    25.408707 
   27200    245.14488   -349.18573    216009.12   -18559.189    1425.6549   -19984.844   -900.88715    223.09634    78.728303    22.603373    25.401336 
   27400    241.23541   -308.60934    216009.12   -18510.375    1402.9191   -19913.294   -706.03749    223.71875    78.728019    22.604255    25.378101 
   27600     229.3451   -369.56069    216009.12   -18637.233    1333.7703   -19971.003   -980.93024    225.58402    78.726086    22.605653     25.36613 
   27800    237.51343   -188.64683    216009.12   -18526.654    1381.2737   -19907.928   -241.94233    227.33045    78.726216    22.604262    25.349771 
   28000    233.58646   -332.40297    216009.12   -18633.258    1358.4362   -19991.695   -835.69463    227.85325     78.72771     22.60456    25.335409 
   28200    238.16804   -232.93464    216009.12   -18592.663    1385.0806   -19977.743   -428.85653     228.4215    78.728761    22.606994    25.338945 
   28400    238.55922   -417.37452    216009.12   -18574.404    1387.3555    -19961.76   -1179.6628    231.20217    78.731132    22.609503    25.339152 
   28600    241.90308   -255.14888    216009.12   -18594.044     1406.802   -20000.846   -508.08995    233.57777    78.731448    22.610154    25.321324 
   28800    236.04157   -285.11826    216009.12   -18623.038     1372.714   -19995.752   -657.67648    234.96395    78.731446     22.60867    25.324793 
   29000     239.9801   -399.95237    216009.12   -18608.897    1395.6187   -20004.516   -1116.9376    235.96912    78.732207    22.606795    25.319151 
   29200    245.25406   -310.70597    216009.12   -18580.178    1426.2898   -20006.468   -754.54048    237.72847    78.733844    22.606704    25.314518 
   29400    235.84882   -470.49931    216009.12   -18607.388     1371.593   -19978.981   -1420.3512    238.96387    78.734644    22.605414    25.340072 
   29600     239.6895   -246.64209    216009.12   -18594.184    1393.9288   -19988.112   -529.34885    240.24787    78.735427    22.604627    25.332487 
   29800    238.30367   -364.90992    216009.12   -18647.794    1385.8694   -20033.664   -980.97603    243.13962    78.733805    22.603446    25.315031 
   30000    232.65663   -374.69737    216009.12   -18679.363    1353.0287   -20032.392   -998.30648    244.92943    78.734783    22.602004    25.344645 
   30200    236.26132   -282.25585    216009.12   -18658.493     1373.992   -20032.485   -651.90143    244.89857    78.735025    22.600691    25.312222 
   30400    240.54304   -300.19136    216009.12   -18653.164    1398.8926   -20052.056   -718.58437    245.43988    78.734337    22.599873    25.307947 
   30600    234.21229   -197.63302    216009.12    -18680.73    1362.0757   -20042.806   -273.58233    247.49326    78.731642    22.599307    25.335461 
   30800    236.20036   -277.22472    216009.12   -18646.926    1373.6375   -20020.564   -607.19188    248.53433    78.731941    22.600327    25.311052 
   31000    241.47607   -403.82043    216009.12   -18640.498    1404.3187   -20044.817   -1139.3064      248.523    78.730974    22.598445    25.320287 
   31200    240.10333   -200.58441    216009.12   -18638.867    1396.3354   -20035.202   -227.06889    248.29917    78.727983    22.599596    25.322413 
   31400    241.99234   -402.31407    216009.12   -18587.596    1407.3211   -19994.917   -1086.1805    249.93348    78.725847    22.600971    25.337411 
   31600    237.47252   -584.70045    216009.12     -18642.2    1381.0358   -20023.236   -1938.5269    252.64342    78.725314    22.602243    25.320171 
   31800    242.69088   -258.90214    216009.12   -18599.456    1411.3834   -20010.839   -523.97503    251.88546    78.722108    22.603949    25.299362 
   32000    236.01251   -337.22216    216009.12   -18733.676     1372.545   -20106.221   -841.97322    253.96747    78.721902    22.605625    25.289315 
   32200    236.26376   -381.59005    216009.12   -18728.898    1374.0061   -20102.905   -1056.9228    255.12786    78.722742    22.605998    25.291687 
   32400    231.62816   -360.78404    216009.12   -18705.961    1347.0476   -20053.009   -938.48864    255.56888    78.725036    22.606645    25.300318 
   32600     241.5336   -329.78934    216009.12   -18636.311    1404.6532   -20040.964   -822.94473    256.93917    78.727335    22.606321    25.337288 
   32800    241.62833   -308.59585    216009.12   -18633.291    1405.2041   -20038.495    -730.1573    256.64963    78.726796    22.607269    25.338227 
   33000    245.82058   -336.37036    216009.12   -18614.912    1429.5845   -20044.496   -866.81314    258.68223     78.72505    22.605334    25.324523 
   33200    242.75294   -276.80628    216009.12   -18653.134    1411.7444   -20064.878   -622.25201    258.88216    78.725539    22.604319    25.334286 
   33400    235.40323   -272.81435    216009.12   -18697.342    1369.0017   -20066.344   -604.77621    260.16487    78.726286    22.605746    25.355079 
   33600     241.1016   -244.82893    216009.12   -18688.654    1402.1409   -20090.795    -477.4974    259.31761    78.725372    22.606656    25.342286 
   33800    243.12754    -243.5518    216009.12   -18558.537    1413.9229    -19972.46   -467.01155     260.3735    78.724555    22.609658    25.381862 
   34000     235.5551   -247.31536    216009.12   -18682.894    1369.8849   -20052.779   -476.31917    262.05852    78.724549    22.611208    25.382242 
   34200    241.59693   -375.98432    216009.12   -18657.516    1405.0216   -20062.538   -1022.7179     264.1446    78.723179    22.612842    25.378921 
   34400    241.17809   -336.32503    216009.12   -18668.766    1402.5858   -20071.352   -873.92937    263.64471    78.722859    22.614894    25.413423 
   34600    246.97668   -175.08719    216009.12   -18550.387    1436.3078   -19986.695    -100.5391    264.81821    78.723318    22.614854    25.443226 
   34800    236.47981   -116.05502    216009.12   -18620.471    1375.2626   -19995.734    100.97253    265.73272    78.721982    22.612728    25.422637 
   35000    238.67537   -402.14965    216009.12   -18653.149    1388.0311    -20041.18   -1106.9211    267.97039    78.720817    22.610668    25.419982 
   35200    244.79067   -221.31816    216009.12   -18602.856    1423.5949   -20026.451   -346.20876    268.69529    78.719882    22.611325    25.429079 
   35400     246.7302    -399.6496    216009.12   -18628.017    1434.8744   -20062.892   -1165.2379    270.09606    78.719614    22.611571    25.443136 
   35600    238.56301   -322.35353    216009.12   -18622.575    1387.3776   -20009.952   -785.85007    269.77626    78.720895    22.613776    25.427976 
   35800    237.19309   -466.97393    216009.12   -18522.984    1379.4108   -19902.395   -1420.1041    271.95692    78.720206    22.614336    25.445893 
   36000    231.27395   -197.33427    216009.12   -18601.976    1344.9876   -19946.964   -285.48421    272.08458    78.721346    22.615216    25.437834 
   36200    237.05773   -349.05466    216009.12   -18601.059    1378.6236   -19979.682   -929.91087    274.39217      78.7224    22.617701    25.433029 
   36400    241.65285   -317.61252    216009.12   -18611.743    1405.3467    -20017.09   -780.71262    275.14088    78.722305    22.621588    25.422533 
   36600    241.93715   -266.61506    216009.12   -18597.663    1407.0001   -20004.663   -578.53629    275.65532    78.720272    22.623152     25.43607 
   36800    237.04186   -318.82157    216009.12   -18653.337    1378.5313   -20031.868   -797.72211    276.62413      78.7205    22.624624    25.429859 
   37000    236.29943   -310.83828    216009.12   -18660.871    1374.2136   -20035.084   -696.39223     276.8968    78.720608    22.625145    25.448432 
   37200    237.49181   -159.75536    216009.12   -18671.144     1381.148   -20052.292   -119.09115    278.68472    78.721057    22.629283    25.432899 
   37400    236.92189   -328.61988    216009.12   -18647.226    1377.8336   -20025.059   -819.78851    281.05486    78.721011    22.630278    25.420745 
   37600    232.83351   -317.94138    216009.12    -18665.33    1354.0574   -20019.387   -786.76268    281.05367    78.721567    22.632203    25.398379 
   37800    232.48074   -392.86835    216009.12    -18705.56    1352.0058   -20057.566   -1080.6934    281.59534    78.720819    22.632847    25.398431 
   38000    237.45022   -229.06857    216009.12   -18619.438    1380.9061   -20000.344   -401.99684    282.35276    78.720266    22.631255    25.425094 
   38200    234.64298   -337.89328    216009.12   -18592.741    1364.5804   -19957.321    -885.0991    283.22416      78.7201    22.631433     25.44144 
   38400    240.11647    -270.3649    216009.12   -18540.818    1396.4119    -19937.23   -557.96827    282.77368     78.72144    22.633305    25.451395 
   38600    243.98466   -96.020865    216009.12   -18571.909    1418.9075   -19990.817    158.72867    284.19314    78.722298     22.63345    25.447852 
   38800    241.57867    -357.8725    216009.12   -18563.878    1404.9154   -19968.793   -978.28384    287.20989    78.722155    22.633816    25.444458 
   39000    245.84932   -429.83361    216009.12   -18541.437    1429.7516   -19971.188   -1278.7429    288.63923    78.723554     22.63544    25.438669 
   39200    236.06874   -432.75506    216009.12   -18648.223     1372.872   -20021.095   -1264.7723    290.00138    78.723454    22.635953    25.431923 
   39400    233.85386    -256.6731    216009.12   -18590.815    1359.9912   -19950.806   -505.88522    289.04254    78.724002     22.63672    25.432905 
   39600    243.41527   -300.94789    216009.12    -18540.11    1415.5962   -19955.706   -726.04975    289.77996    78.725365    22.635294    25.451331 
   39800    236.29287   -262.15677    216009.12   -18602.595    1374.1754    -19976.77   -525.37303    290.86086    78.725283     22.63396    25.451544 
   40000    239.22089   -435.26473    216009.12   -18554.867    1391.2035   -19946.071   -1237.4459      291.047    78.726242    22.632596    25.437241 
   40200    238.80332   -596.04399    216009.12   -18563.626    1388.7752   -19952.401   -2018.6285    291.56262    78.725414    22.630278    25.410879 
   40400    234.60561    -331.9772    216009.12   -18615.654    1364.3631   -19980.017   -792.08511    292.13696    78.727541    22.628929    25.418045 
   40600    236.73073   -236.20497    216009.12    -18552.12    1376.7219   -19928.842   -437.80948    292.18232    78.729189    22.629798    25.435718 
   40800    234.69498   -350.22776    216009.12    -18627.39    1364.8828   -19992.273   -857.96247    292.85334    78.730345    22.631713    25.428952 
   41000    243.83507    -261.3992    216009.12   -18617.977    1418.0376   -20036.015   -473.51628    293.85191     78.72934    22.634577     25.42588 
   41200    247.55091   -270.97839    216009.12   -18590.243    1439.6473    -20029.89   -626.31571    295.71033    78.728113    22.634082    25.433016 
   41400    238.58685   -449.32644    216009.12   -18649.048    1387.5163   -20036.564    -1322.834    298.33467     78.72742     22.63414    25.429428 
   41600    241.53211   -201.01092    216009.12   -18641.704    1404.6446   -20046.348   -273.38495    300.33089    78.724683    22.634342    25.456324 
   41800    238.52568   -313.38191    216009.12   -18618.863    1387.1605   -20006.024   -743.47468    301.47304    78.724231    22.633121    25.471287 
   42000    234.61974   -198.98801    216009.12   -18661.513    1364.4453   -20025.959   -277.08523    301.41592    78.726476    22.635331    25.477311 
   42200    234.85316   -309.91406    216009.12    -18714.38    1365.8027   -20080.183   -682.77695    303.35881    78.727087    22.634222    25.496545 
   42400    237.70174   -372.56662    216009.12   -18661.535    1382.3688   -20043.904   -1035.1912    304.74315    78.726433    22.634766    25.491199 
   42600    240.88768   -396.90004    216009.12   -18718.649    1400.8968   -20119.546   -1094.6554    305.89399    78.727824     22.63318    25.493821 
   42800    239.31003   -349.68434    216009.12   -18677.877    1391.7219   -20069.599   -933.71432    307.23071    78.728761     22.63373    25.511394 
   43000    234.43929   -319.11265    216009.12   -18655.193    1363.3958   -20018.588   -791.07603    307.30358    78.728368    22.633007    25.501662 
   43200    241.92822   -502.62036    216009.12   -18637.089    1406.9482   -20044.037   -1548.6842     308.5245    78.727291    22.633555    25.497331 
   43400    241.81276   -285.84864    216009.12   -18660.595    1406.2767   -20066.871   -618.63818    306.99656    78.726559    22.631706    25.497406 
   43600    229.03309   -349.03653    216009.12   -18674.075    1331.9558   -20006.031   -894.29384    310.58543    78.726046    22.632288    25.507258 
   43800    231.50802   -255.40389    216009.12   -18686.144    1346.3489   -20032.492   -494.09664    309.48864    78.728004    22.632112     25.52393 
   44000    237.76446   -520.04544    216009.12   -18684.105    1382.7336   -20066.839   -1630.7724     311.3297    78.727914     22.63286    25.518063 
   44200    241.35559   -300.71416    216009.12   -18644.507     1403.618   -20048.125   -741.38389    310.28336    78.729493    22.631723    25.524428 
   44400    239.85395   -187.18592    216009.12   -18686.597    1394.8851   -20081.482   -235.22908    310.81783    78.728653    22.631234    25.509153 
   44600     239.6478   -279.85188    216009.12   -18676.479    1393.6863   -20070.165   -616.63461     313.2602    78.727815     22.63106     25.50397 
   44800    237.09883   -177.47855    216009.12   -18672.076    1378.8625   -20050.939   -210.30621    312.24174    78.729266    22.631711    25.483217 
   45000    242.02996   -262.45745    216009.12   -18661.245    1407.5398   -20068.785   -534.87691    315.28571    78.730025    22.632293    25.468178 
   45200    245.70492    -502.5689    216009.12   -18650.887    1428.9118   -20079.799   -1555.4502    314.93199    78.730386    22.630343    25.476535 
   45400    228.44024   -314.13567    216009.12   -18733.179     1328.508   -20061.687   -787.02217    315.49634     78.73002    22.628912    25.449448 
   45600    241.36592   -247.86246    216009.12   -18640.839    1403.6781   -20044.517   -481.82559    316.32929     78.73396    22.628609    25.440828 
   45800    243.96084   -307.26426    216009.12   -18662.761     1418.769    -20081.53   -719.85096    316.79625    78.734546    22.631256    25.445445 
   46000    241.70537   -213.58064    216009.12   -18618.523    1405.6522   -20024.175   -331.77055    316.00933    78.735319    22.628777    25.433155 
   46200    245.65803    -440.1519    216009.12   -18594.925    1428.6391   -20023.564   -1276.5198     316.9988     78.73741    22.627767    25.453292 
   46400    237.90078   -406.05585    216009.12     -18645.6    1383.5264   -20029.126   -1174.8039    319.54781    78.737056    22.630089    25.440843 
   46600    241.03586   -183.78912    216009.12   -18618.286    1401.7586   -20020.045   -228.88001    318.51563     78.73575    22.629327    25.450485 
   46800    241.63845   -480.83535    216009.12   -18575.642     1405.263   -19980.905   -1440.1084    319.76238    78.736829    22.626594    25.448066 
   47000    250.42486   -245.11964    216009.12   -18541.582    1456.3609   -19997.943   -468.15308    318.65389     78.73846    22.628196    25.430384 
   47200    242.85039   -261.20744    216009.12   -18662.198    1412.3111   -20074.509   -533.64106    320.72408    78.741387    22.627368    25.444676 
   47400    236.88287   -427.30992    216009.12   -18611.422    1377.6066   -19989.028   -1260.7988    324.63981    78.742087    22.626728    25.445586 
   47600     240.6972     -181.191    216009.12   -18656.358    1399.7891   -20056.147   -228.72906    323.52027    78.743756    22.625334    25.432406 
   47800    240.32936   -201.05575    216009.12   -18613.977    1397.6499   -20011.627   -273.34955    324.59465    78.743249    22.625379    25.448491 
   48000    237.26019   -275.63103    216009.12   -18628.764     1379.801   -20008.565   -561.06865    325.07468    78.744257    22.626705    25.486953 
   48200    240.02298   -399.91313    216009.12   -18677.615    1395.8681   -20073.483   -1116.2557    327.53291    78.745174    22.629786    25.477454 
   48400    241.94924   -382.02752    216009.12   -18654.317    1407.0704   -20061.387   -1096.9036    327.01021    78.742016    22.627331    25.478175 
   48600    231.91963   -392.32341    216009.12   -18707.912    1348.7426   -20056.655   -1088.5729    328.75363    78.743297    22.626115    25.461179 
   48800    231.52285   -398.91061    216009.12   -18686.549    1346.4351   -20032.984   -1134.8611    330.75873    78.743415    22.624511    25.436954 
   49000    238.87652   -414.88423    216009.12   -18648.363    1389.2008   -20037.564    -1219.357    333.02018    78.742356     22.62498    25.438985 
   49200    244.28367    -324.3435    216009.12   -18622.025    1420.6464   -20042.672   -819.75103    332.77615    78.742064    22.624384    25.455985 
   49400     241.7338   -373.56883    216009.12   -18681.726    1405.8175   -20087.543   -1031.0038    334.27288    78.741588    22.624011    25.462232 
   49600    235.95255   -398.70613    216009.12   -18664.218    1372.1963   -20036.414   -1140.0744    334.72606    78.744691     22.62303     25.45998 
   49800    239.94473   -304.05215    216009.12   -18637.864    1395.4131   -20033.277   -746.06312    334.34413    78.744871    22.623591    25.459003 
   50000    231.04187   -438.97404    216009.12   -18636.413    1343.6379   -19980.051   -1306.3099    334.65442    78.746029    22.623746    25.458673 
   50200    239.37888   -190.20618    216009.12   -18583.918    1392.1223    -19976.04   -254.52659    335.94855     78.74685    22.623282    25.477243 
   50400    241.72853   -295.10601    216009.12   -18603.282    1405.7869   -20009.069   -707.37412    337.60715    78.745931    22.623822    25.465165 
   50600    244.67685   -488.17573    216009.12   -18545.992     1422.933   -19968.925   -1473.6936    337.35817    78.746085    22.624621     25.47655 
   50800    234.91527   -400.38102    216009.12   -18696.931    1366.1639   -20063.095   -1110.0492    338.68794    78.746736     22.62548    25.493432 
   51000    236.09996   -227.02565    216009.12   -18656.965    1373.0536   -20030.019   -422.27606    339.41462    78.747049    22.627041    25.498417 
   51200    238.77191   -198.80334    216009.12    -18658.45    1388.5925   -20047.042   -291.73867    342.90945    78.744583    22.628235    25.507941 
   51400    238.01691   -270.46809    216009.12   -18620.009    1384.2017    -20004.21   -539.52982    344.80828    78.745895    22.628475    25.510372 
   51600    241.18273   -366.86698    216009.12   -18664.209    1402.6128   -20066.822    -1031.941    345.93602    78.746456    22.629501    25.515396 
   51800    236.74676   -324.02532    216009.12   -18606.541    1376.8151   -19983.356   -763.27416    347.44924    78.746276    22.628764     25.49379 
   52000    242.08412   -334.73592    216009.12   -18683.474    1407.8548   -20091.329   -799.06677    349.01299    78.746024    22.629259    25.517847 
   52200    233.67785   -272.27253    216009.12   -18716.248    1358.9677   -20075.216   -562.06168    350.03041    78.744973    22.629621    25.505194 
   52400    239.32036   -455.83028    216009.12   -18711.829     1391.782   -20103.611   -1388.3214    351.28914    78.744343     22.62906    25.512416 
   52600    236.69784   -305.73597    216009.12   -18649.587    1376.5306   -20026.118   -720.46366    350.57728    78.743728    22.629023    25.531175 
   52800    241.02231   -155.10423    216009.12   -18574.481    1401.6798   -19976.161   -117.54958    351.98511    78.743344    22.630451    25.519274 
   53000    245.93102   -314.56251    216009.12   -18553.432    1430.2267   -19983.659   -811.14361    354.05253    78.742359    22.631496    25.519179 
   53200    240.73004    -370.2278    216009.12   -18629.709    1399.9801   -20029.689   -1039.6729    354.23323    78.742942    22.633947    25.528038 
   53400    241.16277   -397.77965    216009.12   -18584.451    1402.4966   -19986.948   -1105.8627    354.97658    78.744385    22.634232    25.516577 
   53600    233.63342   -225.88949    216009.12   -18636.558    1358.7093   -19995.267    -425.3801    354.62577    78.742499     22.63379    25.513388 
   53800    235.00716   -350.04608    216009.12   -18572.618    1366.6983   -19939.316   -907.05315    358.26751    78.743718    22.634358    25.508483 
   54000    239.63824   -432.35907    216009.12   -18542.663    1393.6307   -19936.294   -1229.4163     358.7355    78.741936     22.63572    25.512606 
   54200     243.0678   -251.13079    216009.12   -18499.389    1413.5755   -19912.964   -497.59253    360.95149    78.744529    22.634408    25.500299 
   54400    244.17835    -318.3123    216009.12   -18488.394     1420.034   -19908.428   -745.07452    362.42078    78.743807     22.63502    25.489372 
   54600    245.79268   -191.57819    216009.12   -18535.827    1429.4222    -19965.25   -268.00592    362.32879    78.744936    22.635384    25.470524 
   54800    246.35415   -294.51512    216009.12   -18517.818    1432.6875   -19950.505   -669.49856    364.99338    78.745186    22.636214    25.464141 
   55000    245.99842   -126.11039    216009.12   -18483.548    1430.6187   -19914.167    6.5106364    367.32813    78.745175    22.636819    25.446382 
   55200    232.43389   -326.87494    216009.12   -18625.241    1351.7333   -19976.974   -788.45459    369.53481    78.743648    22.634825    25.434681 
   55400    236.90373   -263.63496    216009.12   -18586.582     1377.728    -19964.31   -545.76541    370.88667    78.743926    22.632737    25.436795 
   55600    236.76949    -336.2409    216009.12   -18553.393    1376.9472    -19930.34   -898.50971       371.66    78.744039     22.63238    25.446169 
   55800    243.34569   -152.42397    216009.12   -18455.737    1415.1915   -19870.928   -122.54362    373.74932    78.741757    22.630386     25.42876 
   56000    236.22117   -261.61872    216009.12   -18522.125    1373.7585   -19895.883   -556.12314    374.93425    78.739684    22.630033    25.473778 
   56200    239.14682   -126.30381    216009.12   -18535.524    1390.7728   -19926.296    15.293769    376.02495     78.73926    22.631144    25.491423 
   56400     238.0322   -233.80786    216009.12    -18657.32    1384.2906   -20041.611   -437.72311    378.18304    78.738641    22.632443    25.510256 
   56600    231.61841    -377.1539    216009.12   -18666.209    1346.9908     -20013.2   -1010.9695    379.31755    78.739851     22.63334    25.527196 
   56800    241.63234   -411.76474    216009.12   -18568.932    1405.2275    -19974.16   -1193.2911    381.90849     78.73825    22.634449    25.518892 
   57000    235.23398   -297.65673    216009.12   -18679.076    1368.0174   -20047.093   -685.13513    381.94862    78.738071    22.635463    25.527666 
   57200    248.15698   -286.30036    216009.12   -18590.097    1443.1719   -20033.269   -617.58585    381.58113    78.738268    22.637335    25.522209 
   57400    241.15774    -369.4728    216009.12   -18668.252    1402.4674    -20070.72   -1051.9311    383.04696    78.738328    22.637639    25.513486 
   57600    235.59274   -470.89558    216009.12   -18682.341    1370.1038   -20052.445   -1386.9563    384.79987    78.737434    22.637274     25.50236 
   57800    240.90133   -361.45429    216009.12   -18605.766    1400.9763   -20006.743   -921.45834    387.04452    78.737925    22.636339    25.467265 
   58000    241.29473   -316.96102    216009.12   -18615.676    1403.2641    -20018.94   -761.79107    388.33686    78.736408    22.634402     25.48634 
   58200    241.00232   -500.70752    216009.12   -18596.165    1401.5635   -19997.728   -1579.0483    390.17147    78.737394    22.635832    25.487938 
   58400    244.94536   -474.60865    216009.12   -18619.833    1424.4945   -20044.328   -1470.0915    389.48552    78.736852    22.634331    25.488516 
   58600    240.55687   -222.29504    216009.12   -18644.547     1398.973    -20043.52   -369.69731    391.39897    78.736406    22.634792    25.487927 
   58800    239.20384   -320.61205    216009.12   -18593.129    1391.1044   -19984.233   -798.93816    391.57048    78.736307    22.631899    25.495872 
   59000    244.63361   -466.95805    216009.12   -18539.106    1422.6815   -19961.787   -1437.0563    391.28609    78.734095    22.633533    25.501614 
   59200    239.13196   -170.28341    216009.12   -18573.168    1390.6863   -19963.854   -194.39795    391.39706     78.73313    22.634222    25.517562 
   59400    234.75266   -385.59652    216009.12   -18577.068    1365.2183   -19942.286   -1077.2616    394.86137    78.734482    22.633999    25.513915 
   59600    235.05205   -343.37053    216009.12    -18627.59    1366.9594    -19994.55   -872.14575    396.05554    78.735405    22.635293    25.539939 
   59800    235.33837   -285.39257    216009.12   -18578.905    1368.6245   -19947.529    -635.3799    397.70913    78.732861    22.635551    25.490286 
   60000    239.71089   -441.08381    216009.12   -18565.754    1394.0532   -19959.807   -1308.6523    398.10932     78.73151    22.637221    25.485552 
   60200    244.88641   -323.80651    216009.12   -18617.131    1424.1517   -20041.282   -795.37795     401.0934    78.732078    22.638448    25.484231 
   60400    241.93158   -283.10806    216009.12       -18576    1406.9677   -19982.968   -606.99273    403.47878    78.732446    22.637062    25.489051 
   60600    242.54506   -396.01515    216009.12   -18578.421    1410.5354   -19988.957   -1120.9835    406.79563    78.732813    22.636762    25.497802 
   60800    234.55848   -485.64506    216009.12   -18548.352     1364.089   -19912.441   -1449.7503    407.67622    78.732525    22.638808    25.468955 
   61000    240.09797   -319.79442    216009.12   -18609.085    1396.3042    -20005.39   -790.86523    410.04435    78.731481    22.637565    25.489132 
   61200    241.46435   -286.37568    216009.12   -18507.834    1404.2505   -19912.084   -670.26591    411.49619    78.730873    22.637052    25.489756 
   61400     245.8456   -457.69599    216009.12   -18539.537    1429.7299   -19969.267    -1354.953    412.63706    78.730993    22.638493    25.482431 
   61600    245.35702   -440.22535    216009.12   -18559.285    1426.8886   -19986.173   -1324.6458    415.77167    78.728185    22.641275    25.496429 
   61800    236.50756    -291.7476    216009.12   -18606.524     1375.424   -19981.948   -643.75867    418.16113    78.728291    22.639026    25.469692 
   62000    241.30182   -256.41566    216009.12   -18545.845    1403.3053    -19949.15   -488.89216    420.03115    78.726465    22.636849    25.487015 
   62200     242.7939   -436.19565    216009.12   -18535.425    1411.9826   -19947.407   -1279.4351    420.33519    78.724016    22.637165    25.491306 
   62400    241.96437   -209.70456    216009.12   -18535.859    1407.1584   -19943.017    -345.2681    420.18089    78.722194    22.639098    25.483628 
   62600    240.93588   -443.28616    216009.12   -18554.724    1401.1772   -19955.901   -1302.9302    421.36937    78.722323    22.641533    25.503829 
   62800    233.83619   -294.18878    216009.12   -18640.493    1359.8885   -20000.382   -691.01236    419.65135    78.722876    22.639007    25.523376 
   63000    235.85595   -498.62906    216009.12   -18533.796    1371.6345   -19905.431   -1496.5882    420.41834    78.722534     22.63803    25.513946 
   63200    244.03819   -251.03481    216009.12    -18575.59    1419.2188   -19994.808   -459.21803    422.78045    78.722684    22.637548    25.536697 
   63400    240.54848   -388.32759    216009.12   -18648.879    1398.9242   -20047.803   -1053.4432    422.54555     78.72275    22.638902     25.54473 
   63600    236.67828   -353.00491    216009.12    -18657.82    1376.4169   -20034.237   -901.66557    427.32861    78.723086      22.6383    25.568599 
   63800    229.36882   -295.13648    216009.12   -18703.698    1333.9082   -20037.606   -706.99177    430.56618    78.724093    22.637109    25.576923 
   64000    245.48011   -271.47673    216009.12   -18596.073    1427.6044   -20023.678   -575.45741    434.08093     78.72544    22.636003    25.593504 
   64200    237.63159   -386.88398    216009.12   -18603.525    1381.9609   -19985.486   -1043.2977    437.31031    78.727853    22.636664    25.581391 
   64400    239.69996   -312.79756    216009.12   -18605.125    1393.9896   -19999.115   -750.58449    438.38852    78.731727    22.635353     25.56345 
   64600    236.83277    -414.9309    216009.12   -18671.796    1377.3153   -20049.111   -1204.4716    441.60796    78.730058    22.632952    25.588624 
   64800    243.16707   -249.66707    216009.12   -18642.137    1414.1528    -20056.29   -434.22969    442.09395    78.728057    22.631431    25.598313 
   65000    239.50236   -187.84369    216009.12   -18594.723    1392.8404   -19987.563   -218.50259    442.18282    78.728308    22.629188    25.571489 
   65200    231.64285   -273.93763    216009.12     -18633.7     1347.133   -19980.833   -547.58689    442.50703    78.729271      22.6291    25.561578 
   65400    235.09039   -312.66183    216009.12   -18653.698    1367.1824   -20020.881   -763.25965    442.40621    78.729666    22.631514    25.563237 
   65600     237.6956    -243.8351    216009.12   -18595.345    1382.3331   -19977.678   -446.41646    445.26401    78.729593    22.632814    25.590754 
   65800    238.05265   -329.46288    216009.12   -18588.764    1384.4096   -19973.174   -829.52386    446.77263    78.730229    22.632969    25.594706 
   66000    234.08149   -202.09286    216009.12   -18581.102    1361.3151   -19942.417   -262.59087    445.87484    78.730176    22.630863    25.595732 
   66200    233.57184    -183.4547    216009.12   -18622.995    1358.3511   -19981.347   -194.49648    444.55242    78.729418    22.630931    25.578259 
   66400    234.54939   -110.48319    216009.12    -18617.72    1364.0361   -19981.756    141.71923    445.35457    78.729706    22.630417    25.585639 
   66600    238.01891   -449.98096    216009.12   -18627.325    1384.2134   -20011.539   -1340.6461    446.77841    78.732125     22.62998    25.575557 
   66800    234.14516   -309.62981    216009.12   -18650.635    1361.6853   -20012.321   -725.11813    447.19765    78.731606     22.62964    25.562145 
   67000    233.51215   -235.03489    216009.12   -18680.064     1358.004   -20038.068   -447.91447    449.37977    78.731764    22.629489    25.573801 
   67200     235.4401   -368.56542    216009.12    -18609.79    1369.2161   -19979.006   -972.37072    452.27584     78.73002    22.628022    25.590375 
   67400    240.86324    -316.6545    216009.12   -18619.048    1400.7547   -20019.802   -760.07856    452.07981    78.730451    22.627719    25.581469 
   67600    240.69223   -423.77428    216009.12   -18589.061    1399.7602   -19988.821   -1196.1519    453.53374    78.731144    22.627036     25.57261 
   67800     236.9037   -403.18607    216009.12   -18614.053    1377.7278   -19991.781    -1140.301     453.4269    78.732665    22.627345    25.557656 
   68000    240.36392   -328.83065    216009.12   -18647.241    1397.8509   -20045.092    -847.0125    451.31134    78.730569    22.629518    25.544939 
   68200    235.42046   -236.70245    216009.12   -18629.452    1369.1019   -19998.554   -396.04452     452.8735    78.731745    22.628112    25.546577 
   68400    243.02734   -404.01843    216009.12    -18554.08    1413.3402    -19967.42   -1118.0673    455.62532      78.7305    22.629376    25.547234 
   68600    238.27559   -340.24337    216009.12   -18630.795    1385.7061   -20016.501   -848.78375    457.75991    78.730187    22.629067    25.547235 
   68800     239.4361   -86.307684    216009.12   -18610.446    1392.4551   -20002.902    203.64735    458.33811     78.72964    22.626578    25.535209 
   69000    237.22772   -301.90606    216009.12   -18569.188    1379.6121     -19948.8   -721.18156    460.93003    78.729637    22.628761    25.563668 
   69200    234.60941    -349.5558    216009.12   -18619.526    1364.3852   -19983.911   -921.58368    465.68429     78.72935    22.631248    25.558375 
   69400    234.65624   -330.48404    216009.12   -18696.074    1364.6575   -20060.731   -825.84096    468.39525    78.730635    22.630735    25.560425 
   69600    247.26657   -249.32201    216009.12   -18529.395    1437.9937   -19967.389   -471.30665     470.2355    78.731901    22.631823    25.572472 
   69800     241.2656   -351.04421    216009.12   -18629.968    1403.0947   -20033.063   -909.43056    471.17773    78.730409    22.632947    25.555955 
   70000    240.85262   -312.75806    216009.12   -18584.134    1400.6929   -19984.827   -734.04997     471.4744    78.730375    22.631653    25.544124 
   70200     240.3778   -420.59882    216009.12   -18579.674    1397.9316   -19977.606   -1236.8856    472.22616    78.729061    22.628176     25.54744 
   70400    242.61254    -290.2901    216009.12   -18521.666    1410.9279   -19932.594   -654.37663    470.19472    78.728779    22.628428    25.529293 
   70600    240.30776     -324.013    216009.12   -18589.834    1397.5243   -19987.358    -761.6387    471.56285    78.731107    22.630372    25.546436 
   70800    242.40621   -360.97091    216009.12   -18636.698     1409.728   -20046.426   -912.18536    471.93649    78.732901    22.630965    25.571839 
   71000    239.64224   -303.22812    216009.12   -18632.604    1393.6539   -20026.258   -718.83517     475.2504    78.735553    22.631679    25.572151 
   71200    239.31175   -353.99718    216009.12    -18566.13     1391.732   -19957.862   -970.19777    478.23646    78.735893    22.630891    25.575503 
   71400     234.7259   -352.74518    216009.12   -18575.432    1365.0627   -19940.495   -978.23644    479.73952    78.735346    22.631455    25.577156 
   71600    241.26135   -185.78974    216009.12    -18544.64      1403.07    -19947.71    -219.8079     481.1005    78.737637     22.63527    25.579249 
   71800    235.03269   -259.85339    216009.12   -18622.796    1366.8468   -19989.643    -495.8518    485.38613    78.736644    22.632308    25.558156 
   72000    238.42878   -352.68908    216009.12   -18613.832     1386.597   -20000.429    -943.2047    486.28774    78.736223    22.632095    25.564926 
   72200    239.99064   -404.62562    216009.12    -18498.47    1395.6801    -19894.15   -1219.1058    489.19909    78.734038     22.63068    25.589045 
   72400    241.33421    -339.0266    216009.12   -18572.945    1403.4937   -19976.438    -851.2205    489.91832    78.732917    22.631547    25.625275 
   72600    234.06524   -251.64004    216009.12   -18538.505    1361.2206   -19899.726   -497.16081    489.55129    78.733413    22.630649    25.623913 
   72800    242.11609   -314.99857    216009.12   -18572.283    1408.0407   -19980.324    -797.7883    487.99806    78.733321    22.628337    25.627866 
   73000    240.10616   -418.54962    216009.12   -18627.037    1396.3519   -20023.389   -1219.7414    484.40894    78.732274    22.626764    25.645638 
   73200    245.06635   -303.58634    216009.12   -18566.512    1425.1982    -19991.71   -704.28041     485.7406    78.732043    22.627904    25.623038 
   73400    240.43089   -323.57026    216009.12   -18599.669    1398.2404   -19997.909   -797.96727    488.48651    78.731503    22.628172    25.617515 
   73600    244.84241    -353.4731    216009.12   -18586.165    1423.8958   -20010.061    -914.5882     491.0347    78.731955    22.630358    25.621548 
   73800    232.92478   -255.88486    216009.12   -18670.545    1354.5881   -20025.134    -523.6781    489.99391    78.733038    22.632371    25.591276 
   74000    232.24464   -268.81486    216009.12   -18676.701    1350.6327   -20027.334   -545.11623    492.62995    78.731264    22.631713    25.583878 
   74200    240.55259   -111.64488    216009.12   -18651.148    1398.9481   -20050.096    119.09615    491.65597    78.731602    22.631859    25.555408 
   74400    239.81549   -360.19115    216009.12   -18627.962    1394.6615   -20022.623   -968.32279    493.05867    78.729333     22.63013    25.556532 
   74600    236.51889   -473.64183    216009.12   -18662.498    1375.4899   -20037.988   -1400.4932    493.26371    78.728213    22.631735    25.555185 
   74800    237.45656   -340.98579    216009.12       -18658    1380.9429   -20038.943   -865.50745    494.77605     78.72574    22.631518    25.561123 
   75000    241.75553   -303.18973    216009.12   -18665.787    1405.9439   -20071.731   -715.54506    496.04082    78.727812    22.634383    25.547721 
   75200    236.00423   -374.09214    216009.12   -18603.614    1372.4968   -19976.111   -1043.5181    494.51767    78.728628    22.634074    25.540596 
   75400    239.58714   -467.71629    216009.12   -18632.311    1393.3335   -20025.645    -1417.379    496.22507    78.724872     22.63479    25.528822 
   75600    238.02077   -233.24539    216009.12   -18631.974    1384.2242   -20016.198   -434.90305    495.45491    78.724773    22.635001    25.526523 
   75800    244.86421   -296.47681    216009.12   -18590.567    1424.0226    -20014.59   -681.97763    495.23974    78.725051    22.637132    25.518637 
   76000    242.75106    -267.7721    216009.12   -18581.232    1411.7335   -19992.965    -538.7896    495.02736    78.725955     22.63947      25.5098 
   76200    235.93334   -235.52251    216009.12   -18678.938    1372.0846   -20051.022   -404.81147    492.33113    78.727882    22.641766    25.535019 
   76400    237.57893   -408.62719    216009.12   -18658.026    1381.6546   -20039.681   -1142.6076    491.87165    78.729279    22.641997    25.541247 
   76600    231.93541   -350.59294    216009.12    -18625.56    1348.8344   -19974.395   -909.89203    494.68949    78.730602    22.640553     25.55052 
   76800    231.94123   -315.67348    216009.12   -18623.543    1348.8682   -19972.411   -796.37148    494.15968     78.72929    22.639925    25.568877 
   77000    238.41511   -221.54051    216009.12   -18602.714    1386.5175   -19989.231   -380.31585      494.959    78.730757    22.640682    25.554844 
   77200    241.51212   -283.83118    216009.12   -18566.106    1404.5283   -19970.635   -632.68236    496.88003    78.729648    22.642962    25.535061 
   77400    236.72116   -370.34725    216009.12   -18560.472    1376.6662   -19937.139   -967.91448    498.27192    78.728777     22.64525    25.535635 
   77600    230.34449   -311.04383    216009.12   -18618.047    1339.5823   -19957.629   -777.62648    500.27302    78.730232     22.64604    25.508425 
   77800    242.68364   -203.10412    216009.12   -18590.315    1411.3414   -20001.657   -312.28223    500.34808    78.732967    22.645662    25.511197 
   78000    239.19329   -362.80195    216009.12   -18562.426     1391.043   -19953.469   -971.75776    500.17562    78.732094    22.645894    25.522854 
   78200    242.48172   -197.38707    216009.12       -18522    1410.1671   -19932.167   -239.05151      498.241    78.732217    22.647719    25.528236 
   78400    237.80715   -353.42941    216009.12    -18537.59    1382.9819   -19920.572   -948.10517     499.8464    78.732653    22.649058    25.534399 
   78600    243.72984   -340.89914    216009.12   -18546.241    1417.4256   -19963.666   -880.18688    500.72798    78.731111    22.649331     25.54196 
   78800    240.21673   -412.05063    216009.12   -18573.357    1396.9949   -19970.352   -1207.9829    501.41213    78.730953    22.649497    25.540934 
   79000     240.7449   -347.11653    216009.12   -18578.867    1400.0665   -19978.933   -901.13461    500.65469    78.727949     22.64714    25.546608 
   79200    242.23804   -160.99676    216009.12   -18555.867      1408.75   -19964.617   -119.41691    501.01259    78.727606     22.64644     25.55998 
   79400    242.53805   -348.28766    216009.12   -18525.517    1410.4947   -19936.012    -909.4181    500.61652    78.727375    22.646745    25.526505 
   79600    237.73194   -365.71547    216009.12   -18595.372    1382.5445   -19977.916   -984.50265    502.97628    78.724575    22.645562    25.497946 
   79800    234.52447   -207.19299    216009.12   -18588.284    1363.8912   -19952.175   -304.28552    503.53783    78.722716    22.642928    25.521785 
   80000     236.2678   -438.58124    216009.12   -18623.644    1374.0297   -19997.673   -1307.3643    505.93729    78.723442    22.643687     25.52175 
   80200    240.54834   -321.34636    216009.12   -18600.959    1398.9234   -19999.882   -818.75416    505.28683    78.723737    22.644455    25.516231 
   80400    235.12168   -340.81473    216009.12   -18587.022    1367.3644   -19954.386   -890.02713    505.23689    78.722052    22.643452    25.507433 
   80600    244.39321   -262.51781    216009.12   -18585.614    1421.2835   -20006.897   -523.51781    505.24368    78.723661    22.640088    25.504393 
   80800    242.13072   -410.83002    216009.12   -18595.047    1408.1258   -20003.173   -1204.9537    505.92639    78.724671    22.640666    25.505114 
   81000    240.82894   -300.92638    216009.12   -18573.575    1400.5553    -19974.13   -683.09386    505.04673    78.722793    22.644688    25.516234 
   81200    239.61369   -436.06293    216009.12   -18575.561    1393.4879   -19969.049   -1284.4944    505.08978    78.723327    22.645632    25.540087 
   81400    238.89548   -153.63846    216009.12   -18603.379    1389.3111    -19992.69   -31.682698    506.03604    78.721513    22.644553    25.560009 
   81600    236.07612   -336.40186    216009.12   -18647.582     1372.915   -20020.497   -814.68982    511.08078    78.722883    22.645105    25.564988 
   81800    231.65894   -321.49126    216009.12   -18692.829    1347.2266   -20040.055   -822.16573    511.21916    78.724553    22.644211    25.542373 
   82000    238.93412   -120.92667    216009.12    -18601.61    1389.5358   -19991.145    84.881239    509.36651    78.721572    22.642814    25.554232 
   82200    245.79554   -347.65183    216009.12   -18533.065    1429.4388   -19962.504   -882.81739    510.72273    78.720524    22.641243    25.558458 
   82400      240.272   -444.23337    216009.12   -18575.952    1397.3163   -19973.268   -1388.3386    513.66885    78.720435    22.640068    25.570149 
   82600     253.5813   -375.80124    216009.12   -18505.182    1474.7174     -19979.9   -1008.3183    517.65337    78.721635    22.638424    25.564587 
   82800    239.35113   -281.28256    216009.12   -18604.241     1391.961   -19996.202   -626.84483    517.90709    78.721203    22.641042    25.566817 
   83000    249.02872   -159.48747    216009.12   -18515.011    1448.2415   -19963.253   -95.210526    520.73375    78.719658    22.639213    25.573965 
   83200    252.87679   -298.38335    216009.12   -18565.038    1470.6203   -20035.658    -739.7667    519.42202    78.720138    22.638322    25.565317 
   83400    236.65203   -392.45165    216009.12   -18633.492    1376.2642   -20009.756   -1136.7864    519.76242    78.721936    22.638805    25.577041 
   83600     232.1431   -205.33792    216009.12   -18687.577    1350.0422   -20037.619   -300.43464    518.16887    78.724097    22.642141    25.570826 
   83800    234.96699   -454.87799    216009.12     -18640.3    1366.4648   -20006.764   -1345.4458    521.40851    78.724849    22.640601    25.565774 
   84000    247.03267   -240.51084    216009.12   -18610.101    1436.6334   -20046.734   -434.75738    520.27641     78.72424    22.640217     25.56603 
   84200    237.29183   -401.08309    216009.12   -18600.209     1379.985   -19980.194   -1117.7132    523.03107    78.725835    22.640154     25.55886 
   84400    234.61839   -353.34119    216009.12   -18660.784    1364.4374   -20025.222   -908.58703    521.31394       78.724    22.640365    25.579848 
   84600    244.39316   -274.66006    216009.12   -18581.828    1421.2832   -20003.111   -593.75025    523.61255    78.724537    22.638985     25.58938 
   84800    240.05552   -401.33388    216009.12     -18642.9    1396.0574   -20038.957   -1096.1943    526.24942    78.726116     22.63699    25.574023 
   85000    240.94821    -250.2926    216009.12   -18639.275    1401.2489   -20040.524    -488.8615    525.04833    78.727703    22.638643    25.551434 
   85200    233.52977   -319.53255    216009.12   -18646.452    1358.1065   -20004.558   -760.88396    527.31136    78.726442    22.639199    25.539649 
   85400    240.07617   -471.25096    216009.12   -18680.963    1396.1775   -20077.141   -1429.9808    529.38328    78.726032    22.638971    25.547557 
   85600    240.24082   -353.88742    216009.12   -18634.304     1397.135   -20031.439   -949.71778    531.21605    78.726968    22.640758    25.542788 
   85800    242.28465   -333.41866    216009.12    -18570.74     1409.021   -19979.761   -825.43697    533.69659    78.727119     22.63867    25.546638 
   86000    240.36533   -177.36041    216009.12   -18605.488    1397.8591   -20003.347   -146.58347    536.97354     78.72985    22.639479    25.532343 
   86200      239.711   -265.72097    216009.12   -18587.413    1394.0538   -19981.467   -550.87143    539.70781    78.729133    22.640483    25.511437 
   86400    240.32878    -170.5004    216009.12   -18659.864    1397.6465   -20057.511   -137.07772    539.33108    78.727575    22.639963    25.493442 
   86600    245.90298   -366.95861    216009.12   -18555.903    1430.0637   -19985.967   -1009.0237     541.4149    78.726264    22.639869    25.485192 
   86800    236.21194   -138.25861    216009.12   -18630.838    1373.7048   -20004.542   -44.755479    540.65082    78.726091    22.640455    25.500472 
   87000    237.47885   -391.34608    216009.12   -18634.724    1381.0726   -20015.796   -1063.0039    543.34942     78.72504    22.642156    25.512708 
   87200    237.41266   -315.80716    216009.12   -18615.321    1380.6877   -19996.009   -799.69168    542.72091    78.725187    22.644883    25.524571 
   87400     243.9869   -313.24529    216009.12   -18621.843    1418.9205   -20040.764   -779.67054    547.84721    78.724591    22.648534    25.516394 
   87600     234.9126     -188.251    216009.12   -18645.695    1366.1484   -20011.844   -265.22008     550.2839    78.726915    22.648124    25.524034 
   87800    243.45478    -292.6237    216009.12   -18658.712     1415.826   -20074.538   -698.93325    550.85423    78.727037    22.647427    25.540891 
   88000    244.19482   -313.08781    216009.12   -18645.651    1420.1298   -20065.781   -718.67933    551.75695    78.727624    22.646443     25.55709 
   88200    234.09246    -372.1722    216009.12   -18707.559    1361.3789   -20068.938   -1018.3052    553.75728    78.728695    22.646988    25.594611 
   88400    236.21589   -319.97227    216009.12   -18642.243    1373.7278    -20015.97   -755.06153    555.08201    78.727603    22.648038    25.598119 
   88600     240.0862    -129.1669    216009.12   -18609.979    1396.2358   -20006.214    56.796535    556.84326     78.72882    22.648109    25.601911 
   88800    234.70856   -257.67171    216009.12   -18667.765    1364.9618   -20032.727   -489.14947    558.52263    78.728417    22.647537    25.580221 
   89000    237.14061   -318.41446    216009.12    -18595.04    1379.1055   -19974.145   -778.15065    558.08485    78.730331     22.64993    25.571987 
   89200    240.68973    -381.6617    216009.12   -18569.795    1399.7457   -19969.541    -1064.767    555.66114    78.729006    22.650477    25.551114 
   89400     235.6435   -263.14611    216009.12   -18583.804     1370.399   -19954.203    -527.1707    557.46774    78.729126    22.650838    25.565534 
   89600    233.65203   -393.00613    216009.12   -18684.565    1358.8175   -20043.383   -1141.9092    558.47372    78.726163    22.648257    25.546492 
   89800    238.48014   -200.34275    216009.12   -18573.073    1386.8956   -19959.968   -280.31303    559.14562    78.724316     22.64763    25.562275 
   90000    240.45499   -313.14983    216009.12   -18595.098    1398.3805   -19993.478    -774.1987     560.2006    78.725176    22.647934    25.561132 
   90200    225.09977   -371.78751    216009.12   -18592.512    1309.0813   -19901.593   -1021.4789    562.43497    78.725788    22.648974    25.584208 
   90400    244.30446   -266.17583    216009.12   -18555.237    1420.7673   -19976.005   -568.66488    565.09676    78.725875     22.64887    25.584852 
   90600    245.61397   -198.07249    216009.12   -18549.924    1428.3829   -19978.306   -232.15153    565.78149    78.726848    22.649158     25.58505 
   90800    244.74522   -323.39517    216009.12   -18588.989    1423.3306   -20012.319   -755.60068    568.31741    78.728042    22.650207    25.601591 
   91000    241.50309   -349.82569    216009.12   -18625.962    1404.4758   -20030.438   -868.96331    570.10071    78.730259    22.650786    25.592645 
   91200     225.4291   -167.02306    216009.12    -18684.51    1310.9966   -19995.506   -128.28585    569.19777     78.73092      22.6507    25.591091 
   91400    231.61871   -203.51095    216009.12   -18607.239    1346.9926   -19954.232   -308.95788    570.38825    78.729698     22.65175    25.601791 
   91600     243.2693   -379.68025    216009.12   -18517.882    1414.7473   -19932.629   -1027.0048    572.37366     78.72811    22.652881    25.611034 
   91800    246.21015   -262.23485    216009.12   -18555.628      1431.85   -19987.478    -584.3414     573.8248    78.729093    22.652355    25.608364 
   92000    242.36978   -346.33656    216009.12   -18563.641    1409.5161   -19973.157   -871.34302    578.95341    78.726952    22.650275    25.609674 
   92200    237.06394   -262.89676    216009.12   -18588.035    1378.6597   -19966.695   -551.26849    581.99309    78.724005    22.646959    25.622263 
   92400    239.12237    -235.8601    216009.12   -18570.348    1390.6306   -19960.979    -428.6568    586.61379     78.72285    22.643786    25.625802 
   92600    241.63638   -191.74295    216009.12   -18519.034    1405.2509   -19924.285   -233.51333    588.90932    78.722329    22.642348    25.615535 
   92800    239.20978   -412.30719    216009.12   -18581.862     1391.139   -19973.001   -1156.0456    591.73483    78.723081    22.643692     25.61055 
   93000    237.04293   -236.24111    216009.12   -18612.087    1378.5375   -19990.624   -473.59098    589.53178    78.725255    22.646827    25.596587 
   93200    238.88653   -260.36433    216009.12    -18600.92     1389.259   -19990.179   -542.10281    590.78998    78.725725    22.646331    25.578324 
   93400    235.19836   -351.03248    216009.12   -18676.852    1367.8103   -20044.663   -945.27136    593.13349    78.725854    22.646242    25.585779 
   93600     238.8405   -251.53476    216009.12     -18618.8    1388.9913   -20007.792   -501.28109    590.01669    78.726062     22.64642    25.616889 
   93800    237.56134   -222.79325    216009.12   -18635.239    1381.5523   -20016.791   -408.75916    590.23641    78.728097    22.645826    25.626422 
   94000    241.55632   -244.97173    216009.12   -18611.583    1404.7854   -20016.369   -485.14508    589.60267    78.730608     22.64503    25.611369 
   94200    243.66814   -296.87895    216009.12   -18527.318    1417.0668   -19944.385   -680.51154    589.78836    78.732743    22.646137    25.602655 
   94400    242.74151   -303.50068    216009.12   -18589.235    1411.6779   -20000.912   -748.90389    588.65879    78.732635    22.645709    25.592542 
   94600    240.50355   -369.29127    216009.12   -18619.144    1398.6629   -20017.807   -981.82755    590.03529    78.732089    22.645614     25.56784 
   94800    225.26893   -366.08244    216009.12   -18585.373     1310.065   -19895.438   -1006.0007    591.25521    78.729773    22.643126    25.574042 
   95000     241.9839   -345.82795    216009.12   -18596.652     1407.272   -20003.924   -874.89299    591.20545    78.730029     22.64182    25.573595 
   95200    238.07706   -244.28437    216009.12   -18587.836    1384.5515   -19972.388   -490.35497    590.49146    78.731613    22.640759    25.565397 
   95400     234.4619   -440.94797    216009.12   -18600.025    1363.5273   -19963.552   -1293.1583    590.47952    78.731142    22.640235    25.565565 
   95600    244.63674   -409.72158    216009.12     -18607.3    1422.6998   -20029.999   -1139.1966    588.41882    78.730598     22.64477    25.542813 
   95800    241.01459   -290.81781    216009.12   -18606.671    1401.6349   -20008.306   -635.97496     584.9082    78.730114    22.645174    25.532848 
   96000    239.00512   -349.40923    216009.12   -18588.636    1389.9487   -19978.585   -933.19194    584.83977    78.729467    22.644619     25.50467 
   96200    242.37763   -296.87292    216009.12   -18571.802    1409.5617   -19981.363   -707.18217     582.1465    78.729828    22.643811    25.514738 
   96400    241.26235   -431.92242    216009.12   -18590.536    1403.0758   -19993.612   -1248.9654     582.6946     78.73191    22.646408    25.512899 
   96600    235.28474   -314.44424    216009.12   -18638.982    1368.3126   -20007.294   -780.89631    579.86396    78.733066    22.646217    25.529508 
   96800     238.6628   -380.72648    216009.12   -18616.194    1387.9579   -20004.152   -1038.4102    583.17068    78.733236    22.645828    25.541103 
   97000    231.65001   -390.52426    216009.12   -18662.363    1347.1746   -20009.538   -1094.8411    581.72429     78.73477    22.645762    25.531498 
   97200    239.48006   -406.18084    216009.12    -18631.98    1392.7108   -20024.691   -1131.0436     581.3448    78.735624    22.642331    25.522419 
   97400    246.74074    -316.3114    216009.12   -18614.427    1434.9357   -20049.363   -774.38625    584.28384      78.7359    22.640343    25.529895 
   97600    245.26524   -421.83485    216009.12    -18563.79    1426.3548   -19990.145   -1240.7026    585.02341    78.737378    22.639401    25.504682 
   97800    239.38121   -423.72248    216009.12   -18576.305    1392.1359   -19968.441   -1238.8954    585.48785    78.738373    22.639473    25.518544 
   98000    235.04445   -402.66901    216009.12   -18632.506    1366.9152   -19999.421   -1140.2651    584.21084    78.736945    22.640252    25.519119 
   98200    245.58491   -343.87783    216009.12   -18666.272    1428.2139   -20094.486   -901.51626    585.27912     78.73693    22.640298    25.543063 
   98400    239.14599   -432.14078    216009.12   -18628.527     1390.768   -20019.295   -1311.7313    587.94119    78.736777    22.640727    25.551206 
   98600    237.43642   -339.99373    216009.12   -18653.426    1380.8258   -20034.252   -840.14057    585.97096     78.73501    22.639507    25.544979 
   98800    242.63458   -209.13106    216009.12   -18587.366    1411.0561   -19998.423   -307.19869     586.6743    78.732781    22.637837    25.573189 
   99000    235.66206   -281.50665    216009.12   -18635.302    1370.5069   -20005.809   -657.00021    588.75539    78.731883    22.638159    25.584825 
   99200    240.95294   -323.51742    216009.12   -18650.221    1401.2764   -20051.497   -755.43957    590.03368    78.729312    22.638124    25.585057 
   99400    231.48234   -288.79239    216009.12   -18682.518    1346.1996   -20028.718   -624.92111    589.41229    78.729844    22.641324    25.619812 
   99600    241.72893   -285.31649    216009.12    -18592.56    1405.7892   -19998.349    -616.8458    590.72874    78.729284    22.643591    25.623072 
   99800    239.71643   -285.57183    216009.12   -18613.923    1394.0854   -20008.008   -597.27154      590.503    78.727729    22.644191    25.610902 
  100000    245.32033   -337.47002    216009.12   -18596.525    1426.6752     -20023.2   -884.66777    592.17831    78.726397    22.648411    25.603227 
  100200    225.91337   -128.67649    216009.12   -18658.784    1313.8128   -19972.597     24.39478     591.8579    78.725567    22.649935    25.609909 
  100400    239.96733   -440.30507    216009.12   -18594.827    1395.5445   -19990.372   -1279.7881    593.67717    78.728664    22.648572    25.599652 
  100600    241.76532   -362.42502    216009.12   -18594.998    1406.0008   -20000.999   -974.29094    595.57107    78.731082    22.648261    25.593053 
  100800    232.94814   -256.88632    216009.12   -18635.506     1354.724    -19990.23   -514.09132    594.62198    78.731062    22.649962     25.57669 
[...]
 5175800    225.11465   -483.73477    216009.12    -20534.97    1309.1678   -21844.137   -1424.5341    6739.6962    78.614721    21.782949    25.381993 
 5176000    226.09088   -649.15405    216009.12   -20530.242    1314.8452   -21845.088    -2163.307     6744.607    78.615105    21.782763     25.38678 
 5176200    225.33507   -672.49039    216009.12   -20531.792    1310.4497   -21842.242   -2233.6189    6743.3597    78.614596    21.783242    25.383307 
 5176400    222.78544   -574.81093    216009.12   -20554.038    1295.6222    -21849.66   -1822.0806    6740.4318    78.614978    21.783436    25.377951 
 5176600    230.46824   -723.05603    216009.12   -20510.538     1340.302    -21850.84   -2454.5538     6745.097    78.614406    21.783363    25.382199 
 5176800    225.73801   -658.65003    216009.12   -20488.312     1312.793   -21801.105   -2165.8917    6742.4467    78.615832      21.7847    25.384111 
 5177000    226.60941   -575.52014    216009.12    -20477.82    1317.8607   -21795.681   -1802.9675    6741.6786     78.61637    21.785314    25.387107 
 5177200    229.08894   -671.27545    216009.12   -20502.442    1332.2806   -21834.723   -2210.7075     6743.405    78.615933    21.785793    25.392154 
 5177400    231.67062   -642.38299    216009.12   -20525.231    1347.2945   -21872.526   -2129.0353    6743.8266    78.615465    21.786026     25.39159 
 5177600    233.24085   -519.99397    216009.12   -20473.496    1356.4262   -21829.923   -1586.9377     6739.313    78.614774    21.786005    25.390811 
 5177800    226.17855   -661.26463    216009.12   -20503.411     1315.355   -21818.766   -2159.5718     6745.458    78.613938    21.785561    25.397775 
 5178000    226.53024   -633.08285    216009.12   -20527.526    1317.4003   -21844.926   -2041.7309    6741.8294    78.614994    21.786811    25.396827 
 5178200    227.43805    -581.9993    216009.12   -20541.179    1322.6797   -21863.858    -1825.804    6741.4841    78.613759    21.786659    25.399625 
 5178400    220.94389   -658.19285    216009.12   -20554.723    1284.9125   -21839.636   -2118.8731    6745.6042    78.614049      21.7872    25.395895 
 5178600     227.4621   -561.04269    216009.12    -20547.86    1322.8196   -21870.679   -1748.0143    6740.3863    78.613554    21.786843    25.398132 
 5178800    226.35201   -631.99785    216009.12   -20499.412    1316.3638   -21815.776   -2003.0567    6741.2316    78.613061    21.787037    25.397947 
 5179000     228.4386    -696.3291    216009.12   -20527.173    1328.4985   -21855.671   -2340.6821    6743.1134    78.613153    21.787532    25.397972 
 5179200    234.24589   -639.59366    216009.12   -20505.383    1362.2711   -21867.654   -2129.9629    6740.7791    78.611549    21.787466    25.395957 
 5179400     226.3868   -607.14533    216009.12   -20563.964    1316.5661    -21880.53   -1955.8068    6742.1693    78.612697    21.787373    25.392233 
 5179600    230.07397   -669.91962    216009.12   -20454.157    1338.0091   -21792.166   -2171.2569    6744.1418    78.611743     21.78726    25.385635 
 5179800    229.55247   -608.99393    216009.12   -20511.948    1334.9763   -21846.924   -1967.1474    6742.2309    78.613282    21.786879     25.38526 
 5180000    225.61532   -617.14682    216009.12   -20539.515    1312.0795   -21851.594   -1975.4061    6743.3831     78.61251    21.787581    25.392775 
 5180200    220.20191   -610.43328    216009.12   -20609.439    1280.5975   -21890.037   -1944.6376    6744.3759    78.613721    21.788547    25.393567 
 5180400    225.12123    -618.5315    216009.12   -20579.742    1309.2061   -21888.949   -1974.4312    6740.7745     78.61418    21.789445    25.389904 
 5180600    231.85563   -634.41685    216009.12   -20524.507    1348.3704   -21872.878     -2060.42    6741.2962    78.615547      21.7913    25.385091 
 5180800    235.64975   -657.83596    216009.12   -20500.809    1370.4354   -21871.244   -2134.5987    6744.4318    78.615938    21.791635    25.389662 
 5181000    231.08846   -564.88367    216009.12   -20540.789    1343.9089   -21884.698   -1713.6622    6740.0544    78.616688    21.791577     25.38721 
 5181200    223.61952   -683.84788    216009.12   -20546.531    1300.4728   -21847.004   -2268.7205    6742.6648    78.617051     21.79096     25.38527 
 5181400    220.78604   -632.74137    216009.12    -20586.33    1283.9945   -21870.324   -2098.2537    6742.4335    78.618095    21.791421    25.381899 
 5181600    229.72725    -597.3178    216009.12   -20520.446    1335.9927   -21856.439   -1928.7075    6741.6961    78.619059    21.790618    25.381267 
 5181800    229.86612   -659.80704    216009.12   -20593.871    1336.8003   -21930.672   -2159.8042    6743.9246    78.619248    21.791173    25.387645 
 5182000    227.22782    -601.4871    216009.12   -20505.831    1321.4571   -21827.288   -1939.1113    6742.0639    78.619827    21.791804    25.385138 
 5182200    228.59351   -651.89481    216009.12    -20499.25    1329.3993    -21828.65   -2124.1299    6741.0793    78.620276    21.794319     25.38835 
 5182400    233.49447   -698.62121    216009.12   -20491.056    1357.9012   -21848.958   -2347.2281    6744.1615    78.619604     21.79458     25.39227 
 5182600    217.43031    -580.4743    216009.12   -20584.731    1264.4791    -21849.21    -1811.317    6740.8266    78.619682    21.793574    25.389471 
 5182800    225.07895   -682.44367    216009.12   -20515.593    1308.9603   -21824.554   -2286.8146    6742.8934    78.620817     21.79338    25.385303 
 5183000    227.01333   -706.96789    216009.12   -20506.556    1320.2098   -21826.765   -2354.1322    6741.0228    78.620442    21.793434    25.384238 
 5183200    229.98192   -585.96518    216009.12     -20469.9    1337.4738   -21807.374   -1875.3858    6739.8527     78.62061    21.792774    25.384329 
 5183400    224.96304   -669.35404    216009.12   -20478.272    1308.2862   -21786.558   -2230.8695    6743.1788    78.619745    21.792311    25.385169 
 5183600    226.52987   -628.95893    216009.12   -20564.377    1317.3982   -21881.775   -2032.4714    6742.0858    78.620929    21.793875     25.38449 
 5183800    222.36558   -512.16476    216009.12   -20592.663    1293.1805   -21885.844   -1536.4197    6738.6359    78.620771    21.793452    25.388324 
 5184000     218.4098   -602.48449    216009.12     -20580.3    1270.1754   -21850.475   -1892.3177    6743.2601    78.621738    21.793733    25.387056 
 5184200    226.03454   -656.22584    216009.12   -20463.189    1314.5175   -21777.706   -2125.1163    6742.5245     78.62216    21.793497    25.389199 
 5184400    224.64513   -539.00589    216009.12   -20529.995    1306.4373   -21836.432    -1608.817    6738.6409    78.624567    21.792846     25.38488 
 5184600    228.67933   -644.40337    216009.12   -20464.906    1329.8984   -21794.804   -2151.9074    6742.1644    78.625202    21.792115    25.378614 
 5184800    229.97508   -732.19936    216009.12   -20523.684     1337.434   -21861.118   -2488.0912    6743.0948    78.625796    21.793478    25.382687 
 5185000    224.80542   -583.81467    216009.12   -20533.015    1307.3695   -21840.385   -1859.1885    6739.4533    78.626948    21.793438    25.391012 
 5185200    226.62611   -607.45498    216009.12   -20500.101    1317.9578   -21818.059   -1906.4056    6741.9629    78.627257    21.792846    25.390353 
 5185400    221.14375   -709.82557    216009.12   -20533.428    1286.0748   -21819.503   -2354.2853    6746.2402    78.627346    21.793271     25.39399 
 5185600    230.66397   -545.72884    216009.12   -20500.357    1341.4402   -21841.797   -1711.2989    6740.2588    78.627577    21.793218    25.391607 
 5185800    230.26079   -696.16657    216009.12   -20517.871    1339.0956   -21856.966   -2334.4425    6743.9829    78.627732    21.792172    25.397106 
 5186000    227.73508    -657.0236    216009.12   -20472.539    1324.4071   -21796.946    -2152.775    6745.2696    78.626847    21.792485    25.397636 
 5186200    228.37538   -445.10917    216009.12   -20495.563    1328.1308   -21823.693    -1234.346    6741.9246    78.625645    21.793065    25.394022 
 5186400    226.72307   -685.42459    216009.12    -20510.75    1318.5217   -21829.271   -2299.2615    6744.6722    78.624919    21.792417    25.395198 
 5186600    231.21968   -672.38308    216009.12   -20501.898     1344.672    -21846.57   -2222.2234    6744.1068    78.625249    21.792787    25.403705 
 5186800    227.33277   -548.74923    216009.12   -20504.078    1322.0675   -21826.145   -1708.8197    6741.4837    78.626275    21.793793    25.405935 
 5187000    227.62921    -690.5499    216009.12   -20523.175    1323.7914   -21846.967    -2299.954    6746.2186    78.626739    21.794211     25.40111 
 5187200    225.96784   -622.88801    216009.12   -20484.967    1314.1296   -21799.097   -2034.3887    6741.2666    78.627873      21.7948    25.399469 
 5187400    230.32889   -557.88003    216009.12   -20495.126    1339.4915   -21834.618   -1754.3672    6741.8712      78.6292    21.794633    25.399559 
 5187600    224.72849   -681.86365    216009.12   -20537.514    1306.9221   -21844.436   -2301.0409    6744.5556    78.629969    21.794824    25.393745 
 5187800    227.25571   -675.95413    216009.12    -20490.55    1321.6193   -21812.169   -2206.7233    6742.7637    78.630481    21.793242     25.39207 
 5188000    226.50814   -553.96866    216009.12   -20515.445    1317.2718   -21832.716   -1731.1948    6739.6086    78.630004    21.793308     25.39439 
 5188200    227.33065   -711.01814    216009.12   -20468.547    1322.0551   -21790.602   -2399.8224    6745.4373    78.630648    21.793281     25.39561 
 5188400    227.45764   -711.02825    216009.12   -20506.541    1322.7936   -21829.335   -2405.9715    6744.4643    78.630447    21.793069    25.391271 
 5188600    221.72895   -572.68613    216009.12   -20511.772    1289.4781    -21801.25   -1789.2829    6739.8571    78.631139    21.793429     25.38665 
 5188800    230.97511   -679.63359    216009.12   -20562.102    1343.2497   -21905.351   -2250.9227    6744.6057      78.6329    21.793613    25.386484 
 5189000    227.82016   -694.20003    216009.12   -20553.147    1324.9019   -21878.049    -2316.857    6743.7048    78.632779    21.792955    25.388291 
 5189200    226.84578   -602.48716    216009.12   -20544.744    1319.2353   -21863.979   -1939.0472    6741.5785    78.632751     21.79365     25.38942 
 5189400    222.37496   -692.99913    216009.12   -20601.812     1293.235   -21895.047   -2300.9463    6743.1375     78.63331    21.793795     25.38876 
 5189600    222.54961   -610.36045    216009.12   -20547.612    1294.2507   -21841.863   -1935.9917    6743.2661    78.633006    21.793426    25.390774 
 5189800    228.00542   -488.44036    216009.12   -20508.352    1325.9793   -21834.332   -1430.9017    6737.6636    78.633468    21.793522    25.394973 
 5190000    229.32294   -563.63603    216009.12   -20543.605    1333.6414   -21877.246   -1735.1566    6740.4313     78.63326    21.793396    25.392228 
 5190200    229.25702   -664.14363    216009.12   -20518.408     1333.258   -21851.666     -2216.31    6742.4475    78.633733    21.792266     25.39433 
 5190400     223.2083   -591.72452    216009.12   -20529.982    1298.0814   -21828.063   -1907.5532     6740.362    78.633745    21.793451    25.390676 
 5190600    236.26226   -628.06242    216009.12   -20463.732    1373.9975    -21837.73   -2051.1825    6741.5625    78.634458    21.793559    25.391634 
 5190800    224.44713   -688.63544    216009.12   -20538.408    1305.2859   -21843.694   -2268.3086    6741.7469    78.633927    21.793854    25.390297 
 5191000    230.65525   -640.82265    216009.12   -20514.812    1341.3895   -21856.202   -2106.5175    6743.1629    78.634858    21.794166    25.377642 
 5191200    232.74407   -623.29175    216009.12   -20506.182    1353.5372    -21859.72   -2052.7465    6744.6675    78.635035     21.79382    25.379562 
 5191400    228.65954    -648.5133    216009.12   -20534.409    1329.7834   -21864.192    -2164.634    6744.2997    78.635997    21.794149    25.379352 
 5191600     221.9296   -606.08043    216009.12   -20547.228     1290.645   -21837.873   -1969.7245    6741.4983    78.636048    21.793272    25.378938 
 5191800    226.58224   -578.23406    216009.12   -20539.034    1317.7027   -21856.737    -1776.768    6740.9838    78.638448    21.793427    25.379289 
 5192000    232.15489   -586.63766    216009.12   -20488.013    1350.1108   -21838.124   -1868.3379    6741.7646    78.641283    21.793192      25.3918 
 5192200    231.82077   -547.85737    216009.12   -20461.442    1348.1677    -21809.61   -1675.3786    6741.1115    78.640936    21.792946    25.391787 
 5192400    220.85207   -655.82232    216009.12    -20526.86    1284.3785   -21811.238   -2142.9018    6743.7525    78.641718    21.792073    25.396704 
 5192600    228.29147   -590.62685    216009.12   -20513.271    1327.6429   -21840.913    -1877.926    6742.6414    78.641938    21.791788    25.397575 
 5192800    226.62494   -627.00767    216009.12   -20533.265     1317.951   -21851.216   -1985.5636    6743.5168    78.642122    21.790938    25.400002 
 5193000    225.17872   -586.66118    216009.12   -20507.723    1309.5405   -21817.264   -1821.6041    6743.6012    78.643528    21.788686    25.397012 
 5193200    221.07031   -694.83319    216009.12   -20581.088    1285.6477   -21866.736   -2337.0103    6744.3122    78.642839    21.788415    25.391814 
 5193400    228.95615   -645.49317    216009.12   -20503.601    1331.5083   -21835.109   -2093.8122    6742.4275    78.644103    21.787798    25.396952 
 5193600    223.00772   -700.63048    216009.12   -20529.792    1296.9149   -21826.707   -2354.5838    6742.3772    78.644152    21.785832    25.399156 
 5193800    225.31123   -612.05942    216009.12   -20508.862    1310.3111   -21819.173   -1957.0599    6744.9117    78.644202    21.785429    25.397166 
 5194000     231.4094   -628.01693    216009.12   -20508.267    1345.7753   -21854.042   -2067.4252    6743.6834    78.645129     21.78631    25.397772 
 5194200    224.65821   -599.13493    216009.12   -20579.452    1306.5134   -21885.966   -1927.1554    6742.1983    78.645469    21.784409    25.390937 
 5194400    221.57841   -673.77241    216009.12   -20555.217    1288.6026    -21843.82   -2212.5986    6743.0871    78.646239    21.784248    25.384693 
 5194600    227.84733   -643.78679    216009.12   -20528.093    1325.0599   -21853.153   -2080.8022    6743.7806    78.646572    21.785012    25.389789 
 5194800    227.10135   -620.61722    216009.12   -20482.162    1320.7216   -21802.884   -2030.4307    6743.4605    78.646222    21.783454    25.391209 
 5195000    230.72808   -724.55633    216009.12    -20535.42    1341.8131   -21877.233   -2452.7459    6744.1742    78.645226    21.783203     25.38925 
 5195200     231.0773   -653.93748    216009.12   -20454.682     1343.844   -21798.526   -2164.4217    6743.6405    78.644367    21.783006    25.393357 
 5195400    226.20682   -532.62269    216009.12    -20521.78    1315.5194     -21837.3   -1578.9687    6740.3715    78.643355    21.781561    25.386044 
 5195600    228.72701   -709.05641    216009.12   -20484.925    1330.1757   -21815.101   -2396.5912    6743.3337    78.642878     21.78017     25.38976 
 5195800    226.30834   -648.28928    216009.12   -20569.911    1316.1098   -21886.021   -2131.1898    6742.4939    78.642348    21.779362    25.390283 
 5196000    226.77616    -638.2177    216009.12   -20476.448    1318.8305   -21795.278   -2111.1152     6742.155    78.642761    21.778763     25.38719 
 5196200      224.229   -721.55522    216009.12   -20501.628    1304.0173   -21805.645    -2426.032     6742.227    78.643372    21.776557     25.39291 
 5196400    229.59857   -642.76322    216009.12   -20547.834    1335.2443   -21883.078   -2112.1857    6742.2557      78.6437    21.775359    25.391514 
 5196600    227.65812   -619.25393    216009.12   -20506.226    1323.9595   -21830.186   -1965.7787    6742.3974    78.643576    21.775373    25.390286 
 5196800    229.58504   -660.30401    216009.12   -20525.481    1335.1657   -21860.647   -2128.3869    6742.9199     78.64283    21.775155    25.395391 
 5197000    231.19982   -651.88395    216009.12   -20520.704    1344.5565    -21865.26   -2118.3683    6742.7123    78.643968    21.774588    25.384396 
 5197200    233.72522    -616.7688    216009.12   -20502.708    1359.2432   -21861.951   -1977.3945    6742.0961    78.643277    21.773041    25.385747 
 5197400    222.09793    -641.7917    216009.12   -20559.706    1291.6239    -21851.33   -2083.1187    6740.1581    78.644409    21.771909    25.388863 
 5197600    231.68202    -607.5546    216009.12   -20564.461    1347.3608   -21911.822   -1943.1382    6744.5546    78.645019    21.770832     25.38582 
 5197800    231.78478   -686.52806    216009.12   -20572.876    1347.9584   -21920.835   -2290.3924    6743.6897    78.643883    21.769928    25.390977 
 5198000    223.09455   -646.10783    216009.12   -20607.248    1297.4198   -21904.668   -2099.7752    6743.3588    78.644385    21.771338    25.388949 
 5198200    232.52824   -646.94447    216009.12    -20505.95     1352.282   -21858.232   -2134.7913    6743.9376    78.644608    21.770991    25.390306 
 5198400    229.29965   -635.43401    216009.12   -20507.033     1333.506   -21840.539   -2074.4048    6743.9093    78.643743    21.771187     25.38737 
 5198600    232.46947   -590.83077    216009.12   -20516.071    1351.9402   -21868.011   -1869.2383    6744.9155    78.644285    21.771112    25.385876 
 5198800    223.86511   -562.63295    216009.12   -20586.915    1301.9011   -21888.816   -1764.7059    6742.6389     78.64292     21.77137    25.382053 
 5199000    226.62302   -597.47297    216009.12   -20547.179    1317.9399   -21865.119   -1943.1454    6745.1841    78.642724    21.770079    25.385131 
 5199200    228.34171   -602.55862    216009.12   -20442.574     1327.935   -21770.509   -1948.4069    6742.6386    78.642471    21.770239    25.385436 
 5199400    221.74335   -578.22585    216009.12   -20556.946    1289.5619   -21846.508   -1865.8145    6743.1584     78.64266    21.769463    25.384219 
 5199600    223.11723    -667.5497    216009.12   -20545.503    1297.5517   -21843.054   -2205.4579    6746.0159    78.641666    21.767498    25.391633 
 5199800    227.85896   -530.22132    216009.12   -20520.399    1325.1276   -21845.526   -1581.9785    6742.8944    78.642558    21.765734    25.386045 
 5200000    226.51961   -591.38133    216009.12   -20524.946    1317.3385   -21842.284   -1871.2133    6743.4925    78.644735    21.765121     25.39499 
Loop time of 6860.52 on 160 procs for 5200000 steps with 9248 atoms

Performance: 654.878 ns/day, 0.037 hours/ns, 757.960 timesteps/s
97.8% CPU use with 160 MPI tasks x no OpenMP threads

MPI task timing breakdown:
Section |  min time  |  avg time  |  max time  |%varavg| %total
---------------------------------------------------------------
Pair    | 0.24868    | 1406       | 5606.9     |5066.5 | 20.49
Neigh   | 0.31032    | 89.359     | 358.09     |1228.7 |  1.30
Comm    | 11.094     | 1758.7     | 5527.5     |4485.1 | 25.64
Output  | 89.583     | 89.653     | 91.618     |   1.7 |  1.31
Modify  | 216.36     | 3417.6     | 6668.1     |4699.2 | 49.82
Other   |            | 99.18      |            |       |  1.45

Nlocal:    57.8 ave 196 max 0 min
Histogram: 72 26 22 0 0 0 0 0 13 27
Nghost:    536.462 ave 914 max 0 min
Histogram: 17 7 0 8 8 32 34 19 20 15
Neighs:    0 ave 0 max 0 min
Histogram: 160 0 0 0 0 0 0 0 0 0
FullNghs:  5869.38 ave 23527 max 0 min
Histogram: 112 8 0 0 0 0 0 1 20 19

Total # of neighbors = 939100
Ave neighs/atom = 101.546
Neighbor list builds = 541119
Dangerous builds = 0
write_data 		${DIR}/data.${NAME}_run
write_data 		run_27/data.${NAME}_run
write_data 		run_27/data.ibeam_cooling_27_run
Total wall time: 1:54:35
