LAMMPS data file via write_data, version 29 Oct 2020, timestep = 60610

970 atoms
1 atom types

0.0 68.908 xlo xhi
0.0 68.92587069519459 ylo yhi
0.05088207002802747 11.949117929971834 zlo zhi

Masses

1 18.015

Atoms # atomic

129 1 21.70030415306641 1.884087985020955 1.6295054180643185 0 1 -1
164 1 20.584975709502547 0.31534590487859315 3.4946862743518765 0 0 0
13 1 20.872278864779638 4.735288609687525 3.154892027918604 0 0 1
27 1 18.331743433066375 6.109605285205533 3.1816364684514817 0 0 1
15 1 18.724239702186605 5.4813416553436545 5.99815167037203 0 0 1
34 1 20.408173629914973 9.337161453869737 4.218684201731407 0 0 1
36 1 17.22141164101703 13.060990578406335 3.312037109313861 0 0 2
32 1 17.707358800933914 11.811479225353828 0.7227001812127732 0 0 1
196 1 20.552084601751478 11.067318961661217 1.2051385364298353 0 0 0
23 1 21.40239842473588 13.585765152327964 2.7516160646293417 0 0 0
377 1 19.106336086499752 15.272225350321078 3.3157232492102025 0 0 1
442 1 19.109733767840897 15.89350275651495 0.4088254761785749 0 0 2
76 1 19.993871043644077 16.933225573390676 8.250981819719694 0 0 1
159 1 17.577143232894016 0.7995451496710276 7.182304732333636 0 1 -1
38 1 21.541149408646042 0.7251801894493384 6.251634713764077 0 0 0
9 1 17.34793084562622 4.267582932488329 8.369780585231164 0 0 -1
12 1 19.58674353887217 2.5445296122415315 7.397878593097374 0 0 1
37 1 21.53330009465336 4.283344872756906 5.7187544991334285 0 0 0
6 1 20.4439037150391 7.678188900217747 6.632468532041624 0 0 0
451 1 21.755262208830203 16.718851965228314 11.523928726518784 0 0 0
176 1 18.746808469965035 11.450971817529599 4.85711502042695 0 0 0
77 1 18.209940755930084 11.202665508211073 7.4066327825893925 0 0 1
48 1 20.85366882151847 13.32013770624183 5.570667684696018 0 0 1
60 1 18.711429306401897 15.455464773243065 6.096797759539181 0 0 0
59 1 17.679067293376857 13.793581578545133 7.941668482079637 0 0 0
4 1 21.66307567733013 14.860886300723358 9.130848871750771 0 0 0
8 1 22.63957312675626 11.07204479223679 4.346052469063083 1 0 1
162 1 19.359314527600663 2.4408765325387054 0.09319793482606897 0 0 0
22 1 17.781223847131283 4.450363144644484 0.8792499295572869 0 1 -1
11 1 17.88076720560484 5.832100740162359 10.460794297407489 0 0 1
682 1 20.74847447805629 3.5710282259196164 9.760778515487942 0 1 1
30 1 19.807637249286895 8.052909657074428 1.2353265609708666 0 0 0
692 1 21.769722814486595 6.072364624210705 10.180304783624072 0 0 0
25 1 19.852197321721007 8.055957058015531 10.119940448833814 0 1 0
31 1 22.842396829127903 9.200103473352666 1.5556905058739485 0 0 0
18 1 20.694048053450363 10.17278517392903 8.379584733021046 0 0 0
28 1 20.95133825438813 12.085405901060948 10.408976421507308 0 0 0
26 1 18.58927382100621 13.511806232294031 10.750126993769685 0 0 1
130 1 17.8103012073331 0.11855337452332776 4.292547416552829 0 1 0
29 1 22.355247308923897 6.142570314175032 1.2154818003315522 0 0 -1
167 1 18.53746076566296 0.2881251229271303 10.104040305366874 0 1 -1
33 1 22.57950484170977 1.6387547282227815 9.111458475120822 0 0 -1
53 1 18.152548657796384 20.27505636783876 1.4868588937437544 0 0 2
382 1 22.59971904549406 25.729768900872244 3.9587099347834362 0 0 0
68 1 22.57454882063727 19.580061803084465 1.023215849641263 0 0 1
72 1 18.497036143663372 22.410781558970736 3.0593373418796705 0 0 0
47 1 21.045079698137876 23.42507010318538 2.1068819771679963 0 0 -1
55 1 18.527698486654575 18.027264252584178 10.396159246224324 0 0 1
63 1 20.795016255684455 26.674627922859134 2.122230641066921 0 0 0
44 1 18.50937639547786 30.386052113236047 1.7125309770774821 0 0 0
414 1 19.30486675287418 28.8548872438618 3.795533362566258 0 0 1
66 1 22.130987593464965 17.646108170086713 2.9630814665960434 0 0 0
62 1 22.040573623038828 29.577281226030877 3.782087492550041 0 0 0
370 1 19.330489986147377 33.05015548842042 2.1600912296618384 0 0 1
349 1 19.37648000934461 18.170600413844422 3.452608914708516 0 0 1
65 1 20.471680196576543 19.95052971337544 5.705209672831322 0 0 0
74 1 22.24470949970725 18.374123079255995 7.357888789805488 0 0 0
67 1 18.376553273120244 21.98021310878623 5.896655494140636 0 0 0
64 1 20.07728896077841 23.59125217379662 7.52145277729289 0 0 -1
581 1 21.10305095557322 34.43586891748895 0.1347195357999929 0 0 0
45 1 19.929435924950997 26.415223349046702 7.249478379589578 0 0 1
69 1 22.20825840559368 23.545566261831624 5.741675298869198 0 0 0
70 1 21.591822269157095 27.713575827775855 5.730480152761386 0 0 0
91 1 18.03502878041674 30.506419613560514 5.953800707803142 0 0 -1
56 1 20.400135882932094 30.115551932117018 7.0205495764148536 0 0 1
87 1 19.012653848780715 33.10593643597329 4.882734540199582 0 0 0
628 1 21.487151292667317 31.913429361339908 5.473292450460596 0 0 -1
84 1 19.828493004886827 28.84074415480428 11.416525587128346 0 0 0
83 1 20.159093700055795 19.939565413801862 11.368019253681915 0 0 1
78 1 21.126674506458524 30.850293110285868 9.829401955847343 0 0 1
75 1 20.9035827748977 22.195545402425566 9.816507544576352 0 0 1
43 1 19.189201457606533 26.406108729109636 10.185276600826919 0 0 -2
80 1 20.62406761549481 24.56699915578472 11.398818558982235 0 0 0
50 1 21.191000520578445 33.85956174396257 9.254790399098631 0 0 -1
448 1 22.723168868421183 21.295045933788593 4.5133279559034385 0 0 -2
348 1 22.582963332304274 28.28288972908277 11.755538588015845 0 0 0
61 1 18.062429210486304 35.267743857167765 1.5396642280118615 0 0 1
106 1 18.084550592945575 37.02392569968364 11.04960991977371 0 0 -2
477 1 20.747736359904852 37.11639448766474 11.784699665748532 0 0 0
588 1 17.51998630954264 40.688922996584964 2.0097422232271165 0 0 2
539 1 22.545794608080556 49.704799327723734 3.7364940110117897 0 0 -1
538 1 21.64093313920475 37.99506897281919 2.185112259980539 0 0 0
120 1 19.90805772147254 41.472164346247894 11.413183235133484 0 0 -1
102 1 15.94295510463206 42.94159265705339 2.921484703917856 0 0 0
485 1 20.319100417918314 41.64041012341669 2.456928561315023 0 0 -1
115 1 15.176673685662218 44.93609350646093 0.7061097585191648 0 0 -1
123 1 16.457304857030348 47.44000687951206 0.11706420250346264 0 0 -2
563 1 21.06285531008953 45.16859770510121 0.43165990281903094 0 0 2
503 1 22.6026871507471 49.47751833330569 0.9011682247946193 0 0 -1
550 1 20.497485803124725 47.90291806674653 0.22231284004141827 0 0 0
86 1 18.225124600302433 48.19579211701684 1.928557314354983 0 0 -1
122 1 19.280555775549075 37.057991294713 3.4562789381820327 0 0 0
90 1 20.418638820958936 35.21305059706406 5.21899539244942 0 0 1
94 1 21.06062473769236 48.392277525258436 9.293757725318775 0 0 -1
493 1 16.60414963559995 38.87433722756341 6.779362029452858 0 0 1
108 1 18.326793679208116 39.59745724389686 4.497009190346866 0 0 1
592 1 20.7923222388539 40.6768545845057 5.419392834344194 0 0 -1
482 1 21.688239709224412 38.6894323774832 7.297668143584182 0 0 1
111 1 17.65049635645381 43.75828492875442 4.829471161192779 0 0 1
611 1 20.901904128595064 44.32623287522226 3.01271206522131 0 0 1
118 1 15.596269103890233 44.66527692326229 7.105993100923985 0 0 -1
125 1 18.93647664373421 46.307408998573344 3.805632246375847 0 0 -2
139 1 19.685162840635662 48.72424656215162 5.321077684167698 0 0 0
101 1 20.262217315055914 36.124454010862515 7.7660395727406195 0 0 -1
104 1 17.773309067411322 36.87129621717499 8.306977456282478 0 0 0
79 1 17.594191473499723 39.70456126940852 11.052633847926183 0 0 0
99 1 22.64814859875886 41.110146423198515 10.92949025277517 0 0 0
121 1 15.213246720292096 42.63028910918433 8.869683420650363 0 0 -2
119 1 16.631312610232246 44.31210071132825 10.379502445686656 0 0 0
95 1 17.186761333653564 41.02819012180566 8.536557418626046 0 0 -1
93 1 19.050929737534513 42.33105446238007 6.669070820227794 0 0 1
114 1 19.444633671532692 43.911015148902294 10.650343184134435 0 0 -1
97 1 22.62386364609773 40.7902073999354 1.6968750578100993 0 0 0
562 1 20.554994895534744 44.003488710009094 8.26284265238108 0 0 0
98 1 17.742958386137904 46.26773313873112 8.251512767160413 0 0 -2
100 1 20.51315728211625 46.946176373793286 7.080239508165646 0 0 -2
96 1 18.166877511012885 48.26858654075238 10.0551501041751 0 0 -2
612 1 22.452482885518794 47.00149052811862 4.186636239139833 0 0 -1
107 1 21.317246767263192 51.079547193374104 7.910145110398169 0 -1 -1
105 1 18.234995175703983 50.90420655220929 2.2393754534049415 0 0 -1
525 1 19.6203657594007 51.58337145885674 4.577086114609316 0 0 -1
117 1 17.88982765411996 50.90769049023312 9.782071026025598 0 0 0
599 1 21.81910498187422 51.587818546528496 11.08374532853739 0 0 0
531 1 22.66463977163457 38.210160413817015 10.077747747811038 0 0 0
113 1 19.233541357347534 52.136542202938514 11.873715329692757 0 0 -2
160 1 21.735981954387398 66.80045416903637 0.1428242382299343 0 0 0
552 1 19.785140893106664 54.76837765228574 0.3695228665291883 0 0 1
741 1 16.63471228085101 58.40816491377372 1.423077931945717 0 0 1
109 1 21.29627730550157 56.290026032521155 2.3458681833539856 0 0 1
154 1 18.365219426199285 60.254541910639176 2.3198004228140916 0 0 0
156 1 22.276597202148135 60.27679512026878 3.6371767237757533 0 0 0
163 1 21.522090235668124 55.55629616090096 5.422737229134503 0 0 -1
686 1 18.73810830919955 62.2921845979079 0.6309606880354366 0 0 1
709 1 18.984685567451972 67.00366824341283 11.826159376670738 0 0 1
155 1 16.937701483198268 66.92107720397782 2.3016021631456085 0 0 -1
153 1 18.84907109673063 64.8174931919056 2.33524783446397 0 -1 0
147 1 21.865153901614786 66.7738831472439 2.957987381926542 0 -1 -1
144 1 22.317733205263487 60.98854611489556 7.138791779393424 0 0 -1
112 1 22.03030298585931 52.47133774458312 4.5285702257857405 0 0 1
126 1 16.569931055147425 56.90578997912135 3.5302308569052134 0 0 0
134 1 18.222989765045554 65.66578501981299 9.566340610299441 0 -1 0
158 1 19.980671167682107 60.44504819406325 5.118347878607847 0 0 -1
135 1 19.341239670041556 57.54360611946838 4.051666223830076 0 -1 0
152 1 20.867595912651222 58.10725453509052 6.774675559701099 0 0 0
145 1 20.80983771517257 58.38670217967219 9.810846068201641 0 0 1
131 1 17.302683121945574 65.34366191683498 5.2471142235348145 0 0 2
166 1 19.193859320751923 63.347391137574114 6.070636434772158 0 -1 0
178 1 21.009429698729857 64.71601999585518 4.62996454383073 0 -1 0
151 1 20.583691700661163 61.32159169625368 9.344627514341852 0 -1 -1
771 1 18.464271377671377 66.97268087013597 6.948046703642795 0 0 0
127 1 21.357027182594457 66.76099786296237 6.799056015556541 0 0 0
140 1 18.726409777613284 52.14439970195522 7.1347602119580396 0 0 -1
735 1 20.51209440099657 64.39377207654856 8.33651617178311 0 0 -1
138 1 18.073821704916092 56.708746761989296 11.498788094535563 0 0 0
150 1 18.342442752400345 56.52412518342195 6.751762441533867 0 -1 -2
89 1 21.51916600614893 55.48400858619125 10.065237771928297 0 0 -1
124 1 20.042626861865653 54.49192078972766 7.694506808140168 0 0 -1
142 1 20.364535551205723 58.376217304808364 0.698054459507912 0 0 1
103 1 18.23835028257062 57.90586659948634 9.117984909388642 0 0 0
17 1 21.098570361369823 68.2661836889035 9.290837450804156 0 0 0
133 1 17.744902092448605 60.75479665079762 10.00532580348139 0 0 -1
751 1 21.54338695878357 62.155281813435394 0.09758001506138214 0 -1 -1
141 1 22.88785535049823 64.37508345555386 11.298042318128953 0 0 1
16 1 24.567240259062885 2.9799408528390643 2.6316112724074436 0 0 0
440 1 28.786347353417103 16.900693594687365 1.4059695368406262 0 0 0
194 1 44.91633730267021 12.055481934795182 8.947510982138425 0 0 0
179 1 28.94517780108074 3.1847741321624676 0.6291740087404728 0 0 -1
722 1 32.75677189543098 1.6775763439273772 10.545767615592048 0 1 0
342 1 32.254893531595165 16.55798998536289 10.742982004834673 0 0 0
640 1 31.461044463723223 3.428507575333972 2.684763592749087 0 1 -1
286 1 33.39895278975385 3.5367541295575666 0.6755743900087668 0 0 1
737 1 35.14004189309348 1.3799851643017487 1.3882180718763524 0 1 0
679 1 25.52809258877107 0.09341354510067465 1.719027856217646 0 0 0
313 1 45.062574736887726 14.696049763511574 10.98497073231275 0 0 -1
230 1 44.85532322776788 1.010429635186272 3.5304858515067425 0 0 -1
774 1 37.75712982589033 0.30160754025271963 5.327062032196526 0 1 1
221 1 26.152904641927346 3.2819620447717073 11.899486218702245 0 0 -2
20 1 25.434312571985046 6.007626649233351 2.7889536599894553 0 0 1
306 1 30.077207331831094 5.876510740045267 2.9472026011469126 0 0 0
268 1 28.30851958305667 3.341783381106816 3.4986125873991187 0 1 0
290 1 38.27377358280303 4.484706128336243 0.6743987946699253 0 0 -1
229 1 37.89944080485054 5.033026613122658 3.576444237330371 0 0 -1
238 1 42.57555190503146 6.1725378231344035 0.6302671342412216 0 0 0
289 1 42.625958486955945 8.687337094874815 3.3219189588092086 0 0 -1
280 1 44.70984036835928 6.550981919440561 2.6743981661336242 0 1 1
7 1 24.23388608658937 8.12524212703267 3.811346164423592 0 0 0
203 1 43.85764199341106 16.519678562707487 8.306620524774681 0 0 0
293 1 27.821074763565992 7.773483711748133 1.870276192731146 0 1 1
262 1 29.628801871139892 10.011317893460175 2.590975692190564 0 0 -1
189 1 32.68932698044807 9.307126111499139 0.5753557191077726 0 0 1
49 1 33.93859094110125 6.984446244167028 2.0218830401741856 0 0 2
295 1 35.08638247023642 9.092810956798479 3.5140071184356887 0 0 1
227 1 39.34247994724781 7.20976275834079 11.854134548848128 0 1 1
287 1 39.5380322764194 9.241179680662553 3.7436650973655388 0 1 1
291 1 40.72214282803625 6.616358690877667 2.6179246014141166 0 1 -2
270 1 42.71801973462239 10.693194997955887 1.3168952476024482 0 0 0
373 1 26.193728702447313 11.88402610900526 2.3171811565404634 0 0 2
208 1 28.57272059954127 12.25613110154543 0.8884311493728687 0 0 0
285 1 32.24348121472332 11.412815247171034 2.5783925652920123 0 0 0
255 1 35.558560691457984 11.362216826222383 2.268087487201424 0 0 1
336 1 38.02064288785533 10.34377277596586 1.3772813879136954 0 0 -1
244 1 38.79969405048035 12.949406320657321 0.8462562957298666 0 0 0
296 1 41.24921299583679 12.997483853524967 1.73702820330509 0 0 1
803 1 45.00660382310518 12.130304601129646 0.6977721928802527 0 0 1
300 1 41.55577877396542 1.4624943637403203 10.847703531054293 0 0 -2
263 1 25.763918656750473 14.579016162378943 2.8761824857836427 0 0 0
54 1 27.415621596215612 15.014904879688435 0.05592893214754291 0 0 1
204 1 45.809555307632365 10.078993733107154 10.526871589860177 0 0 -1
254 1 30.838629463368964 13.916680194813523 1.599762699206454 0 0 1
211 1 33.57309686594171 15.336814481595304 1.2395865744413783 0 0 1
269 1 36.15876086593094 16.684533037802098 1.6623441695173427 0 0 0
319 1 38.15324786975605 14.983325343958228 2.7718990434344675 0 0 0
209 1 42.016937288902696 16.687384202447447 1.164465997347027 0 0 -1
298 1 42.21771828764167 14.378440268653346 11.535707824291686 0 0 -2
202 1 40.773287187635276 15.284809686587437 3.246033536329439 0 0 -1
266 1 23.993698863274027 2.222172242394607 5.332342332143099 0 1 0
220 1 27.328665614063027 0.8082650656017364 3.973635518037249 0 0 -1
303 1 26.305313564727854 0.5850003503485929 6.414998511733589 0 0 0
173 1 30.84813216478044 1.4405800883595652 6.765401545192094 0 0 -1
272 1 35.42401846462879 3.7228780138679443 4.2919975953997485 0 1 0
35 1 23.156471225313588 0.11460615427299126 11.673527672012554 0 0 -1
721 1 28.028273199809117 0.24399754842416363 0.3041853599338821 0 0 0
175 1 39.946263972775085 1.1037568921309202 2.9772263556384195 0 1 1
279 1 37.770196544177935 1.9578022899134695 1.0221615660147454 0 0 -1
186 1 41.48232441693891 0.9367891165319184 7.0546641415380495 0 0 -1
232 1 24.842012244197573 4.12971986808964 7.176601439299644 0 0 0
14 1 27.00575502411749 5.414071037510791 5.471095903617442 0 0 0
481 1 29.62788631707466 4.1361385456239 6.325844296806103 0 0 0
174 1 33.29478582164076 5.030783941291932 3.8310976844468603 0 1 0
304 1 31.708570778926738 6.217552150310733 5.798995122164478 0 0 0
233 1 37.93651268537677 3.2908484520230457 9.249086210070685 0 0 0
210 1 43.4936703793092 3.4176290231092157 2.008731718071598 0 1 -1
184 1 40.883496995048034 3.9162978073042933 3.5943694705695135 0 0 0
187 1 44.69875620717756 4.851432884368637 4.553749106046436 0 1 0
3 1 26.749478365166876 9.76173431502561 3.8947742329359856 0 0 1
42 1 27.134907696462783 10.10521936132776 6.320562782251737 0 0 0
245 1 27.86112382411401 7.554590856523221 7.091223375497109 0 0 0
337 1 29.601687794645375 7.970828462900258 4.909276266758927 0 0 -1
246 1 33.56447420361457 9.421562619633306 5.949331950787033 0 0 1
183 1 37.3386419921629 7.718562054922901 4.106855808448803 0 0 0
258 1 41.16483186899528 6.7309784640058785 7.127129020476751 0 0 -1
226 1 38.75906700906748 8.152210855573221 6.695178503407487 0 0 -1
301 1 43.08697768067085 8.725257686163522 7.706389311252144 0 0 0
10 1 22.984897669225187 6.635553472342891 6.18745495218182 0 0 0
316 1 38.109102014020145 13.827617864051035 10.12758781639198 0 0 -1
302 1 28.122830068186882 12.331461003354239 7.6428006246646625 0 0 0
381 1 31.245930034468383 10.239455819130866 5.334659716100173 0 0 0
437 1 30.528246004798486 12.926906776757782 6.319869798978069 0 0 0
206 1 35.13293651803792 11.908159782917595 6.411994218109902 0 0 0
256 1 39.412086481165936 11.78009092968462 5.196769997218331 0 1 -1
248 1 36.946130963771104 12.644059475465111 4.239437202296391 0 0 0
250 1 41.91953233085167 12.87625534209731 5.709467774814445 0 0 0
297 1 43.856214850848716 12.972881325128146 3.562027057905525 0 0 1
257 1 42.34626172872861 11.297907648193636 7.9105711357042 0 0 -1
40 1 24.902063771781282 15.110910051034764 5.813661141037669 0 0 0
340 1 27.752929067819597 16.293935194567624 3.5910978227080723 0 0 1
58 1 26.84106097532907 15.031799121552329 7.4679939902059145 0 0 0
326 1 29.98291450358997 14.58736473321199 4.18926134328574 0 0 -1
458 1 32.363965032081225 15.847158355759147 4.613178276064715 0 0 0
197 1 34.80354118654245 15.136486655527357 5.647500134646038 0 0 0
320 1 37.28152012407425 15.878861822875487 5.112118886446261 0 0 -1
329 1 23.166722981506876 15.25358755617584 1.9260870949934719 0 1 1
260 1 41.4963985693427 15.835416643463006 5.879694851531719 0 1 -2
804 1 45.327852856788056 15.416828566144483 4.1905363361493375 0 0 1
24 1 23.06250056257862 10.897220644135482 7.156986499886382 0 0 -1
278 1 35.130957072737246 0.7636468707744388 4.061787745942312 0 1 -2
294 1 42.41819505569877 0.5113963611195239 1.540892052915413 0 1 -1
201 1 35.39962855672621 14.815929030419458 10.692067945781444 0 0 0
282 1 31.192564568956023 4.639870834995078 11.181208518283936 0 0 -1
324 1 29.85514416673206 1.4031767454855157 10.042895007324146 0 1 -1
276 1 33.036181517933734 2.93318907060682 7.938843881708696 0 0 0
234 1 35.79668052789224 2.652022160981883 7.049338280969469 0 0 -1
277 1 38.883806582686965 1.0450981873839456 10.682902755119745 0 0 -2
739 1 39.428152575342246 2.7855798581442817 5.988141519090635 0 0 0
21 1 23.055086879741246 13.64461796801843 7.178963799993509 0 0 0
649 1 31.86506641031271 0.9075785158095825 4.082960877436359 0 0 -1
236 1 43.51444695652436 1.7931008422605663 9.145026887399368 0 0 -2
734 1 24.847125644627557 5.80484494664177 11.623341310576352 0 0 -2
39 1 24.016336048142758 6.353566293743092 8.856488397005453 0 0 1
701 1 26.184086993749673 2.616750667615825 9.06477331303999 0 1 1
284 1 30.75200994371126 7.217533083494866 0.6874284750783809 0 0 1
231 1 29.211782401140475 6.724643678974821 9.461197260391783 0 1 -1
241 1 28.887075103991474 3.762410528304052 8.959319098061448 0 0 -2
19 1 35.31047319984834 5.2778311285849435 9.411333986942246 0 0 0
171 1 32.36122008950403 5.07489627394927 8.73045158249377 0 0 -2
169 1 41.1802483454008 4.172933513130075 11.164654838446497 0 0 0
235 1 43.13268398509228 4.664556836227405 8.919171645071431 0 0 -1
215 1 45.622560928188896 5.824122317958033 9.894482682537003 0 1 -2
299 1 42.5029871466594 4.61806956007912 6.083854878176744 0 0 -2
218 1 25.00347713776069 9.141718107667925 8.185295912847572 0 0 -1
181 1 26.273872164687273 10.062051721947176 10.374431909932742 0 0 -2
41 1 27.118019640676792 7.5213668229806965 10.969165728765056 0 0 0
200 1 30.949730215823184 8.885503658344097 10.05329935630784 0 0 0
283 1 35.48241339536208 5.526973184948351 0.4352166337434596 0 0 0
318 1 33.50342647582298 8.460345811460435 8.538697667718113 0 0 0
219 1 36.566884132709376 7.535017858316663 8.313491124150268 0 0 -1
182 1 36.809445588230744 8.270575119607015 11.561218864141674 0 0 -2
191 1 41.458023043642676 9.378503446374118 11.160212963121978 0 0 -1
288 1 39.47484724142788 5.633281825352858 9.390319483125737 0 1 -1
251 1 43.77941235239864 8.048492157269935 10.651369367487568 0 0 -1
5 1 24.507591525517633 11.217520045594062 0.4389112243983262 0 0 0
305 1 30.10268649706493 15.215275271577353 10.303801130059373 0 0 -1
242 1 29.057380112821416 11.304642841779916 10.09120693505408 0 0 -1
317 1 32.956070906214165 13.364693850430541 7.485682732063081 0 1 0
198 1 31.808408704389095 13.077589504646701 9.989419299814783 0 0 0
199 1 34.04086291994915 12.60175711315416 11.87762158172524 0 0 -2
168 1 34.72306926154226 10.233758010215356 10.528216662026667 0 0 0
190 1 39.00433197447028 10.708173603876878 7.8275687879556495 0 0 1
243 1 36.70796464805944 11.756984423210909 8.900368532982032 0 0 0
247 1 41.53894609563405 14.56343609850677 8.759832008499657 0 0 0
308 1 40.432221509472036 11.852623894147822 10.103018280929989 0 0 -1
322 1 39.180563681724635 16.332876904055933 9.198717654921976 0 0 -1
73 1 25.25599748368102 15.550454202552704 10.06756671515584 0 0 1
431 1 29.035024229830405 16.619516443596577 8.17409129083176 0 0 0
264 1 34.28744837974305 16.143515343960498 8.483041333676306 0 0 -1
253 1 45.51222662288402 4.278417831317469 0.3749638316186475 0 0 -1
188 1 23.42322888635853 13.57519375940885 11.257208659662448 0 0 -2
170 1 45.209368092999284 11.937629941409936 6.014430256623524 0 0 0
310 1 44.375981657316494 9.21354729186682 5.654817134402218 0 0 1
237 1 45.7861370255421 2.039190465217914 10.599149015742807 0 1 -2
328 1 45.81839962893802 14.475497303231162 8.245849996077228 0 0 -1
271 1 39.42513969313565 17.140772128562173 6.64332017327974 0 0 1
398 1 27.088976420472573 18.558558751104588 11.798892171531953 0 0 -1
307 1 30.968602325123957 18.820515761405442 1.6066623168771859 0 0 -1
267 1 33.1936920261232 18.114165674935784 2.9797115045326428 0 0 0
388 1 33.71882629204312 20.99435410713654 2.068805512524377 0 0 0
213 1 37.88005125815057 17.343713925478053 11.470305925085022 0 0 -1
441 1 36.393004995128194 20.326335378116582 1.432485852097148 0 0 0
311 1 39.77088764002547 18.551173274115058 1.2236828459842692 0 0 0
456 1 42.70911222153576 19.984944535928598 1.9605714803350458 0 0 -1
222 1 44.608613486907785 18.353698484887698 0.8334670116312728 0 0 0
380 1 26.146524989423973 20.52245699836463 1.6803030989558354 0 0 1
447 1 25.15086936402489 24.96650845765534 2.019885651842862 0 0 0
341 1 29.414625972576072 24.533385816520614 1.3282066005565902 0 0 1
397 1 27.780091909968228 22.439412468262447 2.651400809356969 0 0 0
383 1 34.07367868336456 23.04476033309912 3.8859027467149847 0 0 0
419 1 32.63208931122704 21.398039929543355 11.59208264138789 0 0 -1
376 1 38.32944201429308 22.18771829958036 2.3217227698355205 0 1 1
463 1 40.401421953413674 21.12360942732487 0.4339390346416689 0 0 -1
347 1 40.8718829720067 22.575777827051596 3.310901770667255 0 0 0
192 1 45.51420002916162 17.737069547752917 10.15060227671289 0 0 -1
449 1 27.21450045247462 25.99894759582566 11.813619693425645 0 0 -1
402 1 32.28003194752442 29.650467159046084 0.10271173289623073 0 0 1
350 1 31.082959593142 26.10506144012597 3.1414443676513155 0 0 0
332 1 33.64202638567954 27.153622011501852 1.6012083078881891 0 0 0
407 1 36.25179365616175 26.09128834870414 4.188408612764597 0 0 -1
410 1 38.99938632333328 25.83224502357913 3.993447564840602 0 0 -1
838 1 42.05357653339832 24.962949395189494 2.527384520097382 0 0 0
356 1 38.68058222952373 23.804058966972615 9.853730635800591 0 0 0
424 1 44.65998073787026 25.07302641239691 1.1585504958354524 0 0 0
309 1 41.866484914562186 17.813582904317656 10.112153495450164 0 0 -1
466 1 24.43626712847486 28.913949158707176 2.0105368613260737 0 0 1
394 1 27.289874303519817 28.421525474903827 1.175510307149413 0 0 0
362 1 28.470261546708777 28.75747507165467 3.6951874453261073 0 0 1
427 1 31.575910440527338 28.885572730933745 3.0712443101715534 0 0 0
353 1 35.34215013331181 29.55560765489071 1.496747854377017 0 0 2
405 1 38.05877930742042 29.45067558501988 0.5996895992801536 0 0 1
434 1 35.97714589509424 28.957424292263298 4.16166777100037 0 0 0
408 1 39.96993918594127 30.056498530348144 3.0201004019475572 0 0 0
475 1 43.67460668292374 28.18928765418839 2.4494245164899113 0 0 0
403 1 23.218780430659596 25.676557075158343 11.878760382837173 0 0 -1
57 1 25.684331077229935 31.881254660995047 1.8037083994752798 0 0 0
404 1 24.40653062654512 19.538582627231634 8.753395448863095 0 0 -1
467 1 24.266971677923202 32.295537483207724 4.272399156139924 0 0 -1
490 1 28.159716757008542 32.816773365955044 2.2960800488138013 0 0 0
85 1 30.523887242730463 32.00065423360458 0.5713528418332086 0 0 1
554 1 32.81152763267759 33.90991084569124 1.317225452293011 0 0 -1
393 1 34.4449574311231 32.28040423711942 5.112038179869043 0 0 0
457 1 34.90978930660364 32.472294882213575 2.3681433712818327 0 0 1
845 1 38.83185197457999 32.31663793788688 0.9019832095800885 0 0 0
858 1 37.33427132077566 33.649890943154126 2.856910280823342 0 0 1
429 1 25.21911613975359 34.1693073688798 10.864378157259377 0 0 0
844 1 43.750849920677325 31.586544441429258 1.5884202343063674 0 0 0
2 1 26.20371236693445 18.837976098100917 4.026417427324524 0 0 1
455 1 45.60421439983401 25.67055823698564 10.126444180681366 0 0 -1
452 1 29.774570697741773 20.6137666093304 3.615816671335155 0 0 0
265 1 28.773844758798365 18.70995446440307 5.320974238217655 0 0 -1
384 1 30.889782206888704 21.54496336152014 8.01439844924091 0 0 2
331 1 31.130896880015786 17.499905616791775 6.510557404654389 0 0 0
359 1 36.16984166205906 18.306271027447202 3.787818062357662 0 0 0
314 1 33.96467036652756 19.659131432780203 5.417108015048465 0 0 0
214 1 38.73527112249004 19.348647972948275 3.7354718233818343 0 0 0
443 1 38.75880070182584 19.967322090226045 6.989465025242413 0 0 1
371 1 41.56586044875625 18.385388862881882 4.167848588758602 0 0 -1
453 1 44.2697586637784 20.33276461892638 7.302129937437602 0 0 2
476 1 40.37139539891573 33.566679745466686 5.081478029655435 0 0 0
358 1 24.31331067654514 23.318087191730545 7.757537279616617 0 0 2
46 1 24.883115835243416 20.296069552674183 6.068416918889986 0 0 0
462 1 31.538259850741998 21.84457675755787 5.342513152917772 0 0 0
327 1 36.981977647927955 23.19589932271836 4.832822288401355 0 0 0
330 1 36.03616191023692 21.14619784610965 6.526207311897585 0 0 0
421 1 35.259342660279216 23.785186149821477 7.9310002595790445 0 0 1
334 1 41.1005072881024 20.80133296616641 5.710853596060999 0 0 0
345 1 40.22735581432535 23.884097891760607 5.766435143630819 0 0 -1
465 1 43.96426948369085 26.4852975435893 5.059596574926726 0 0 -1
444 1 43.71504646298519 22.525457097153573 5.759295126216303 0 0 -1
395 1 27.250986524012596 24.38788440867549 4.4739443238787215 0 0 0
361 1 29.13479981951211 26.405449927194564 5.142308661047367 0 0 1
354 1 27.99229266120966 27.291804730202294 7.877121416408401 0 0 1
385 1 30.811938552269382 26.176630064938294 7.69479306192295 0 0 0
352 1 29.884773056359645 23.97866064198354 9.093182369732645 0 0 0
420 1 31.973677623253817 24.858643678588734 5.5116486839995025 0 0 -1
409 1 34.573856860370725 25.7214876234718 6.288428778766339 0 0 -1
445 1 38.44261660220047 27.116405277981073 6.7995342348688625 0 0 -1
473 1 41.241259688525254 27.14375872660379 7.040102975041449 0 0 1
374 1 44.73782491930342 21.576367338529806 3.1356937410997374 0 0 1
399 1 45.287413641207415 21.029806631275807 11.55400568598997 0 0 0
71 1 24.001299734649184 27.81734842162639 7.751510985632118 0 0 0
413 1 25.200291612761518 26.981532884605063 3.9496576267840515 0 0 0
416 1 26.09471560976815 28.39227224311462 6.23153134302969 0 0 1
333 1 33.33253539386452 29.71408801630202 5.495325143181109 0 0 -1
862 1 38.313018225240214 29.796456780898943 5.4297922565952375 0 0 1
364 1 37.23382217625847 30.219481916736914 9.94239920618602 0 0 2
366 1 41.44628089439791 27.73850810109486 4.127273936077356 0 0 1
896 1 39.864001340295545 30.205638693152796 8.918719725673187 0 0 0
372 1 26.1679352575971 31.32600160514537 5.937477949116677 0 0 1
418 1 26.09770109836095 32.67127977275405 8.352292211017835 0 0 0
428 1 28.482454801169627 31.465062682193185 4.637480031456618 0 0 -1
470 1 28.848079746423462 32.3200185429289 8.339181730307738 0 0 -2
390 1 30.365343863270727 32.6886946808839 6.054393084254394 0 0 0
479 1 32.01836911091086 31.006410191790003 7.491153221856371 0 0 -1
474 1 37.79314420149966 32.73635537044303 5.229172458226419 0 0 -1
439 1 36.22555873363221 32.366980606979425 7.607020585804796 0 0 -1
865 1 42.306608861410716 31.72442429580827 4.038730126450942 0 0 1
608 1 40.35176190402304 32.94616627989936 7.8645043344829855 0 0 2
459 1 23.400617839910538 21.998800952120906 1.8891778393000074 0 0 2
88 1 23.678581012225997 33.643347143332925 1.0085503747777895 0 0 -1
438 1 24.58472620725351 18.075633187385524 10.905371383064294 0 0 1
450 1 28.512205646951198 19.10145609627675 9.502764290006853 0 0 0
430 1 30.284362689142636 33.70204891720049 10.145750889640288 0 0 0
461 1 31.027529581594855 19.059753145351603 10.572804663747974 0 0 1
212 1 32.84594128526821 19.031252229357325 8.246868131779111 0 0 -2
386 1 36.83472141486329 19.823625346489774 10.54132449964545 0 0 -1
489 1 40.88105257378862 33.71604001366471 0.2045635188452605 0 0 1
387 1 41.66285068277215 20.12558198902226 8.626788005176255 0 0 1
537 1 44.225029969222994 32.68697420557063 10.342790507874088 0 0 0
839 1 37.45892143699825 33.2811560467344 10.801973447813788 0 0 0
836 1 43.307312588271 33.602972818986146 7.941990494113748 0 0 -1
51 1 28.416587982732125 20.682666965652363 7.211887000437083 0 0 0
396 1 26.710630055868023 22.61228850170992 6.520162609711239 0 0 0
365 1 31.627081742229876 23.843531240584696 11.379750971475973 0 0 -1