LAMMPS data file via write_data, version 29 Sep 2021, timestep = 5200000

9436 atoms
2 atom types

0 157.504 xlo xhi
0 36.48765944037512 ylo yhi
0 45.87204637965853 zlo zhi

Masses

1 12.01
2 18.015

Atoms # atomic

1 1 0 2.8417180249513345 1.677 0 0 0
3 1 0 0 1.677 0 0 0
5 1 1.2305 0.7104295062378347 1.677 0 0 0
12 1 1.2305 2.1312885187135 1.677 0 0 0
14 1 2.461 2.8417180249513345 1.677 0 0 0
16 1 2.461 0 1.677 0 0 0
18 1 3.6915 0.7104295062378347 1.677 0 0 0
33 1 3.6914999999999996 2.1312885187135 1.677 0 0 0
35 1 4.922 2.841718024951334 1.677 0 0 0
37 1 4.922 0 1.677 0 0 0
39 1 6.1525 0.7104295062378343 1.677 0 0 0
62 1 6.1525 2.1312885187134993 1.677 0 0 0
64 1 7.382999999999999 2.8417180249513345 1.677 0 0 0
66 1 7.382999999999999 0 1.677 0 0 0
68 1 8.613499999999998 0.7104295062378343 1.677 0 0 0
97 1 8.613499999999998 2.1312885187135002 1.677 0 0 0
99 1 9.844 2.8417180249513336 1.677 0 0 0
101 1 9.844 0 1.677 0 0 0
103 1 11.0745 0.7104295062378334 1.677 0 0 0
132 1 11.0745 2.1312885187135002 1.677 0 0 0
134 1 12.305 2.8417180249513336 1.677 0 0 0
136 1 12.305 0 1.677 0 0 0
138 1 13.535499999999999 0.7104295062378352 1.677 0 0 0
167 1 13.535499999999999 2.1312885187134984 1.677 0 0 0
169 1 14.765999999999998 2.8417180249513354 1.677 0 0 0
171 1 14.765999999999998 0 1.677 0 0 0
6 1 0 7.104295062378334 1.677 0 0 0
8 1 0 4.262577037427 1.677 0 0 0
10 1 1.2305000000000001 4.973006543664834 1.677 0 0 0
25 1 1.2305 6.393865556140499 1.677 0 0 0
27 1 2.461 7.104295062378334 1.677 0 0 0
29 1 2.461 4.262577037427 1.677 0 0 0
31 1 3.6914999999999996 4.973006543664834 1.677 0 0 0
54 1 3.6914999999999996 6.393865556140499 1.677 0 0 0
56 1 4.922 7.104295062378334 1.677 0 0 0
58 1 4.922 4.262577037426999 1.677 0 0 0
60 1 6.1525 4.973006543664834 1.677 0 0 0
89 1 6.1525 6.393865556140499 1.677 0 0 0
91 1 7.383 7.104295062378334 1.677 0 0 0
93 1 7.382999999999999 4.262577037427 1.677 0 0 0
95 1 8.6135 4.973006543664834 1.677 0 0 0
124 1 8.6135 6.3938655561405 1.677 0 0 0
126 1 9.844 7.104295062378334 1.677 0 0 0
128 1 9.844 4.2625770374270004 1.677 0 0 0
130 1 11.074499999999999 4.973006543664834 1.677 0 0 0
159 1 11.074499999999999 6.393865556140499 1.677 0 0 0
161 1 12.305 7.104295062378334 1.677 0 0 0
163 1 12.305 4.262577037426999 1.677 0 0 0
165 1 13.535499999999999 4.973006543664834 1.677 0 0 0
194 1 13.535499999999999 6.393865556140499 1.677 0 0 0
196 1 14.765999999999998 7.104295062378332 1.677 0 0 0
198 1 14.766 4.262577037426999 1.677 0 0 0
21 1 0 8.525154074854 1.677 0 0 0
23 1 1.2304999999999997 9.235583581091834 1.677 0 0 0
46 1 1.2304999999999997 10.656442593567498 1.677 0 0 0
50 1 2.4609999999999994 8.525154074854 1.677 0 0 0
52 1 3.6915 9.235583581091834 1.677 0 0 0
81 1 3.6914999999999996 10.6564425935675 1.677 0 0 0
85 1 4.922 8.525154074854 1.677 0 0 0
87 1 6.1525 9.235583581091834 1.677 0 0 0
116 1 6.1525 10.6564425935675 1.677 0 0 0
120 1 7.383 8.525154074854 1.677 0 0 0
122 1 8.613499999999998 9.235583581091834 1.677 0 0 0
151 1 8.613499999999998 10.656442593567498 1.677 0 0 0
155 1 9.844 8.525154074853997 1.677 0 0 0
157 1 11.074499999999999 9.235583581091834 1.677 0 0 0
186 1 11.0745 10.656442593567498 1.677 0 0 0
190 1 12.305 8.525154074854 1.677 0 0 0
192 1 13.535499999999999 9.235583581091833 1.677 0 0 0
221 1 13.535499999999999 10.6564425935675 1.677 0 0 0
225 1 14.765999999999998 8.525154074854 1.677 0 0 0
19 1 0 11.366872099805333 1.677 0 0 0
42 1 0 12.787731112280998 1.677 0 0 0
44 1 1.2305000000000001 13.498160618518833 1.677 0 0 0
48 1 2.461 11.366872099805335 1.677 0 0 0
77 1 2.461 12.787731112280998 1.677 0 0 0
79 1 3.6915 13.498160618518833 1.677 0 0 0
83 1 4.922 11.366872099805333 1.677 0 0 0
112 1 4.922 12.787731112281 1.677 0 0 0
114 1 6.152499999999999 13.498160618518833 1.677 0 0 0
118 1 7.382999999999999 11.366872099805335 1.677 0 0 0
147 1 7.382999999999999 12.787731112280998 1.677 0 0 0
149 1 8.6135 13.498160618518835 1.677 0 0 0
153 1 9.844 11.366872099805335 1.677 0 0 0
182 1 9.844 12.787731112280998 1.677 0 0 0
184 1 11.074499999999999 13.498160618518833 1.677 0 0 0
188 1 12.304999999999998 11.366872099805333 1.677 0 0 0
217 1 12.305 12.787731112280998 1.677 0 0 0
219 1 13.535499999999999 13.498160618518837 1.677 0 0 0
223 1 14.765999999999998 11.366872099805336 1.677 0 0 0
252 1 14.765999999999998 12.787731112281 1.677 0 0 0
40 1 0 15.629449137232333 1.677 0 0 0
69 1 0 17.050308149708 1.677 0 0 0
71 1 1.2305000000000001 17.76073765594583 1.677 0 0 0
73 1 1.2305000000000001 14.919019630994498 1.677 0 0 0
75 1 2.4610000000000003 15.629449137232331 1.677 0 0 0
104 1 2.4610000000000003 17.050308149708 1.677 0 0 0
106 1 3.6914999999999996 17.76073765594583 1.677 0 0 0
108 1 3.6915 14.919019630994498 1.677 0 0 0
110 1 4.921999999999999 15.629449137232333 1.677 0 0 0
139 1 4.921999999999999 17.050308149708 1.677 0 0 0
141 1 6.1525 17.76073765594583 1.677 0 0 0
143 1 6.152499999999999 14.919019630994498 1.677 0 0 0
145 1 7.382999999999999 15.629449137232333 1.677 0 0 0
174 1 7.383 17.050308149708 1.677 0 0 0
176 1 8.613499999999998 17.76073765594583 1.677 0 0 0
178 1 8.6135 14.919019630994498 1.677 0 0 0
180 1 9.844 15.629449137232331 1.677 0 0 0
209 1 9.844 17.050308149708 1.677 0 0 0
211 1 11.0745 17.760737655945835 1.677 0 0 0
213 1 11.074499999999999 14.919019630994498 1.677 0 0 0
215 1 12.305 15.629449137232337 1.677 0 0 0
244 1 12.304999999999998 17.050308149708 1.677 0 0 0
246 1 13.5355 17.760737655945835 1.677 0 0 0
248 1 13.535499999999999 14.919019630994498 1.677 0 0 0
250 1 14.766 15.629449137232337 1.677 0 0 0
279 1 14.766 17.050308149708 1.677 0 0 0
2 1 0 1.420859012475665 5.031000000000001 0 0 0
4 1 0 0 5.031000000000001 0 0 0
11 1 1.2305 3.552147531189165 5.031000000000001 0 0 0
13 1 1.2305 2.1312885187135 5.031000000000001 0 0 0
15 1 2.461 1.420859012475665 5.031000000000001 0 0 0
17 1 2.461 0 5.031000000000001 0 0 0
32 1 3.6914999999999996 3.552147531189165 5.031000000000001 0 0 0
34 1 3.6914999999999996 2.1312885187135 5.031000000000001 0 0 0
36 1 4.922 1.420859012475665 5.031000000000001 0 0 0
38 1 4.922 0 5.031000000000001 0 0 0
61 1 6.1525 3.5521475311891653 5.031000000000001 0 0 0
63 1 6.1525 2.1312885187134993 5.031000000000001 0 0 0
65 1 7.382999999999999 1.420859012475666 5.031000000000001 0 0 0
67 1 7.382999999999999 0 5.031000000000001 0 0 0
96 1 8.613499999999998 3.552147531189166 5.031000000000001 0 0 0
98 1 8.613499999999998 2.1312885187135002 5.031000000000001 0 0 0
100 1 9.844 1.420859012475666 5.031000000000001 0 0 0
102 1 9.844 0 5.031000000000001 0 0 0
131 1 11.0745 3.5521475311891644 5.031000000000001 0 0 0
133 1 11.0745 2.1312885187135002 5.031000000000001 0 0 0
135 1 12.305 1.420859012475665 5.031000000000001 0 0 0
137 1 12.305 0 5.031000000000001 0 0 0
166 1 13.535499999999999 3.5521475311891653 5.031000000000001 0 0 0
168 1 13.535499999999999 2.1312885187134984 5.031000000000001 0 0 0
170 1 14.765999999999998 1.420859012475665 5.031000000000001 0 0 0
172 1 14.765999999999998 0 5.031000000000001 0 0 0
7 1 0 5.683436049902665 5.031000000000001 0 0 0
9 1 0 4.262577037427 5.031000000000001 0 0 0
26 1 1.2305 6.393865556140499 5.031000000000001 0 0 0
28 1 2.461 5.683436049902665 5.031000000000001 0 0 0
30 1 2.461 4.262577037427 5.031000000000001 0 0 0
55 1 3.6914999999999996 6.393865556140499 5.031000000000001 0 0 0
57 1 4.922 5.6834360499026655 5.031000000000001 0 0 0
59 1 4.922 4.262577037426999 5.031000000000001 0 0 0
90 1 6.1525 6.393865556140499 5.031000000000001 0 0 0
92 1 7.382999999999999 5.6834360499026655 5.031000000000001 0 0 0
94 1 7.382999999999999 4.262577037427 5.031000000000001 0 0 0
125 1 8.6135 6.3938655561405 5.031000000000001 0 0 0
127 1 9.844 5.683436049902665 5.031000000000001 0 0 0
129 1 9.844 4.2625770374270004 5.031000000000001 0 0 0
160 1 11.074499999999999 6.393865556140499 5.031000000000001 0 0 0
162 1 12.305 5.683436049902665 5.031000000000001 0 0 0
164 1 12.305 4.262577037426999 5.031000000000001 0 0 0
195 1 13.535499999999999 6.393865556140499 5.031000000000001 0 0 0
197 1 14.765999999999998 5.6834360499026655 5.031000000000001 0 0 0
199 1 14.766 4.262577037426999 5.031000000000001 0 0 0
20 1 0 9.946013087329664 5.031000000000001 0 0 0
22 1 0 8.525154074854 5.031000000000001 0 0 0
24 1 1.2304999999999997 7.814724568616164 5.031000000000001 0 0 0
47 1 1.2304999999999997 10.656442593567498 5.031000000000001 0 0 0
49 1 2.4609999999999994 9.946013087329664 5.031000000000001 0 0 0
51 1 2.4609999999999994 8.525154074854 5.031000000000001 0 0 0
53 1 3.6914999999999996 7.814724568616165 5.031000000000001 0 0 0
82 1 3.6914999999999996 10.6564425935675 5.031000000000001 0 0 0
84 1 4.922 9.946013087329666 5.031000000000001 0 0 0
86 1 4.922 8.525154074854 5.031000000000001 0 0 0
88 1 6.1525 7.814724568616166 5.031000000000001 0 0 0
117 1 6.1525 10.6564425935675 5.031000000000001 0 0 0
119 1 7.383 9.946013087329664 5.031000000000001 0 0 0
121 1 7.383 8.525154074854 5.031000000000001 0 0 0
123 1 8.6135 7.814724568616164 5.031000000000001 0 0 0
152 1 8.613499999999998 10.656442593567498 5.031000000000001 0 0 0
154 1 9.844 9.946013087329664 5.031000000000001 0 0 0
156 1 9.844 8.525154074853997 5.031000000000001 0 0 0
158 1 11.0745 7.814724568616165 5.031000000000001 0 0 0
187 1 11.0745 10.656442593567498 5.031000000000001 0 0 0
189 1 12.305 9.946013087329664 5.031000000000001 0 0 0
191 1 12.305 8.525154074854 5.031000000000001 0 0 0
193 1 13.535499999999999 7.814724568616165 5.031000000000001 0 0 0
222 1 13.535499999999999 10.6564425935675 5.031000000000001 0 0 0
224 1 14.765999999999998 9.94601308732966 5.031000000000001 0 0 0
226 1 14.765999999999998 8.525154074854 5.031000000000001 0 0 0
41 1 0 14.208590124756665 5.031000000000001 0 0 0
43 1 0 12.787731112280998 5.031000000000001 0 0 0
45 1 1.2304999999999997 12.077301606043164 5.031000000000001 0 0 0
76 1 2.461 14.208590124756665 5.031000000000001 0 0 0
78 1 2.461 12.787731112280998 5.031000000000001 0 0 0
80 1 3.6914999999999996 12.077301606043164 5.031000000000001 0 0 0
111 1 4.922 14.208590124756663 5.031000000000001 0 0 0
113 1 4.922 12.787731112281 5.031000000000001 0 0 0
115 1 6.1525 12.077301606043164 5.031000000000001 0 0 0
146 1 7.383 14.208590124756665 5.031000000000001 0 0 0
148 1 7.382999999999999 12.787731112280998 5.031000000000001 0 0 0
150 1 8.6135 12.077301606043164 5.031000000000001 0 0 0
181 1 9.844 14.208590124756665 5.031000000000001 0 0 0
183 1 9.844 12.787731112280998 5.031000000000001 0 0 0
185 1 11.074499999999999 12.077301606043164 5.031000000000001 0 0 0
216 1 12.304999999999998 14.208590124756661 5.031000000000001 0 0 0
218 1 12.305 12.787731112280998 5.031000000000001 0 0 0
220 1 13.535499999999999 12.07730160604316 5.031000000000001 0 0 0
251 1 14.765999999999998 14.208590124756661 5.031000000000001 0 0 0
253 1 14.765999999999998 12.787731112281 5.031000000000001 0 0 0
70 1 0 17.050308149708 5.031000000000001 0 0 0
72 1 1.2305000000000001 16.339878643470165 5.031000000000001 0 0 0
74 1 1.2305000000000001 14.919019630994498 5.031000000000001 0 0 0
105 1 2.4610000000000003 17.050308149708 5.031000000000001 0 0 0
107 1 3.6915 16.339878643470165 5.031000000000001 0 0 0
109 1 3.6915 14.919019630994498 5.031000000000001 0 0 0
140 1 4.921999999999999 17.050308149708 5.031000000000001 0 0 0
142 1 6.1525 16.339878643470165 5.031000000000001 0 0 0
144 1 6.152499999999999 14.919019630994498 5.031000000000001 0 0 0
175 1 7.383 17.050308149708 5.031000000000001 0 0 0
177 1 8.613499999999998 16.339878643470165 5.031000000000001 0 0 0
179 1 8.6135 14.919019630994498 5.031000000000001 0 0 0
210 1 9.844 17.050308149708 5.031000000000001 0 0 0
212 1 11.074499999999999 16.33987864347016 5.031000000000001 0 0 0
214 1 11.074499999999999 14.919019630994498 5.031000000000001 0 0 0
245 1 12.304999999999998 17.050308149708 5.031000000000001 0 0 0
247 1 13.535499999999997 16.33987864347016 5.031000000000001 0 0 0
249 1 13.535499999999999 14.919019630994498 5.031000000000001 0 0 0
280 1 14.766 17.050308149708 5.031000000000001 0 0 0
386 1 0 2.8417180249513345 8.385 0 0 0
387 1 0 0 8.385 0 0 0
388 1 1.2305 0.7104295062378347 8.385 0 0 0
392 1 1.2305 2.1312885187135 8.385 0 0 0
393 1 2.461 2.8417180249513345 8.385 0 0 0
394 1 2.461 0 8.385 0 0 0
395 1 3.6915 0.7104295062378347 8.385 0 0 0
403 1 3.6914999999999996 2.1312885187135 8.385 0 0 0
404 1 4.922 2.841718024951334 8.385 0 0 0
405 1 4.922 0 8.385 0 0 0
406 1 6.1525 0.7104295062378343 8.385 0 0 0
418 1 6.1525 2.1312885187134993 8.385 0 0 0
419 1 7.382999999999999 2.8417180249513345 8.385 0 0 0
420 1 7.382999999999999 0 8.385 0 0 0
421 1 8.613499999999998 0.7104295062378343 8.385 0 0 0
436 1 8.613499999999998 2.1312885187135002 8.385 0 0 0
437 1 9.844 2.8417180249513336 8.385 0 0 0
438 1 9.844 0 8.385 0 0 0
439 1 11.0745 0.7104295062378334 8.385 0 0 0
454 1 11.0745 2.1312885187135002 8.385 0 0 0
455 1 12.305 2.8417180249513336 8.385 0 0 0
456 1 12.305 0 8.385 0 0 0
457 1 13.535499999999999 0.7104295062378352 8.385 0 0 0
472 1 13.535499999999999 2.1312885187134984 8.385 0 0 0
473 1 14.765999999999998 2.8417180249513354 8.385 0 0 0
474 1 14.765999999999998 0 8.385 0 0 0
389 1 0 7.104295062378334 8.385 0 0 0
390 1 0 4.262577037427 8.385 0 0 0
391 1 1.2305000000000001 4.973006543664834 8.385 0 0 0
399 1 1.2305 6.393865556140499 8.385 0 0 0
400 1 2.461 7.104295062378334 8.385 0 0 0
401 1 2.461 4.262577037427 8.385 0 0 0
402 1 3.6914999999999996 4.973006543664834 8.385 0 0 0
414 1 3.6914999999999996 6.393865556140499 8.385 0 0 0
415 1 4.922 7.104295062378334 8.385 0 0 0
416 1 4.922 4.262577037426999 8.385 0 0 0
417 1 6.1525 4.973006543664834 8.385 0 0 0
432 1 6.1525 6.393865556140499 8.385 0 0 0
433 1 7.383 7.104295062378334 8.385 0 0 0
434 1 7.382999999999999 4.262577037427 8.385 0 0 0
435 1 8.6135 4.973006543664834 8.385 0 0 0
450 1 8.6135 6.3938655561405 8.385 0 0 0
451 1 9.844 7.104295062378334 8.385 0 0 0
452 1 9.844 4.2625770374270004 8.385 0 0 0
453 1 11.074499999999999 4.973006543664834 8.385 0 0 0
468 1 11.074499999999999 6.393865556140499 8.385 0 0 0
469 1 12.305 7.104295062378334 8.385 0 0 0
470 1 12.305 4.262577037426999 8.385 0 0 0
471 1 13.535499999999999 4.973006543664834 8.385 0 0 0
486 1 13.535499999999999 6.393865556140499 8.385 0 0 0
487 1 14.765999999999998 7.104295062378332 8.385 0 0 0
488 1 14.766 4.262577037426999 8.385 0 0 0
397 1 0 8.525154074854 8.385 0 0 0
398 1 1.2304999999999997 9.235583581091834 8.385 0 0 0
410 1 1.2304999999999997 10.656442593567498 8.385 0 0 0
412 1 2.4609999999999994 8.525154074854 8.385 0 0 0
413 1 3.6915 9.235583581091834 8.385 0 0 0
428 1 3.6914999999999996 10.6564425935675 8.385 0 0 0
430 1 4.922 8.525154074854 8.385 0 0 0
431 1 6.1525 9.235583581091834 8.385 0 0 0
446 1 6.1525 10.6564425935675 8.385 0 0 0
448 1 7.383 8.525154074854 8.385 0 0 0
449 1 8.613499999999998 9.235583581091834 8.385 0 0 0
464 1 8.613499999999998 10.656442593567498 8.385 0 0 0
466 1 9.844 8.525154074853997 8.385 0 0 0
467 1 11.074499999999999 9.235583581091834 8.385 0 0 0
482 1 11.0745 10.656442593567498 8.385 0 0 0
484 1 12.305 8.525154074854 8.385 0 0 0
485 1 13.535499999999999 9.235583581091833 8.385 0 0 0
500 1 13.535499999999999 10.6564425935675 8.385 0 0 0
502 1 14.765999999999998 8.525154074854 8.385 0 0 0
396 1 0 11.366872099805333 8.385 0 0 0
408 1 0 12.787731112280998 8.385 0 0 0
409 1 1.2305000000000001 13.498160618518833 8.385 0 0 0
411 1 2.461 11.366872099805335 8.385 0 0 0
426 1 2.461 12.787731112280998 8.385 0 0 0
427 1 3.6915 13.498160618518833 8.385 0 0 0
429 1 4.922 11.366872099805333 8.385 0 0 0
444 1 4.922 12.787731112281 8.385 0 0 0
445 1 6.152499999999999 13.498160618518833 8.385 0 0 0
447 1 7.382999999999999 11.366872099805335 8.385 0 0 0
462 1 7.382999999999999 12.787731112280998 8.385 0 0 0
463 1 8.6135 13.498160618518835 8.385 0 0 0
465 1 9.844 11.366872099805335 8.385 0 0 0
480 1 9.844 12.787731112280998 8.385 0 0 0
481 1 11.074499999999999 13.498160618518833 8.385 0 0 0
483 1 12.304999999999998 11.366872099805333 8.385 0 0 0
498 1 12.305 12.787731112280998 8.385 0 0 0
499 1 13.535499999999999 13.498160618518837 8.385 0 0 0
501 1 14.765999999999998 11.366872099805336 8.385 0 0 0
516 1 14.765999999999998 12.787731112281 8.385 0 0 0
407 1 0 15.629449137232333 8.385 0 0 0
422 1 0 17.050308149708 8.385 0 0 0
423 1 1.2305000000000001 17.76073765594583 8.385 0 0 0
424 1 1.2305000000000001 14.919019630994498 8.385 0 0 0
425 1 2.4610000000000003 15.629449137232331 8.385 0 0 0
440 1 2.4610000000000003 17.050308149708 8.385 0 0 0
441 1 3.6914999999999996 17.76073765594583 8.385 0 0 0
442 1 3.6915 14.919019630994498 8.385 0 0 0
443 1 4.921999999999999 15.629449137232333 8.385 0 0 0
458 1 4.921999999999999 17.050308149708 8.385 0 0 0
459 1 6.1525 17.76073765594583 8.385 0 0 0
460 1 6.152499999999999 14.919019630994498 8.385 0 0 0
461 1 7.382999999999999 15.629449137232333 8.385 0 0 0
476 1 7.383 17.050308149708 8.385 0 0 0
477 1 8.613499999999998 17.76073765594583 8.385 0 0 0
478 1 8.6135 14.919019630994498 8.385 0 0 0
479 1 9.844 15.629449137232331 8.385 0 0 0
494 1 9.844 17.050308149708 8.385 0 0 0
495 1 11.0745 17.760737655945835 8.385 0 0 0
496 1 11.074499999999999 14.919019630994498 8.385 0 0 0
497 1 12.305 15.629449137232337 8.385 0 0 0
512 1 12.304999999999998 17.050308149708 8.385 0 0 0
513 1 13.5355 17.760737655945835 8.385 0 0 0
514 1 13.535499999999999 14.919019630994498 8.385 0 0 0
515 1 14.766 15.629449137232337 8.385 0 0 0
530 1 14.766 17.050308149708 8.385 0 0 0
584 1 0 19.892026174659332 1.677 0 0 0
1130 1 3.6914999999999996 19.1815966684215 1.677 0 0 0
1134 1 2.4609999999999994 21.312885187134995 1.677 0 0 0
1146 1 2.4609999999999994 19.892026174659332 1.677 0 0 0
1148 1 1.2305000000000001 19.1815966684215 1.677 0 0 0
1152 1 0 21.312885187135 1.677 0 0 0
1075 1 7.382999999999999 21.312885187135 1.677 0 0 0
1102 1 7.382999999999999 19.892026174659332 1.677 0 0 0
1104 1 6.1525 19.1815966684215 1.677 0 0 0
1108 1 4.922000000000001 21.312885187134995 1.677 0 0 0
1128 1 4.922 19.892026174659332 1.677 0 0 0
1036 1 11.074499999999999 19.1815966684215 1.677 0 0 0
1040 1 9.844 21.312885187135 1.677 0 0 0
1069 1 9.844 19.892026174659335 1.677 0 0 0
1071 1 8.6135 19.1815966684215 1.677 0 0 0
970 1 14.765999999999998 21.312885187135 1.677 0 0 0
999 1 14.766 19.892026174659332 1.677 0 0 0
1001 1 13.535499999999999 19.1815966684215 1.677 0 0 0
1005 1 12.305 21.312885187135 1.677 0 0 0
1034 1 12.305000000000001 19.892026174659335 1.677 0 0 0
1112 1 3.6915000000000004 23.4441737058485 1.677 0 0 0
1132 1 3.6914999999999996 22.023314693372832 1.677 0 0 0
1136 1 2.4609999999999994 24.154603212086332 1.677 0 0 0
1138 1 1.2304999999999993 23.4441737058485 1.677 0 0 0
1150 1 1.2304999999999993 22.023314693372832 1.677 0 0 0
1154 1 0 24.154603212086332 1.677 0 0 0
1077 1 7.383 24.154603212086336 1.677 0 0 0
1079 1 6.1525 23.4441737058485 1.677 0 0 0
1106 1 6.152499999999999 22.023314693372832 1.677 0 0 0
1110 1 4.921999999999999 24.154603212086332 1.677 0 0 0
1009 1 11.0745 23.4441737058485 1.677 0 0 0
1038 1 11.0745 22.023314693372836 1.677 0 0 0
1042 1 9.844000000000001 24.154603212086336 1.677 0 0 0
1044 1 8.613499999999998 23.4441737058485 1.677 0 0 0
1073 1 8.6135 22.023314693372836 1.677 0 0 0
972 1 14.766000000000002 24.154603212086332 1.677 0 0 0
974 1 13.535499999999999 23.4441737058485 1.677 0 0 0
1003 1 13.5355 22.023314693372832 1.677 0 0 0
1007 1 12.305 24.154603212086332 1.677 0 0 0
1087 1 3.6914999999999996 27.7067507432755 1.677 0 0 0
1114 1 3.6914999999999987 26.285891730799833 1.677 0 0 0
1116 1 2.4610000000000003 25.575462224561996 1.677 0 0 0
1118 1 2.4609999999999994 28.41718024951333 1.677 0 0 0
1120 1 1.230500000000001 27.706750743275496 1.677 0 0 0
1140 1 1.2305000000000001 26.285891730799833 1.677 0 0 0
1142 1 0 25.575462224561996 1.677 0 0 0
1144 1 0 28.417180249513333 1.677 0 0 0
1048 1 7.382999999999999 25.575462224561996 1.677 0 0 0
1050 1 7.383000000000001 28.417180249513336 1.677 0 0 0
1052 1 6.152499999999999 27.7067507432755 1.677 0 0 0
1081 1 6.1525 26.285891730799836 1.677 0 0 0
1083 1 4.922 25.575462224561996 1.677 0 0 0
1085 1 4.922 28.417180249513336 1.677 0 0 0
982 1 11.074499999999999 27.7067507432755 1.677 0 0 0
1011 1 11.0745 26.285891730799833 1.677 0 0 0
1013 1 9.844 25.575462224562 1.677 0 0 0
1015 1 9.844000000000001 28.417180249513333 1.677 0 0 0
1017 1 8.6135 27.7067507432755 1.677 0 0 0
1046 1 8.613500000000002 26.285891730799836 1.677 0 0 0
943 1 14.765999999999998 25.575462224561996 1.677 0 0 0
945 1 14.766 28.417180249513333 1.677 0 0 0
947 1 13.535499999999999 27.706750743275496 1.677 0 0 0
976 1 13.5355 26.285891730799833 1.677 0 0 0
978 1 12.305 25.575462224562 1.677 0 0 0
980 1 12.305000000000001 28.417180249513333 1.677 0 0 0
1060 1 3.6914999999999996 31.969327780702496 1.677 0 0 0
1089 1 3.6915000000000004 30.548468768226833 1.677 0 0 0
1091 1 2.4610000000000003 29.838039261988996 1.677 0 0 0
1093 1 2.4610000000000003 32.67975728694034 1.677 0 0 0
1095 1 1.2304999999999993 31.969327780702496 1.677 0 0 0
1122 1 1.2304999999999993 30.548468768226833 1.677 0 0 0
1124 1 0 29.838039261988996 1.677 0 0 0
1126 1 0 32.67975728694033 1.677 0 0 0
1021 1 7.383 29.838039261988996 1.677 0 0 0
1023 1 7.383 32.67975728694033 1.677 0 0 0
1025 1 6.1525 31.9693277807025 1.677 0 0 0
1054 1 6.152500000000001 30.548468768226833 1.677 0 0 0
1056 1 4.921999999999999 29.838039261988996 1.677 0 0 0
1058 1 4.9220000000000015 32.67975728694034 1.677 0 0 0
955 1 11.074499999999999 31.969327780702493 1.677 0 0 0
984 1 11.0745 30.548468768226833 1.677 0 0 0
986 1 9.844 29.838039261988996 1.677 0 0 0
988 1 9.844000000000001 32.67975728694033 1.677 0 0 0
990 1 8.613499999999998 31.9693277807025 1.677 0 0 0
1019 1 8.6135 30.548468768226833 1.677 0 0 0
916 1 14.766 29.838039261988996 1.677 0 0 0
918 1 14.766000000000002 32.67975728694033 1.677 0 0 0
920 1 13.535499999999999 31.969327780702496 1.677 0 0 0
949 1 13.5355 30.548468768226833 1.677 0 0 0
951 1 12.304999999999998 29.838039261988996 1.677 0 0 0
953 1 12.305 32.67975728694033 1.677 0 0 0
1032 1 3.6914999999999996 36.23190481812949 1.677 0 0 0
1062 1 3.6915000000000013 34.81104580565383 1.677 0 0 0
1064 1 2.4609999999999985 34.100616299416 1.677 0 0 0
1067 1 1.2304999999999993 36.23190481812949 1.677 0 0 0
1097 1 1.230500000000001 34.81104580565383 1.677 0 0 0
1099 1 0 34.100616299416 1.677 0 0 0
994 1 7.382999999999999 34.100616299416 1.677 0 0 0
997 1 6.1525 36.23190481812949 1.677 0 0 0
1027 1 6.152500000000001 34.81104580565383 1.677 0 0 0
1029 1 4.922000000000001 34.100616299416 1.677 0 0 0
927 1 11.0745 36.23190481812949 1.677 0 0 0
957 1 11.0745 34.81104580565383 1.677 0 0 0
959 1 9.843999999999998 34.100616299416 1.677 0 0 0
962 1 8.613499999999998 36.23190481812949 1.677 0 0 0
992 1 8.613500000000002 34.81104580565383 1.677 0 0 0
889 1 14.766 34.100616299416 1.677 0 0 0
892 1 13.5355 36.23190481812949 1.677 0 0 0
922 1 13.535500000000003 34.81104580565383 1.677 0 0 0
924 1 12.305 34.100616299416 1.677 0 0 0
1129 1 3.6914999999999996 19.1815966684215 5.031000000000001 0 0 0
1131 1 3.6915000000000004 20.602455680897165 5.031000000000001 0 0 0
1133 1 2.4609999999999994 21.312885187134995 5.031000000000001 0 0 0
1145 1 2.4610000000000003 18.47116716218366 5.031000000000001 0 0 0
1147 1 1.2305000000000001 19.1815966684215 5.031000000000001 0 0 0
1149 1 1.2305000000000001 20.602455680897165 5.031000000000001 0 0 0
1151 1 0 21.312885187135 5.031000000000001 0 0 0
1155 1 0 18.471167162183665 5.031000000000001 0 0 0
1074 1 7.382999999999999 21.312885187135 5.031000000000001 0 0 0
1101 1 7.382999999999999 18.471167162183665 5.031000000000001 0 0 0
1103 1 6.1525 19.1815966684215 5.031000000000001 0 0 0
1105 1 6.1525 20.602455680897165 5.031000000000001 0 0 0
1107 1 4.922000000000001 21.312885187134995 5.031000000000001 0 0 0
1127 1 4.922000000000001 18.47116716218366 5.031000000000001 0 0 0
1035 1 11.074499999999999 19.1815966684215 5.031000000000001 0 0 0
1037 1 11.074499999999997 20.60245568089716 5.031000000000001 0 0 0
1039 1 9.844 21.312885187135 5.031000000000001 0 0 0
1068 1 9.843999999999998 18.47116716218366 5.031000000000001 0 0 0
1070 1 8.6135 19.1815966684215 5.031000000000001 0 0 0
1072 1 8.613499999999998 20.60245568089716 5.031000000000001 0 0 0
969 1 14.765999999999998 21.312885187135 5.031000000000001 0 0 0
998 1 14.765999999999998 18.47116716218366 5.031000000000001 0 0 0
1000 1 13.535499999999999 19.1815966684215 5.031000000000001 0 0 0
1002 1 13.535499999999999 20.60245568089716 5.031000000000001 0 0 0
1004 1 12.305 21.312885187135 5.031000000000001 0 0 0
1033 1 12.304999999999998 18.47116716218366 5.031000000000001 0 0 0
1111 1 3.6915000000000004 23.4441737058485 5.031000000000001 0 0 0
1113 1 3.6914999999999996 24.865032718324166 5.031000000000001 0 0 0
1135 1 2.4610000000000003 22.733744199610662 5.031000000000001 0 0 0
1137 1 1.2304999999999993 23.4441737058485 5.031000000000001 0 0 0
1139 1 1.2305000000000001 24.865032718324162 5.031000000000001 0 0 0
1153 1 0 22.733744199610662 5.031000000000001 0 0 0
1076 1 7.382999999999999 22.733744199610662 5.031000000000001 0 0 0
1078 1 6.1525 23.4441737058485 5.031000000000001 0 0 0
1080 1 6.152499999999999 24.86503271832416 5.031000000000001 0 0 0
1109 1 4.922 22.733744199610662 5.031000000000001 0 0 0
1008 1 11.0745 23.4441737058485 5.031000000000001 0 0 0
1010 1 11.074499999999999 24.865032718324162 5.031000000000001 0 0 0
1041 1 9.843999999999998 22.733744199610662 5.031000000000001 0 0 0
1043 1 8.613499999999998 23.4441737058485 5.031000000000001 0 0 0
1045 1 8.613499999999998 24.86503271832416 5.031000000000001 0 0 0
971 1 14.765999999999998 22.733744199610662 5.031000000000001 0 0 0
973 1 13.535499999999999 23.4441737058485 5.031000000000001 0 0 0
975 1 13.535499999999997 24.865032718324162 5.031000000000001 0 0 0
1006 1 12.304999999999998 22.733744199610662 5.031000000000001 0 0 0
1086 1 3.6914999999999996 27.7067507432755 5.031000000000001 0 0 0
1088 1 3.6914999999999987 29.12760975575116 5.031000000000001 0 0 0
1115 1 2.4610000000000003 25.575462224561996 5.031000000000001 0 0 0
1117 1 2.4609999999999994 26.996321237037662 5.031000000000001 0 0 0
1119 1 1.230500000000001 27.706750743275496 5.031000000000001 0 0 0
1121 1 1.2304999999999993 29.127609755751163 5.031000000000001 0 0 0
1141 1 0 25.575462224561996 5.031000000000001 0 0 0
1143 1 0 26.996321237037662 5.031000000000001 0 0 0
1047 1 7.382999999999999 25.575462224561996 5.031000000000001 0 0 0
1049 1 7.382999999999998 26.996321237037662 5.031000000000001 0 0 0
1051 1 6.152499999999999 27.7067507432755 5.031000000000001 0 0 0
1053 1 6.152499999999998 29.12760975575116 5.031000000000001 0 0 0
1082 1 4.922 25.575462224561996 5.031000000000001 0 0 0
1084 1 4.921999999999999 26.996321237037662 5.031000000000001 0 0 0
981 1 11.074499999999999 27.7067507432755 5.031000000000001 0 0 0
983 1 11.074499999999999 29.12760975575116 5.031000000000001 0 0 0
1012 1 9.844 25.575462224562 5.031000000000001 0 0 0
1014 1 9.844 26.996321237037662 5.031000000000001 0 0 0
1016 1 8.6135 27.7067507432755 5.031000000000001 0 0 0
1018 1 8.613499999999998 29.12760975575116 5.031000000000001 0 0 0
942 1 14.765999999999998 25.575462224561996 5.031000000000001 0 0 0
944 1 14.765999999999996 26.996321237037662 5.031000000000001 0 0 0
946 1 13.535499999999999 27.706750743275496 5.031000000000001 0 0 0
948 1 13.535499999999997 29.127609755751163 5.031000000000001 0 0 0
977 1 12.305 25.575462224562 5.031000000000001 0 0 0
979 1 12.304999999999998 26.996321237037662 5.031000000000001 0 0 0
1059 1 3.6914999999999996 31.969327780702496 5.031000000000001 0 0 0
1090 1 2.4610000000000003 29.838039261988996 5.031000000000001 0 0 0
1092 1 2.4609999999999985 31.25889827446466 5.031000000000001 0 0 0
1094 1 1.2304999999999993 31.969327780702496 5.031000000000001 0 0 0
1123 1 0 29.838039261988996 5.031000000000001 0 0 0
1125 1 0 31.258898274464663 5.031000000000001 0 0 0
1020 1 7.383 29.838039261988996 5.031000000000001 0 0 0
1022 1 7.382999999999999 31.258898274464663 5.031000000000001 0 0 0
1024 1 6.1525 31.9693277807025 5.031000000000001 0 0 0
1055 1 4.921999999999999 29.838039261988996 5.031000000000001 0 0 0
1057 1 4.921999999999998 31.25889827446466 5.031000000000001 0 0 0
954 1 11.074499999999999 31.969327780702493 5.031000000000001 0 0 0
985 1 9.844 29.838039261988996 5.031000000000001 0 0 0
987 1 9.843999999999998 31.258898274464663 5.031000000000001 0 0 0
989 1 8.613499999999998 31.9693277807025 5.031000000000001 0 0 0
915 1 14.766 29.838039261988996 5.031000000000001 0 0 0
917 1 14.765999999999996 31.258898274464663 5.031000000000001 0 0 0
919 1 13.535499999999999 31.969327780702496 5.031000000000001 0 0 0
950 1 12.304999999999998 29.838039261988996 5.031000000000001 0 0 0
952 1 12.304999999999998 31.258898274464663 5.031000000000001 0 0 0
1031 1 3.6914999999999996 36.23190481812949 5.031000000000001 0 0 0
1061 1 3.691499999999998 33.39018679317816 5.031000000000001 0 0 0
1063 1 2.4609999999999985 34.100616299416 5.031000000000001 0 0 0
1065 1 2.4609999999999985 35.52147531189166 5.031000000000001 0 0 0
1066 1 1.2304999999999993 36.23190481812949 5.031000000000001 0 0 0
1096 1 1.2304999999999993 33.39018679317816 5.031000000000001 0 0 0
1098 1 0 34.100616299416 5.031000000000001 0 0 0
1100 1 0 35.521475311891656 5.031000000000001 0 0 0
993 1 7.382999999999999 34.100616299416 5.031000000000001 0 0 0
995 1 7.382999999999998 35.52147531189166 5.031000000000001 0 0 0
996 1 6.1525 36.23190481812949 5.031000000000001 0 0 0
1026 1 6.152499999999999 33.39018679317816 5.031000000000001 0 0 0
1028 1 4.922000000000001 34.100616299416 5.031000000000001 0 0 0
1030 1 4.921999999999999 35.52147531189166 5.031000000000001 0 0 0
926 1 11.0745 36.23190481812949 5.031000000000001 0 0 0
956 1 11.074499999999997 33.39018679317816 5.031000000000001 0 0 0
958 1 9.843999999999998 34.100616299416 5.031000000000001 0 0 0
960 1 9.843999999999998 35.52147531189166 5.031000000000001 0 0 0
961 1 8.613499999999998 36.23190481812949 5.031000000000001 0 0 0