
# Set production fixes - Nose/Hoover
#
fix                 4 water temp/csvr ${START_TEMP} ${END_TEMP} 500.0 928347
fix                 4 water temp/csvr 240 ${END_TEMP} 500.0 928347
fix                 4 water temp/csvr 240 227 500.0 928347


## divide "droplet" into core and surface
#region		core_reg cylinder z 135 135 44.6 20 INF units box
#region		surface_reg cylinder z 135 135 44.6 20 INF units box side out
#group		core dynamic all region core_reg
#group		surface dynamic all region surface_reg

## compute pressure core
#compute        peratom_core core stress/atom NULL
#compute        p_core core reduce sum c_peratom_core[1] c_peratom_core[2] c_peratom_core[3]
#variable       press_core equal -(c_p_core[1]+c_p_core[2]+c_p_core[3])/(3*1249982.5)


## compute pressure surface
#compute        peratom_surf surface stress/atom NULL
#compute        p_surf surface reduce sum c_peratom_surf[1] c_peratom_surf[2] #c_peratom_surf[3]
#variable       press_surf equal -(c_p_surf[1]+c_p_surf[2]+c_p_surf[3])/(3*42395)

## compute total pressure of drop
compute        peratom water stress/atom NULL
compute        p water reduce sum c_peratom[1] c_peratom[2] c_peratom[3]
variable       press equal -(c_p[1]+c_p[2]+c_p[3])/(3*58301)


# compute order parameter
compute        3 all orientorder/atom nnn NULL cutoff 3.5

# compute center of mass of bridge
compute 	4 water com

# Run simulation
thermo_style        custom step c_2 press vol etotal ke pe v_press c_1[4] c_4[*]
thermo              200
dump		     1 water custom 400 ${DIR}/prod.${NAME}.dump id type x y z vx vy vz c_3[*] c_peratom[*]
dump		     1 water custom 400 run_12/prod.${NAME}.dump id type x y z vx vy vz c_3[*] c_peratom[*]
dump		     1 water custom 400 run_12/prod.ibeam_cooling_12.dump id type x y z vx vy vz c_3[*] c_peratom[*]
run                 ${STEPS}
run                 5200000
Neighbor list info ...
  update every 1 steps, delay 0 steps, check yes
  max neighbors/atom: 2000, page size: 100000
  master list distance cutoff = 6.6747184
  ghost atom cutoff = 6.6747184
  binsize = 3.3373592, bins = 48 11 14
  2 neighbor lists, perpetual/occasional/extra = 1 1 0
  (1) pair sw, perpetual
      attributes: full, newton on
      pair build: full/bin/atomonly
      stencil: full/bin/3d
      bin: standard
  (2) compute orientorder/atom, occasional, copy from (1)
      attributes: full, newton on
      pair build: copy
      stencil: none
      bin: none
Per MPI rank memory allocation (min/avg/max) = 6.104 | 6.801 | 7.323 Mbytes
Step c_2 Press Volume TotEng KinEng PotEng v_press c_1[4] c_4[1] c_4[2] c_4[3] 
       0    242.65587    -327.6074    263624.46   -25749.308    1963.7895   -27713.098   -961.06008    35.377076    78.607822    18.373229    27.409691 
     200    234.94945   -294.23184    263624.46   -25806.291    1901.4222   -27707.713   -845.23337    36.793466    78.608097    18.371316     27.40901 
     400    236.77074   -206.15839    263624.46   -25765.606    1916.1617   -27681.768   -432.81662    38.391047    78.608311     18.37161    27.419009 
     600    243.20198   -157.32048    263624.46   -25665.382    1968.2092   -27633.591   -186.76644    40.659944    78.607784      18.3715    27.433396 
     800     238.3938   -210.86243    263624.46   -25692.346     1929.297   -27621.643    -447.6658    42.753544    78.605404    18.372426     27.42336 
    1000    238.99442    -291.8486    263624.46   -25774.483    1934.1577   -27708.641   -776.88068    44.695813    78.604006     18.37371    27.423008 
    1200    239.52364   -193.91426    263624.46    -25727.77    1938.4407   -27666.211   -320.15211     45.42969    78.602221    18.374569     27.41844 
    1400     244.8395   -428.15168    263624.46   -25715.327    1981.4614   -27696.788   -1411.3244    47.030488     78.60012    18.375231     27.42439 
    1600    236.03415   -328.04881    263624.46   -25721.792    1910.2006   -27631.993   -960.40715    47.427772    78.598705    18.373228    27.435393 
    1800    245.33109   -256.10613    263624.46    -25682.27    1985.4398    -27667.71    -648.8233    49.499361    78.601189    18.369572    27.431708 
    2000    246.23786   -223.40255    263624.46   -25680.094    1992.7782   -27672.872   -491.46895    50.360779    78.601734    18.368725    27.417522 
    2200    240.02711   -234.72521    263624.46   -25715.988    1942.5152   -27658.503   -550.32498    51.131231    78.601578    18.368366    27.414586 
    2400    235.56965   -291.35832    263624.46   -25681.014    1906.4414   -27587.455   -815.74747    53.450479     78.59968    18.369323    27.412836 
    2600    239.31792   -165.51953    263624.46   -25742.042    1936.7758   -27678.818   -178.75988    55.726588    78.598494      18.3715    27.400679 
    2800    246.10837   -326.31254    263624.46   -25638.284    1991.7303   -27630.015   -964.63611     57.90535    78.597376    18.372769    27.392869 
    3000    241.06026   -365.80289    263624.46   -25664.676    1950.8764   -27615.553   -1144.8301    59.277617    78.597612    18.371792    27.416306 
    3200    239.81192   -349.52065    263624.46   -25741.036    1940.7737    -27681.81    -985.3132    61.295069    78.600445    18.370057    27.396736 
    3400    239.22066   -342.62451    263624.46   -25736.441    1935.9887   -27672.429   -1037.5644    62.989915     78.60021    18.370949    27.414553 
    3600     235.2067   -341.21467    263624.46   -25736.964    1903.5041   -27640.468   -1004.9764    64.934772    78.600189    18.369632     27.39957 
    3800    242.12627   -227.89318    263624.46   -25654.149    1959.5035   -27613.652   -547.91503    65.965803    78.598914     18.36765    27.410833 
    4000    242.20631   -306.16463    263624.46   -25725.982    1960.1513   -27686.133   -819.37454    67.370156     78.59734    18.364983    27.415328 
    4200    241.43945   -348.44616    263624.46   -25709.594    1953.9452   -27663.539   -1028.1818    68.137858    78.598003    18.363797    27.427817 
    4400    233.85262   -375.44017    263624.46   -25710.819    1892.5457   -27603.364   -1123.9302    69.976901    78.600141    18.365254    27.410783 
    4600    237.03612   -245.36209    263624.46   -25760.318    1918.3095   -27678.628   -555.88148    71.132184    78.600254    18.364483    27.428443 
    4800    243.45218    -223.9122    263624.46   -25599.898     1970.234   -27570.132   -465.42528    73.085781    78.601329    18.364047    27.412666 
    5000     237.4542   -341.38424    263624.46   -25655.187    1921.6929    -27576.88    -997.0917    75.840627    78.602241    18.363804    27.406226 
    5200    237.77786   -302.54001    263624.46   -25692.714    1924.3123   -27617.026    -832.8273    76.939326    78.601769    18.364739    27.389663 
    5400    242.55962    -332.4306    263624.46   -25751.381    1963.0106   -27714.392   -926.63783     78.52818    78.600241    18.365961    27.402701 
    5600    238.06962    -307.8586    263624.46   -25762.931    1926.6734   -27689.604   -847.21142    78.958452    78.600617    18.366204     27.39295 
    5800    242.27848    -354.2231    263624.46   -25677.083    1960.7353   -27637.819   -1062.2481    80.049067     78.60019    18.366001    27.405539 
    6000    234.60603   -197.10799    263624.46   -25703.474     1898.643   -27602.117   -372.30826    81.979032    78.599114    18.370031    27.412946 
    6200    239.18678   -325.92359    263624.46   -25739.726    1935.7145    -27675.44   -958.19852    84.096887    78.599028    18.369269    27.403834 
    6400    233.56432   -183.24742    263624.46   -25757.897    1890.2125   -27648.109   -325.76004      85.2219    78.599215    18.368977    27.423702 
    6600    242.67445   -258.12123    263624.46   -25779.554    1963.9399   -27743.494   -645.21625    85.571573    78.598759    18.368535    27.429664 
    6800    239.39516   -305.56822    263624.46   -25774.969    1937.4009    -27712.37   -858.44702    88.039094    78.598494    18.367928    27.414986 
    7000    246.16712   -201.23686    263624.46   -25734.696    1992.2057   -27726.902   -357.18887    90.148087    78.596581    18.364772    27.411639 
    7200      234.869   -263.12699    263624.46   -25827.003    1900.7712   -27727.774    -681.1052    92.607062    78.596728    18.362617    27.401114 
    7400    236.58241   -363.55741    263624.46   -25758.264    1914.6376   -27672.902   -1093.6135    93.652181    78.595134    18.364556    27.404487 
    7600     243.7934   -317.34184    263624.46    -25689.71    1972.9955   -27662.706   -873.39904    94.495906    78.595462    18.364362    27.397835 
    7800    231.64974   -361.56554    263624.46    -25802.94     1874.718   -27677.658   -1114.0109    95.307029    78.594998    18.364879    27.394623 
    8000    238.79966    -246.7629    263624.46   -25663.236    1932.5816   -27595.817   -607.39242    96.413139    78.595499    18.362896    27.380051 
    8200    242.55381   -203.78359    263624.46    -25672.85    1962.9636   -27635.814   -438.74779    98.692795    78.595314    18.362584    27.342764 
    8400    244.42793   -299.83183    263624.46   -25594.263    1978.1306   -27572.394   -817.22949    100.94793    78.594676    18.363447    27.338562 
    8600    242.16131   -285.68593    263624.46   -25652.625    1959.7871   -27612.412   -758.28472    103.56241    78.594353    18.364666     27.34249 
    8800    239.94232   -293.24525    263624.46   -25667.597     1941.829   -27609.426   -799.93373    104.98303    78.593335    18.365704    27.362445 
    9000    242.37941   -158.07887    263624.46   -25660.616    1961.5521   -27622.168   -208.33849    108.42923    78.594089    18.366559    27.370482 
    9200    242.85231   -388.40248    263624.46    -25650.31    1965.3793   -27615.689   -1246.3285    110.95367    78.593499    18.364522    27.364469 
    9400    235.49142   -210.74768    263624.46    -25759.23    1905.8083   -27665.038   -438.45779    112.98871    78.592409    18.364004    27.358298 
    9600    235.68792   -198.74258    263624.46   -25769.915    1907.3986   -27677.314   -329.94462    114.15954    78.592746    18.366136    27.358045 
    9800    242.66948   -431.27723    263624.46   -25678.792    1963.8997   -27642.691   -1377.3521    113.77228    78.594968    18.366233    27.368169 
   10000    237.18314   -201.87743    263624.46   -25735.532    1919.4992   -27655.032   -391.73277    116.02454    78.596572    18.365064    27.374406 
   10200    247.66828   -168.28794    263624.46   -25625.314    2004.3545   -27629.669   -210.83162    117.82392    78.596668    18.365143    27.367092 
   10400    244.03957   -311.00572    263624.46    -25641.22    1974.9877   -27616.208   -861.63719    118.44284    78.598367    18.364699    27.373665 
   10600    243.02394   -240.86268    263624.46   -25731.936    1966.7683   -27698.705   -582.95005    119.37506    78.597616     18.36417    27.368983 
   10800    233.61714   -177.73248    263624.46   -25829.026      1890.64   -27719.666    -287.3492    120.83066     78.59809     18.36176    27.371614 
   11000    241.69643   -188.58683    263624.46    -25804.79    1956.0249   -27760.815   -313.13539     121.6316    78.598743    18.362581    27.375606 
   11200    239.60641   -454.09998    263624.46   -25826.448    1939.1105   -27765.559   -1499.3991     123.4721     78.59826    18.362666    27.375914 
   11400    236.49984   -335.20837    263624.46   -25739.699    1913.9694   -27653.668   -976.87789    123.77068    78.598394    18.366582    27.393608 
   11600    241.29514   -276.91476    263624.46   -25637.879    1952.7773   -27590.656   -747.85668    123.79723    78.598693    18.366972    27.376007 
   11800    243.60329   -438.81485    263624.46   -25613.822    1971.4569   -27585.279   -1445.5177    124.83721    78.599238    18.368309    27.381306 
   12000     243.6945   -85.723986    263624.46   -25622.444    1972.1951   -27594.639    113.07712    125.97772     78.60051    18.369023    27.385041 
   12200    240.99784   -409.29749    263624.46   -25654.218    1950.3713    -27604.59   -1345.9231    127.26334    78.599674    18.369035    27.393068 
   12400    238.20133   -298.73578    263624.46    -25691.97    1927.7393   -27619.709   -838.78968      128.939    78.598846    18.369995     27.38825 
   12600    240.42916   -188.37862    263624.46   -25615.201     1945.769    -27560.97   -353.67035    130.35426    78.600317    18.368697    27.396003 
   12800    237.76118   -325.38932    263624.46   -25655.304    1924.1772   -27579.481   -972.41711    131.80898    78.601148    18.367237    27.392284 
   13000    238.37622   -148.01265    263624.46   -25725.137    1929.1547   -27654.292    -160.7992    131.71733    78.601838    18.366313    27.404339 
   13200    241.60354   -240.38444    263624.46   -25753.544    1955.2731   -27708.817   -570.42519    132.11588    78.603581    18.367656    27.402953 
   13400    233.98265   -134.81316    263624.46   -25838.244    1893.5981   -27731.842    -109.2739    132.26279    78.604743    18.369589    27.395823 
   13600    229.40732   -249.50418    263624.46   -25767.253    1856.5704   -27623.823   -608.39639    133.86211    78.605795    18.372033    27.410448 
   13800    240.40427   -269.14611    263624.46   -25680.545    1945.5675   -27626.112   -683.87039    135.61708    78.604559    18.372533     27.40558 
   14000    239.00216   -258.86596    263624.46   -25622.679    1934.2204     -27556.9   -676.23324    137.43512    78.606741    18.372234    27.401074 
   14200    235.52237   -328.63898    263624.46    -25702.53    1906.0588   -27608.589   -944.26768    140.21444    78.607094    18.373282    27.410921 
   14400    237.73576   -274.48409    263624.46   -25721.748    1923.9716   -27645.719    -730.0008    142.17156    78.605524    18.372551    27.406431 
   14600    244.71186   -295.71981    263624.46   -25745.021    1980.4284   -27725.449   -813.03766    142.98377    78.607324    18.373354    27.418606 
   14800    243.94893   -283.77649    263624.46   -25673.995    1974.2541   -27648.249   -769.43904    143.07151     78.60694    18.372772    27.421187 
   15000    243.85101     -218.088    263624.46   -25692.371    1973.4616   -27665.833   -460.82632    144.53942    78.607589    18.373063    27.424938 
   15200    240.74534   -344.90589    263624.46    -25663.31    1948.3278   -27611.638   -1013.7282     148.1017    78.609041    18.371657    27.421006 
   15400    238.02403   -245.16653    263624.46   -25726.143    1926.3045   -27652.448   -603.59605    149.28796    78.609997    18.372508    27.428756 
   15600    248.57658   -304.18992    263624.46   -25607.752    2011.7052   -27619.457   -872.39914     151.0358    78.609027    18.375642    27.410457 
   15800    243.60803   -533.33643    263624.46   -25651.778    1971.4952   -27623.273   -1913.4544    152.99796    78.608264    18.375856    27.414751 
   16000    239.89147   -147.38471    263624.46   -25701.085    1941.4175   -27642.502   -159.17305    154.74001    78.608293    18.374392    27.425727 
   16200     241.5292   -178.38526    263624.46   -25674.524    1954.6715   -27629.196   -292.20127    155.04378     78.61028    18.375414    27.410041 
   16400    244.10386   -223.89224    263624.46   -25723.269    1975.5079   -27698.777   -493.94954    156.56858    78.609799    18.374425    27.411984 
   16600    234.55501   -282.40444    263624.46   -25640.562      1898.23   -27538.792   -775.67724    157.16684    78.610306    18.374108    27.413218 
   16800    241.04325   -312.01456    263624.46   -25672.425    1950.7388   -27623.164    -894.1933    159.77743     78.61045    18.374768    27.401935 
   17000    230.17408   -179.24313    263624.46   -25720.516    1862.7757   -27583.292   -306.06126    161.53913    78.607641    18.376681    27.411632 
   17200    246.23154   -188.39023    263624.46   -25731.065     1992.727   -27723.792   -346.60491    163.56813    78.607881    18.376642    27.395248 
   17400    232.05026   -311.06176    263624.46   -25777.311    1877.9594   -27655.271   -892.01429     164.1635    78.609094    18.376001     27.38887 
   17600    236.97589   -167.47654    263624.46   -25714.768     1917.822    -27632.59    -249.3368    165.61691    78.610601    18.375519    27.399688 
   17800    234.17543   -386.19974    263624.46   -25720.338    1895.1581   -27615.496   -1217.3971    167.59366    78.608756     18.37662    27.385818 
   18000    238.61641     -305.988    263624.46   -25643.185    1931.0986   -27574.284   -843.50495    168.82445    78.607015    18.375667    27.399236 
   18200    238.05691   -266.13455    263624.46   -25671.005    1926.5706   -27597.576   -666.50548    170.21946    78.607927    18.375641    27.393492 
   18400    240.92907   -364.45728    263624.46   -25654.982    1949.8147   -27604.797   -1150.9239    171.66655    78.608859    18.376411    27.394376 
   18600     241.8288   -341.27919    263624.46   -25670.106    1957.0961   -27627.203   -1003.8007    173.49552    78.609718    18.376448    27.389094 
   18800    237.68166    -196.5319    263624.46   -25753.085    1923.5337   -27676.619   -396.77721    175.41726     78.60837     18.37643    27.398168 
   19000    238.84303   -278.90527    263624.46   -25668.326    1932.9326   -27601.259   -722.62234    177.63355    78.607513     18.37326    27.392114 
   19200    242.73452   -342.00052    263624.46   -25703.827     1964.426   -27668.253    -1033.258    179.93556    78.606717    18.372832    27.373671 
   19400    242.19967   -304.69193    263624.46   -25654.249    1960.0975   -27614.346   -879.20044    180.11297    78.605648    18.374964    27.379105 
   19600    244.34087   -249.44349    263624.46   -25661.693     1977.426   -27639.119   -618.45971    179.83034    78.605359    18.375006     27.38931 
   19800    236.51052   -333.11566    263624.46   -25662.453    1914.0558   -27576.509   -959.45155    180.09094    78.603908    18.374751    27.408897 
   20000    240.93854   -334.74326    263624.46   -25703.653    1949.8914   -27653.545   -1011.9146    181.91221     78.60272    18.374378    27.429755 
   20200    239.43255   -222.87062    263624.46   -25749.523    1937.7035   -27687.227   -504.31187    183.46499    78.602604    18.375593    27.421599 
   20400    242.78519   -194.89067    263624.46   -25669.589    1964.8361   -27634.425   -372.60354    185.17404    78.602016    18.374816    27.410666 
   20600     241.3103    -325.3021    263624.46   -25758.042    1952.8999   -27710.942   -927.72176    186.79803     78.60203     18.37233    27.390512 
   20800    241.46223   -171.61438    263624.46   -25606.066    1954.1295   -27560.195   -212.49577    188.54982    78.601893    18.370952    27.406142 
   21000    243.10795   -201.97692    263624.46   -25615.615    1967.4481   -27583.063   -397.74393    188.79402    78.602854    18.369986     27.39596 
   21200    245.92238   -198.77894    263624.46   -25577.761     1990.225   -27567.986   -334.38414    190.75497    78.602468    18.369105    27.394431 
   21400    232.93864   -72.106241    263624.46   -25623.294     1885.149   -27508.443    160.60049    190.80235    78.604596    18.368728    27.380846 
   21600    242.13917   -229.73388    263624.46   -25532.361    1959.6079   -27491.969   -524.18492    191.99859    78.604754    18.368925    27.364993 
   21800    238.38453   -332.56452    263624.46   -25659.621     1929.222   -27588.843     -1008.32    194.32494    78.606274    18.366882    27.372534 
   22000    235.94072   -80.215489    263624.46   -25721.241    1909.4445   -27630.685    193.11045    195.29495    78.606077    18.364111    27.375105 
   22200    236.45233   -141.54772    263624.46   -25780.282    1913.5849   -27693.867   -144.42114     197.2008    78.606589    18.364201    27.380515 
   22400    240.82348   -294.32523    263624.46   -25663.444    1948.9602   -27612.404    -823.8136    199.59324    78.607036    18.365685    27.369127 
   22600    237.28871   -382.63206    263624.46   -25698.707    1920.3536   -27619.061   -1229.7928    202.47987    78.606258    18.365338    27.371862 
   22800    242.12824   -136.34836    263624.46    -25702.56    1959.5195    -27662.08   -128.33854    202.40207    78.606704    18.365859    27.353606 
   23000    237.83905   -272.57043    263624.46   -25774.711    1924.8075   -27699.518    -714.2633    204.11584    78.607539    18.365725    27.348986 
   23200    238.35454   -309.69218    263624.46    -25761.61    1928.9793   -27690.589   -924.80961    205.41059    78.608285    18.368198    27.333495 
   23400    241.03571    -386.1699    263624.46   -25767.284    1950.6777   -27717.961   -1198.4741    206.77211    78.609905    18.371283    27.356203 
   23600    240.10374   -345.03196    263624.46   -25702.166    1943.1354   -27645.301   -1042.8933     208.3492    78.610468    18.370985    27.354274 
   23800     242.1266   -80.460778    263624.46    -25716.29    1959.5062   -27675.797    189.66891    208.36351    78.610174    18.370263    27.360656 
   24000    243.87593   -361.48734    263624.46   -25731.079    1973.6634   -27704.742   -1109.8314    210.10221    78.609143    18.371341    27.364315 
   24200    243.53564   -151.49361    263624.46   -25780.477    1970.9094   -27751.387   -154.89677    209.87541    78.609408    18.372633      27.3531 
   24400    236.00178   -389.59648    263624.46    -25795.42    1909.9387   -27705.359   -1197.8095    213.54996    78.610133    18.375234    27.348595 
   24600    236.84472   -170.05766    263624.46   -25816.092    1916.7604   -27732.853   -227.30618    214.93625    78.609833    18.373597    27.351192 
   24800    239.64722   -306.45594    263624.46   -25799.854    1939.4408   -27739.294   -910.89447    215.38117    78.609544    18.371988    27.361818 
   25000    237.99579   -254.45378    263624.46   -25778.905     1926.076   -27704.981   -685.74632    215.58609    78.608579    18.371886    27.359594 
   25200    231.29444   -175.36684    263624.46   -25888.769    1871.8426   -27760.611     -281.649    214.74697    78.608449    18.372775    27.356346 
   25400    236.51816   -339.64883    263624.46   -25801.885    1914.1177   -27716.002   -993.45046    216.46529    78.608609    18.373295    27.350427 
   25600    241.99347    -251.0583    263624.46   -25644.448    1958.4288   -27602.877   -590.52363    216.81343    78.611188    18.372698    27.354992 
   25800    242.28361   -217.22915    263624.46   -25626.159    1960.7768   -27586.936   -460.12361    218.43889    78.610924      18.3707    27.362842 
   26000    240.22548   -253.90107    263624.46   -25643.328    1944.1207   -27587.449   -648.61901    219.33507     78.61153    18.372971    27.354304 
   26200    241.32292   -156.24185    263624.46   -25706.907    1953.0021   -27659.909   -238.85389    222.41621    78.613563    18.374656    27.382534 
   26400    233.24561   -348.65061    263624.46   -25741.062    1887.6332   -27628.695   -1065.3764    224.40708     78.61483    18.374259    27.375788 
   26600    238.75843   -318.99339    263624.46   -25648.687     1932.248   -27580.935   -969.93498    225.38942     78.61271    18.375519    27.381624 
   26800    239.90776   -367.23482    263624.46   -25658.902    1941.5493   -27600.451   -1128.9267    225.61288    78.612017    18.377179    27.389061 
   27000    238.89903   -209.87358    263624.46   -25654.385    1933.3858   -27587.771   -415.94693    226.86372    78.612888    18.377768     27.38468 
   27200    245.64317   -223.37461    263624.46   -25655.023    1987.9654   -27642.988    -457.9929    228.01223    78.613605    18.375257    27.387478 
   27400    247.30885   -375.49665    263624.46   -25624.296    2001.4456   -27625.741   -1160.2934    231.05201    78.614744    18.374828    27.381077 
   27600     233.5186   -239.91804    263624.46   -25794.474    1889.8425   -27684.316   -557.18728    231.37528    78.615598    18.376754    27.387582 
   27800    238.41286   -387.79073    263624.46   -25638.634    1929.4512   -27568.085   -1182.9579    233.44129    78.615365    18.376329    27.384818 
   28000    230.04424   -250.55152    263624.46   -25746.437    1861.7249   -27608.162   -576.83906    235.24661    78.615083    18.375324    27.391119 
   28200    237.56589   -210.86291    263624.46   -25724.971    1922.5968   -27647.568   -401.69248     238.1097    78.615124    18.375307    27.390486 
   28400    239.03566   -232.09015    263624.46   -25695.827    1934.4915   -27630.319   -534.33515    239.47502    78.617514    18.377839    27.385689 
   28600    240.35458   -370.88737    263624.46   -25743.105    1945.1654    -27688.27   -1144.3888    241.34713    78.615853    18.379781    27.393626 
   28800     239.0207    -294.8413    263624.46   -25720.762    1934.3705   -27655.132   -804.53487    243.48932    78.616463    18.379651    27.378898 
   29000    241.07774   -318.59959    263624.46   -25692.381    1951.0178   -27643.399   -889.04875    244.37259    78.617811    18.379963    27.373827 
   29200    242.18299   -239.93029    263624.46   -25643.217    1959.9625    -27603.18   -631.21831     244.8656    78.616537     18.37994     27.37941 
   29400    237.94461   -191.86897    263624.46   -25694.366    1925.6618   -27620.028   -370.03693    246.32752    78.616974    18.380575    27.388255 
   29600    242.98461   -311.00553    263624.46   -25672.852      1966.45   -27639.302   -809.87951    247.53659    78.618199    18.380252    27.397364 
   29800    238.45154   -154.36894    263624.46   -25791.968    1929.7643   -27721.732   -188.20786    247.67569    78.618258    18.379158    27.392334 
   30000    237.78076    -388.4351    263624.46   -25816.482    1924.3358   -27740.817   -1255.1179    250.29507    78.618125    18.380365    27.380269 
   30200    229.50441   -331.04061    263624.46   -25790.505    1857.3561   -27647.861   -965.75569    250.44193    78.617615    18.381488     27.37454 
   30400    241.26019   -316.84005    263624.46    -25728.44    1952.4944   -27680.935   -868.49471    251.27534    78.620358    18.380568    27.375612 
   30600    239.31008   -100.02137    263624.46   -25763.349    1936.7123   -27700.061    106.75161    251.83831    78.622585    18.376033    27.360346 
   30800    231.70955   -354.12132    263624.46    -25742.26    1875.2021   -27617.462   -1042.3068    253.09804    78.621798    18.373872    27.373859 
   31000    237.41479   -231.58034    263624.46   -25710.126     1921.374     -27631.5   -517.64761    255.35699    78.621252     18.37329    27.371142 
   31200    236.64436   -204.36389    263624.46   -25695.097     1915.139   -27610.236   -391.36307    256.96529    78.621277    18.375476     27.38585 
   31400    234.08939   -333.30852    263624.46   -25718.219    1894.4619   -27612.681   -960.85061    257.96585    78.623241    18.376167    27.368997 
   31600    246.06935   -204.48516    263624.46   -25735.416    1991.4145    -27726.83    -396.9155     259.1912    78.623237    18.377576    27.379772 
   31800    241.84005   -203.45488    263624.46   -25698.174    1957.1872   -27655.361   -400.82679    259.92722    78.622466    18.376791    27.361585 
   32000    242.21809   -295.96205    263624.46    -25740.61    1960.2466   -27700.857   -804.79344    261.78471    78.622331    18.375798    27.377874 
   32200    234.94798    -218.4894    263624.46   -25840.143    1901.4103   -27741.554   -476.31885    263.19591    78.622519    18.374784    27.377483 
   32400    237.85263   -252.88894    263624.46   -25801.246    1924.9174   -27726.163   -626.10807    265.53275    78.621681    18.374615    27.379629 
   32600    241.68142   -282.75592    263624.46   -25672.771    1955.9034   -27628.674   -766.94938    266.81763    78.621642    18.374024    27.379863 
   32800    244.42256   -228.15961    263624.46   -25650.558    1978.0872   -27628.645   -491.20202    268.94943    78.621196    18.374716    27.372206 
   33000    244.29002   -397.95768    263624.46   -25666.017    1977.0145   -27643.031   -1252.1062     271.1282    78.620862    18.377058    27.366057 
   33200    237.11749    -253.4495    263624.46   -25728.723    1918.9679   -27647.691   -645.47032    272.62935    78.621032    18.375252    27.376116 
   33400    240.62997   -289.04479    263624.46     -25745.8    1947.3941   -27693.194   -775.71527    275.29085    78.621755    18.376709    27.387972 
   33600    232.16882   -298.48119    263624.46   -25813.049    1878.9189   -27691.968   -841.71389    277.62526    78.623488    18.377545    27.378866 
   33800    243.86549   -307.25757    263624.46   -25634.779    1973.5788   -27608.357   -869.81295    279.87149    78.622688     18.37671    27.389973 
   34000    235.85259   -341.48646    263624.46   -25739.676    1908.7313   -27648.407   -979.10864    281.91444    78.622094    18.374416    27.394394 
   34200    239.96016   -364.81785    263624.46   -25726.553    1941.9734   -27668.527   -1069.6553    285.56757    78.621938      18.3744    27.398525 
   34400    238.06292   -312.75015    263624.46   -25774.153    1926.6193   -27700.773   -863.94568     286.5955    78.622624    18.374667    27.410085 
   34600    242.74937   -397.76007    263624.46   -25616.342    1964.5462   -27580.888   -1243.3332    287.45518    78.622593    18.373046    27.418891 
   34800    239.88204   -319.89092    263624.46   -25691.392    1941.3412   -27632.733   -897.76336    287.58344    78.622945    18.371854     27.40293 
   35000    236.27415   -369.34353    263624.46   -25698.637    1912.1429    -27610.78   -1132.5207    288.74932    78.623931    18.370925    27.412766 
   35200    247.96246   -297.17775    263624.46   -25687.459    2006.7352   -27694.194   -806.33375    290.25756    78.623464    18.372597    27.416637 
   35400    239.72072   -276.52424    263624.46   -25739.988    1940.0357   -27680.024   -705.32701    291.66616    78.625545    18.372302     27.41252 
   35600    241.77517   -220.36865    263624.46   -25753.223    1956.6621   -27709.885    -451.9406    294.48518    78.626397    18.373424    27.426252 
   35800    248.79302   -197.78656    263624.46   -25604.867    2013.4569   -27618.324   -357.58992    294.42793     78.62541    18.372602    27.425964 
   36000    235.36754   -281.52093    263624.46   -25730.235    1904.8058   -27635.041   -719.85976    295.60234    78.627291    18.370499    27.438826 
   36200    242.36258   -317.13383    263624.46   -25748.393     1961.416   -27709.809   -864.77167    295.56263    78.629248    18.365977     27.44371 
   36400    234.61709   -194.89934    263624.46   -25774.252    1898.7325   -27672.985    -370.9904     297.5275    78.629356    18.366374    27.443877 
   36600    236.31526   -296.51324    263624.46   -25714.312    1912.4756   -27626.787   -816.65969    299.85695    78.630366      18.3645     27.44903 
   36800    239.96228   -147.17366    263624.46    -25796.44    1941.9906    -27738.43   -135.86509    301.22531    78.630897    18.365661    27.464421 
   37000    244.74558   -416.95267    263624.46   -25756.725    1980.7013   -27737.426    -1329.478     302.8885    78.630862    18.366933    27.468106 
   37200    235.50603   -237.02458    263624.46   -25805.682    1905.9266   -27711.609   -497.97511    304.90652    78.629427    18.366556    27.463641 
   37400    239.66019   -233.88408    263624.46   -25798.315    1939.5458   -27737.861   -549.21532    305.48897    78.628737    18.367452    27.449369 
   37600     238.6825   -313.32285    263624.46   -25728.517    1931.6335   -27660.151    -885.7294    305.49403    78.627079    18.370285    27.447987 
   37800    233.48618   -107.69639    263624.46   -25814.965    1889.5802   -27704.545    75.121171    305.03676    78.625176    18.368801    27.453826 
   38000    237.81053   -293.02308    263624.46   -25718.655    1924.5766   -27643.232    -790.9077    308.50597    78.624255    18.367565    27.444457 
   38200    240.59363   -403.15009    263624.46   -25703.013       1947.1   -27650.113   -1313.6383    310.52324    78.624021    18.368551    27.436429 
   38400    238.21912   -177.73778    263624.46    -25666.56    1927.8833   -27594.444   -293.44664    311.54689    78.624287    18.368779    27.436965 
   38600     240.4232   -521.50334    263624.46   -25668.645    1945.7207   -27614.366    -1812.498    312.83771    78.624951    18.369154    27.468583 
   38800    234.96983   -258.41242    263624.46    -25766.62    1901.5872   -27668.207    -676.9877    312.90224    78.624428    18.368497     27.46983 
   39000    242.74897    -303.0242    263624.46   -25644.413     1964.543   -27608.956   -825.13661    314.98647    78.623898    18.369486    27.490747 
   39200      236.979   -267.17736    263624.46   -25752.264    1917.8471   -27670.111   -682.13823    316.48324    78.624967    18.370307    27.486501 
   39400    241.47952   -120.49966    263624.46   -25647.176    1954.2694   -27601.446   -23.125128    318.52482    78.625216    18.371836    27.478451 
   39600    238.29949   -289.67309    263624.46   -25637.248    1928.5338   -27565.781   -775.67957    321.83951    78.624413    18.371302    27.478257 
   39800    237.29266   -163.31599    263624.46   -25683.579    1920.3856   -27603.965   -226.32825    323.39553    78.626486    18.371596    27.491791 
   40000    245.00513   -383.66949    263624.46   -25680.745    1982.8019   -27663.547   -1236.0621    325.19389    78.628031    18.373364    27.515867 
   40200    242.23674    -242.4894    263624.46   -25654.568    1960.3976   -27614.965   -544.33982    325.14361    78.626849    18.374671    27.526053 
   40400    244.65008   -356.02663    263624.46   -25766.944    1979.9284   -27746.873   -1084.9504    327.32963    78.625403    18.375793    27.535826 
   40600    243.38118   -292.23305    263624.46   -25704.479    1969.6594   -27674.138    -779.4419    327.46258    78.624473     18.37437    27.547428 
   40800    245.96668   -246.18134    263624.46   -25753.458    1990.5836   -27744.042    -589.3642    327.85128    78.623606    18.376068     27.56759 
   41000     238.0686   -197.66073    263624.46   -25798.501    1926.6652   -27725.166   -377.51353    329.31236    78.624173    18.377774    27.565221 
   41200    243.43125   -163.17901    263624.46   -25682.577    1970.0646   -27652.641   -194.10555    330.22381    78.623553    18.378761    27.553469 
   41400    242.09025   -341.50268    263624.46   -25751.844     1959.212   -27711.056   -1021.4732    332.13382    78.624398    18.379343    27.551758 
   41600    238.79238   -159.09632    263624.46   -25738.323    1932.5227   -27670.845   -206.98428    332.06995    78.624703    18.378975     27.55464 
   41800    239.88956   -193.32219    263624.46   -25705.718     1941.402    -27647.12   -334.66676    334.83423     78.62246    18.379646    27.558826 
   42000     236.1959   -188.90654    263624.46    -25803.48    1911.5096    -27714.99    -380.4517    338.46946    78.620494    18.379453     27.55166 
   42200    235.62922    -157.9085    263624.46   -25822.138    1906.9235   -27729.061   -206.69047     340.4327    78.620125     18.37796    27.559491 
   42400    236.42512   -298.10474    263624.46   -25736.347    1913.3647   -27649.711   -789.34026    344.50505    78.619531    18.376063    27.555465 
   42600    237.96479   -398.77337    263624.46   -25681.722    1925.8251   -27607.547   -1276.3643     346.2052    78.620037    18.376761    27.549427 
   42800    242.16042   -317.71203    263624.46   -25696.082    1959.7799   -27655.861   -924.37575    349.05548     78.62126       18.377    27.557616 
   43000    240.67063   -255.87724    263624.46   -25714.013    1947.7232   -27661.736   -623.91922     349.8198    78.622024     18.37783    27.554691 
   43200     245.7132   -131.48013    263624.46   -25689.583    1988.5322   -27678.115   -42.893918    351.84521    78.622315    18.378056    27.538472 
   43400    239.94573   -207.84472    263624.46   -25751.145    1941.8566   -27693.002   -450.19104    354.61116    78.620971    18.376435    27.524587 
   43600    240.42178   -195.19688    263624.46   -25763.319    1945.7093   -27709.028   -359.94763    354.80052    78.621299    18.376136    27.542583 
   43800    239.39412   -111.16244    263624.46    -25801.57    1937.3925   -27738.962    59.062869    357.69063    78.620344    18.375299    27.554963 
   44000    234.06879   -313.01766    263624.46   -25851.663    1894.2951   -27745.958   -839.20214    361.95856    78.620794    18.376839    27.569817 
   44200    240.07825   -402.24535    263624.46   -25767.869    1942.9291   -27710.798   -1269.3482     365.0058    78.621529    18.376893    27.566008 
   44400    243.11132   -291.58056    263624.46   -25802.011    1967.4754   -27769.487    -769.6867    365.61879    78.621815    18.379299    27.566586 
   44600    242.78392   -181.51639    263624.46   -25830.861    1964.8258   -27795.687   -249.45041    365.09428    78.621659    18.378525    27.564169 
   44800    238.65727   -274.05321    263624.46   -25787.507    1931.4292   -27718.936   -707.64827    366.35233    78.620787    18.377944     27.57596 
   45000    236.50446   -368.21102    263624.46   -25758.395    1914.0068   -27672.402   -1146.6118    366.24056    78.621225    18.378077    27.572833 
   45200    242.99286   -341.47698    263624.46   -25772.985    1966.5167   -27739.502   -1002.1972    364.76716    78.620748    18.377237    27.570275 
   45400    234.23898   -277.52873    263624.46   -25830.492    1895.6725   -27726.165   -683.40205    364.57491    78.619278    18.375346    27.553753 
   45600    239.33002     -106.978    263624.46    -25763.87    1936.8737   -27700.744    56.231915    366.37447    78.616339     18.37294    27.537303 
   45800    239.19813   -251.57657    263624.46   -25787.819    1935.8064   -27723.626   -609.94363    368.21175    78.614397     18.37135    27.522604 
   46000    237.86539   -334.11979    263624.46   -25736.577    1925.0207   -27661.598    -968.4755    369.97461     78.61435    18.372235    27.526247 
   46200    242.69698   -325.55921    263624.46   -25708.012    1964.1222   -27672.134   -931.11286    373.57699    78.615261    18.371844    27.499845 
   46400     239.8169   -290.41604    263624.46   -25765.476    1940.8141    -27706.29   -750.13463    373.93671     78.61787    18.371558    27.493886 
   46600    239.13438    -326.8203    263624.46   -25782.695    1935.2905   -27717.985   -956.47108    376.37774    78.617195    18.373656    27.482502 
   46800    239.69556   -165.10512    263624.46   -25720.555    1939.8321   -27660.387    -193.5731    377.76969    78.616625     18.37519    27.463777 
   47000     242.1076   -233.53898    263624.46   -25755.808    1959.3524    -27715.16   -518.23389     379.2518    78.617158    18.376015    27.451097 
   47200    238.10501   -212.43708    263624.46   -25785.522    1926.9599   -27712.482   -403.24621    381.10418    78.617978    18.378833    27.442341 
   47400    242.07225   -182.94899    263624.46   -25765.285    1959.0663   -27724.351   -296.11364    379.76834    78.618643    18.378094    27.448425 
   47600    235.04529   -283.65212    263624.46   -25745.559    1902.1978   -27647.757   -699.39407     382.3296     78.61766    18.377548    27.432418 
   47800    235.24047   -268.89235    263624.46   -25755.534    1903.7775   -27659.311   -655.55187    384.88511    78.616692    18.374916    27.443628 
   48000    239.09627   -106.38863    263624.46   -25756.292     1934.982   -27691.274     61.31701    386.01513    78.615447    18.371199    27.459235 
   48200    238.21136   -234.03903    263624.46   -25777.079    1927.8206     -27704.9   -471.26747    384.54588    78.616469    18.369568    27.468023 
   48400    238.17542   -342.82289    263624.46   -25759.761    1927.5297   -27687.291   -1044.3747    384.86633    78.618245    18.370698    27.467951 
   48600    238.63223   -265.06706    263624.46   -25780.436    1931.2266   -27711.663   -617.38696     387.7221     78.61903    18.372928    27.480009 
   48800    239.72075   -297.73304    263624.46   -25727.567    1940.0358   -27667.603   -822.90824    391.77032    78.619246    18.375794    27.483516 
   49000    239.28904   -332.93956    263624.46   -25723.523    1936.5421   -27660.065   -945.42501    391.43931    78.618595    18.377283    27.478694 
   49200    239.51137   -391.63287    263624.46   -25672.856    1938.3414   -27611.198   -1239.2109    393.18765    78.620137      18.3774    27.475213 
   49400    238.65309   -220.37287    263624.46   -25764.777    1931.3955   -27696.172   -488.69456    396.38086    78.619332    18.375956    27.490376 
   49600    242.58509   -361.21926    263624.46   -25719.882    1963.2167   -27683.099   -1077.9478    399.67542    78.619888    18.377203    27.459885 
   49800    240.22548   -184.94049    263624.46   -25764.885    1944.1206   -27709.005   -300.06617    397.96764    78.620542    18.377124    27.454686 
   50000    237.28155   -368.64526    263624.46   -25723.852    1920.2957   -27644.148   -1137.2211      398.655    78.620899    18.376044    27.429079 
   50200    237.67803   -176.91678    263624.46   -25665.133    1923.5043   -27588.638   -296.56801    399.64837    78.621172    18.376861    27.414757 
   50400    238.13321   -262.92415    263624.46   -25668.117    1927.1881   -27595.305   -684.86929    402.24269    78.619335    18.376275    27.429082 
   50600    246.00371   -206.07953    263624.46   -25536.668    1990.8832   -27527.552   -420.41982    404.76501    78.617786    18.375444    27.431353 
   50800    241.42964   -288.37113    263624.46   -25728.177    1953.8657   -27682.043   -763.82006    405.44432    78.617082    18.376895    27.421882 
   51000      240.902   -319.16049    263624.46   -25754.255    1949.5956   -27703.851   -958.12831    405.29352    78.616299      18.3752     27.40814 
   51200    237.73059   -324.41158    263624.46   -25797.566    1923.9297   -27721.495   -976.35003    407.36152    78.615325    18.374686    27.393732 
   51400    240.77695   -344.57405    263624.46   -25780.201    1948.5836   -27728.785     -1016.11    408.24075    78.616519    18.376059    27.372663 
   51600    243.56505   -319.83679    263624.46   -25746.333    1971.1474   -27717.481   -921.93628    409.09817    78.615832    18.377348    27.346048 
   51800    237.50654   -403.79167    263624.46   -25746.468    1922.1165   -27668.584   -1311.6513     410.2831    78.615933    18.377507    27.360005 
   52000     236.9643   -280.57478    263624.46    -25783.43    1917.7282   -27701.158   -756.62615    409.10433     78.61723    18.378962    27.354096 
   52200    234.48761   -134.88199    263624.46   -25824.417    1897.6847   -27722.102   -93.795177    411.01163    78.617303    18.379959    27.338425 
   52400    231.88096   -239.91798    263624.46   -25862.144    1876.5893   -27738.734   -548.83398    410.70177    78.617794    18.380265    27.334966 
   52600    237.88536   -140.23302    263624.46    -25746.09    1925.1823   -27671.272   -90.867044    409.34071    78.618101    18.381771    27.334833 
   52800    241.73685    -183.5423    263624.46   -25668.781     1956.352   -27625.133    -332.5759    411.85832    78.617225    18.382108    27.344182 
   53000     236.8015   -248.25452    263624.46   -25645.458    1916.4107   -27561.869   -632.08252    410.93624    78.618371    18.383164    27.346971 
   53200    233.07191   -155.06204    263624.46   -25763.821    1886.2275   -27650.049   -179.84895    411.38898    78.619416     18.38304    27.363325 
   53400    240.37839   -259.66396    263624.46   -25695.479    1945.3581   -27640.837   -662.21388    411.55252    78.618876    18.383816    27.360698 
   53600    233.66511   -179.44649    263624.46   -25737.761    1891.0282    -27628.79   -283.12831    412.54764    78.619075    18.385482    27.359125 
   53800    237.74331    -462.9288    263624.46   -25681.814    1924.0327   -27605.847   -1587.6926    414.32823    78.620172    18.383766    27.361947 
   54000    235.09408   -277.87146    263624.46   -25692.091    1902.5928   -27594.683   -771.03431    413.90355    78.621422    18.383405    27.377656 
   54200    245.10344   -334.54492    263624.46   -25603.846    1983.5974   -27587.443   -1023.0544    416.51391    78.622056    18.385063    27.378361 
   54400    237.58324   -260.31516    263624.46   -25674.464    1922.7372   -27597.201   -664.88272    417.16087     78.62016     18.38621    27.388656 
   54600    240.88432   -253.24408    263624.46   -25659.183    1949.4525   -27608.635   -628.75511    416.93943    78.620024    18.387849    27.404321 
   54800    241.11498   -259.67248    263624.46   -25655.988    1951.3192   -27607.308   -642.31455    417.63974    78.619856    18.387637    27.386435 
   55000    242.46968   -339.77703    263624.46   -25660.255    1962.2827   -27622.537   -994.88031     418.6484    78.618575    18.386562    27.391181 
   55200    234.98318   -219.32867    263624.46   -25772.009    1901.6952   -27673.704   -494.26799    418.62976    78.618296    18.384071    27.404871 
   55400    242.30912   -71.646971    263624.46   -25693.605    1960.9833   -27654.588    189.95864     420.7939    78.621287    18.383755    27.388182 
   55600    239.64279    -315.6355    263624.46    -25633.75     1939.405   -27573.155    -918.6462    423.30533    78.621965    18.383923    27.386301 
   55800    243.19592   -322.07179    263624.46   -25601.507    1968.1601   -27569.667   -952.06716    426.41749    78.621979    18.382451    27.379754 
   56000     243.3064   -364.68978    263624.46   -25613.316    1969.0542   -27582.371   -1126.5485    425.93154    78.622815     18.38142    27.375483 
   56200    241.28886   -158.22369    263624.46   -25614.979    1952.7264   -27567.705   -192.46535    427.21238    78.622016    18.379543    27.357329 
   56400    243.95832   -277.11175    263624.46   -25750.173    1974.3301   -27724.503   -724.75746    427.37673    78.622711    18.376919    27.360002 
   56600    239.60122   -193.56674    263624.46    -25818.75    1939.0686   -27757.819   -356.24449    428.92443    78.624215    18.377797    27.354036 
   56800     244.9528    -338.5784    263624.46   -25719.154    1982.3783   -27701.532   -1018.5531    431.61146    78.624094    18.376758    27.351321 
   57000    235.71399   -136.36375    263624.46   -25797.305    1907.6096   -27704.915   -72.019875    436.03227    78.622743    18.375526    27.337203 
   57200    246.55965   -383.83029    263624.46    -25681.57    1995.3824   -27676.952   -1202.5024    438.62685    78.623377    18.375358    27.349985 
   57400    239.46127   -276.46598    263624.46    -25758.73    1937.9359   -27696.666   -703.32117    436.78887    78.625025    18.376463    27.342386 
   57600    234.54611   -338.74725    263624.46   -25806.802     1898.158    -27704.96   -980.99583    440.55999    78.625043    18.377517    27.333145 
   57800    241.82592   -237.00012    263624.46   -25670.949    1957.0728   -27628.022    -586.8554    443.53792    78.623476    18.380481    27.328891 
   58000    239.19921   -335.71435    263624.46   -25707.568    1935.8151   -27643.383   -1006.6951    444.76912    78.622912     18.38044    27.342749 
   58200     241.8951    -149.7622    263624.46   -25681.541    1957.6327   -27639.174   -143.13709    445.35898    78.624869    18.381258    27.339863 
   58400    234.67278   -305.44489    263624.46   -25713.131    1899.1832   -27612.314   -823.87383     444.0731    78.623031    18.380421    27.354493 
   58600    235.07946   -443.66337    263624.46   -25701.552    1902.4744   -27604.026    -1431.323    445.90814     78.62157    18.380399    27.359271 
   58800      241.985   -88.267286    263624.46   -25722.952    1958.3602   -27681.312     150.3211    447.56229    78.621671    18.380741    27.355244 
   59000    241.78416   -489.18077    263624.46   -25614.062    1956.7349   -27570.797   -1668.1735    450.38407    78.620917    18.381108    27.358084 
   59200    238.51737   -290.95847    263624.46   -25657.374    1930.2971   -27587.671   -835.70356    452.62408    78.621439     18.38074    27.378334 
   59400    240.49423    -131.8177    263624.46   -25656.488    1946.2956   -27602.784   -70.963307    452.54466     78.62091    18.380796    27.376402 
   59600    238.05528   -299.32994    263624.46   -25677.895    1926.5574   -27604.452   -871.44403    453.36203    78.621163     18.38044    27.378047 
   59800    237.55077   -298.69607    263624.46   -25781.301    1922.4745   -27703.775   -794.37812    456.31285    78.622125    18.380216     27.37672 
   60000    243.83578   -235.82074    263624.46   -25697.098    1973.3384   -27670.436   -572.07641    455.70764    78.621633    18.381593    27.387455 
   60200    237.64399    -371.0249    263624.46    -25713.08    1923.2289   -27636.309   -1128.2324    458.71521     78.62209    18.381487    27.389218 
   60400    242.87742   -277.25718    263624.46   -25636.115    1965.5825   -27601.698   -727.85178    458.41115    78.623353    18.381352    27.396278 
   60600     236.0873   -319.94009    263624.46   -25667.941    1910.6307   -27578.572   -933.97108     458.6583    78.623037    18.381305    27.380797 
   60800     238.1985   -268.58806    263624.46   -25602.089    1927.7165   -27529.806   -677.27486    458.50582    78.623035    18.382427    27.376769 
   61000     241.0205    -373.7474    263624.46   -25703.878    1950.5546   -27654.432   -1175.1054    459.84196    78.625227    18.383386    27.361087 
   61200    237.53519   -248.88134    263624.46   -25639.249    1922.3484   -27561.598   -560.80508    461.64088    78.625735    18.382213    27.361386 
   61400    241.87351   -151.62629    263624.46   -25641.608    1957.4579   -27599.065   -170.92037    463.66129     78.62623    18.384196    27.366094 
   61600    241.88109   -324.52388    263624.46   -25731.051    1957.5193   -27688.571   -940.65458    466.70511    78.625985    18.383547    27.356291 
   61800    239.30397   -257.52476    263624.46   -25735.684     1936.663   -27672.347   -664.48719    471.14669    78.625795    18.384585    27.364445 
   62000    236.42036   -255.34154    263624.46    -25687.54    1913.3262   -27600.866   -627.00067    471.95096    78.628862    18.387259    27.357257 
   62200    235.25004   -386.15488    263624.46   -25676.912    1903.8549   -27580.767    -1251.456    471.05452    78.628095    18.388592    27.356836 
   62400    241.04897   -414.72721    263624.46   -25696.356     1950.785   -27647.142   -1361.9952    469.34582     78.62814    18.389549    27.363179 
   62600    236.20345   -367.20873    263624.46   -25683.337    1911.5707   -27594.908   -1129.5113    470.81208    78.627917    18.390683    27.370945 
   62800    240.66417   -220.83829    263624.46   -25700.362    1947.6709   -27648.033   -534.12001    470.14947    78.628147    18.387007    27.352019 
   63000    238.08795   -377.85831    263624.46   -25731.284    1926.8218   -27658.106   -1200.2156    470.77124    78.627633    18.385674    27.334958 
   63200    238.25756    -277.6425    263624.46   -25674.758    1928.1944   -27602.953   -747.91836    472.44075    78.627259    18.383334    27.331482 
   63400    231.99997   -257.03902    263624.46   -25765.765    1877.5524   -27643.318   -626.51206    472.55538    78.626884    18.380793     27.33734 
   63600    236.03238   -316.35235    263624.46   -25768.866    1910.1863   -27679.053   -899.08762    475.14648    78.628752    18.380602    27.345191 
   63800    238.80379   -96.532496    263624.46    -25801.52     1932.615   -27734.135    37.158796    476.77462    78.630618    18.379844    27.355427 
   64000    236.32094   -126.24048    263624.46   -25676.629    1912.5216   -27589.151   -51.400606    478.30953    78.632276    18.379498    27.371444 
   64200    237.29424   -332.66751    263624.46    -25657.01    1920.3984   -27577.409   -970.42987    479.27735    78.632024    18.379185    27.388749 
   64400    234.97257   -359.83678    263624.46   -25697.176    1901.6093   -27598.785   -1131.1299    477.30918    78.632904    18.378452    27.402573 
   64600    232.58928   -289.85471    263624.46   -25708.603    1882.3216   -27590.924   -766.90394    476.49049    78.634551    18.377628    27.402942 
   64800    242.05033   -411.18818    263624.46   -25701.139    1958.8889   -27660.028   -1355.4836    479.28595    78.635983    18.376673    27.396427 
   65000    246.73372    -234.0692    263624.46   -25632.664    1996.7911   -27629.455   -560.73611    481.63001    78.635577    18.379245    27.401878 
   65200    240.30859   -428.33767    263624.46   -25718.699    1944.7932   -27663.492    -1432.414    484.84102    78.634848     18.38293    27.404501 
   65400    247.69447   -210.10145    263624.46   -25693.303    2004.5664   -27697.869   -446.38838    485.18406    78.633786    18.383021    27.380786 
   65600    239.33729     -361.632    263624.46   -25633.517    1936.9326    -27570.45   -1113.8252    485.64076    78.634516    18.382221    27.377124 
   65800     242.4443   -350.00839    263624.46   -25687.158    1962.0773   -27649.235   -1079.5885    487.66918    78.637613    18.379679    27.378897 
   66000    241.83141   -251.72094    263624.46   -25712.066    1957.1172   -27669.183   -576.87868    488.78128    78.636571    18.380393    27.413131 
   66200    242.28071   -347.96039    263624.46   -25774.457    1960.7534   -27735.211    -1104.002    487.50953    78.637662    18.379008     27.44201 
   66400    239.68158   -385.50119    263624.46   -25751.153    1939.7189   -27690.872   -1217.3038    490.50822    78.639896    18.378449    27.453335 
   66600    236.75728    -292.2182    263624.46   -25777.871    1916.0528   -27693.924   -803.46559    489.89097    78.640919    18.376935    27.456328 
   66800    238.25342   -235.80279    263624.46   -25774.959    1928.1609   -27703.119   -510.72262    491.06255    78.640461     18.37581    27.438042 
   67000    241.70479   -348.62457    263624.46   -25836.613    1956.0925   -27792.705   -1047.3823    491.29948    78.639779    18.373774    27.429961 
   67200    230.21927   -256.67864    263624.46   -25786.851    1863.1414   -27649.993   -670.40051    492.80769    78.640531    18.372481    27.439651 
   67400    239.54601   -277.20366    263624.46   -25737.182    1938.6217   -27675.803   -734.74951    492.95941    78.641073    18.370207    27.432519 
   67600    241.06229   -434.17119    263624.46   -25628.079    1950.8929   -27578.972   -1429.7323    493.66573     78.64289    18.367997    27.422114 
   67800    235.51597   -377.00221    263624.46   -25713.435     1906.007   -27619.442   -1180.0416    494.94534     78.64426    18.366641    27.430106 
   68000    233.98175    -305.9094    263624.46   -25783.786    1893.5908   -27677.377   -851.99066    496.81147      78.6445    18.365018    27.420808 
   68200    238.76574   -224.97009    263624.46   -25770.565    1932.3071   -27702.872   -485.11733    496.72618    78.644026    18.364678    27.408207 
   68400    246.00409   -284.60266    263624.46   -25675.142    1990.8863   -27666.028   -782.49027    499.39889    78.644962    18.365569     27.41452 
   68600    242.54866    -335.9853    263624.46   -25713.675    1962.9219   -27676.597   -999.47087    500.17949    78.646938    18.366902    27.402367 
   68800    240.21013   -124.97977    263624.46   -25709.339    1943.9964   -27653.336   -7.8575394    500.40715    78.647253     18.36699    27.379911 
   69000    235.76753   -349.76197    263624.46   -25731.723    1908.0429   -27639.766   -1035.3863     502.4143    78.648046    18.366519    27.364406 
   69200    235.16814   -163.88089    263624.46   -25784.916    1903.1921   -27688.108   -263.24734    504.40869    78.645923    18.366166    27.374586 
   69400    234.49367   -119.30538    263624.46   -25845.266    1897.7337       -27743   -29.146211    505.46675    78.644768    18.365099    27.392014 
   69600     243.2488   -442.13897    263624.46   -25614.432    1968.5881    -27583.02   -1465.0681    509.03859    78.644076    18.365609     27.39752 
   69800    241.17783   -277.46543    263624.46    -25731.24    1951.8279   -27683.068   -747.09067     508.6389    78.642586    18.365923    27.403221 
   70000    242.28949   -219.56298    263624.46   -25697.558    1960.8244   -27658.383   -475.10206     511.4093    78.641629    18.366962    27.424356 
   70200     241.0813    -292.0149    263624.46   -25707.919    1951.0467   -27658.965   -815.88546    512.15072     78.64032    18.364264    27.420155 
   70400    239.44411   -283.11764    263624.46   -25646.423     1937.797    -27584.22   -798.27927    512.71976    78.639069     18.36254     27.43545 
   70600    241.13046   -381.80527    263624.46   -25769.915    1951.4446    -27721.36   -1201.0004    513.63777    78.639924    18.361802    27.441002 
   70800    235.57136   -267.37044    263624.46   -25746.067    1906.4553   -27652.523   -662.64049     517.3123    78.638356    18.362965    27.451629 
   71000    234.79138   -331.86037    263624.46   -25785.672     1900.143   -27685.814   -984.79797    518.79318    78.640396    18.362943    27.462873 
   71200    239.37883   -285.88804    263624.46   -25780.663    1937.2687   -27717.932   -754.74093    518.96312    78.640121    18.363776    27.457649 
   71400    237.89378   -298.99582    263624.46   -25801.607    1925.2504   -27726.857   -826.07686    519.91089    78.639468    18.362867    27.466392 
   71600    234.55509   -480.44115    263624.46   -25749.895    1898.2308   -27648.126   -1632.8688    522.49108    78.639012    18.360756    27.459541 
   71800    233.39165   -342.17884    263624.46   -25861.807    1888.8151   -27750.622   -1057.5441    521.57194    78.638089    18.360084    27.465124 
   72000    233.67764    -296.0491    263624.46   -25825.083    1891.1296   -27716.212   -851.06627    523.05215     78.63958    18.358631    27.467155 
   72200    246.28969   -114.58432    263624.46   -25631.369    1993.1977   -27624.566   -5.9109783    523.45524    78.640079    18.358091    27.471293 
   72400    238.50099   -418.76006    263624.46   -25746.592    1930.1645   -27676.756   -1337.9838    524.35818    78.640865    18.357601    27.461572 
   72600    241.27155   -364.90786    263624.46   -25634.004    1952.5863    -27586.59   -1162.0339    526.73462    78.642609    18.356424    27.445429 
   72800    241.83859   -330.70732    263624.46    -25690.19    1957.1754   -27647.366   -983.91387     528.3663    78.641817    18.357396    27.433659 
   73000    234.43754   -263.56447    263624.46    -25698.36    1897.2794   -27595.639    -679.9955    530.63437    78.640637    18.360878    27.420567 
   73200    245.57523    -293.8116    263624.46   -25620.526    1987.4156   -27607.942   -742.73149    532.66476    78.640176    18.362191    27.425298 
   73400    241.49926   -279.00515    263624.46   -25648.848    1954.4292   -27603.278   -703.46688    532.55967    78.641108     18.36107    27.438385 
   73600     244.4249   -349.98624    263624.46   -25657.765    1978.1061   -27635.871   -1016.5589    534.14406    78.642467    18.361017    27.448454 
   73800    233.61553   -232.85521    263624.46   -25773.495     1890.627   -27664.122   -517.96007     534.6215    78.642215    18.360919    27.442528 
   74000    238.27045    -185.5938    263624.46   -25779.291    1928.2988    -27707.59   -275.22245    534.99778    78.645198    18.361948    27.442951 
   74200    237.85805   -218.26118    263624.46   -25709.993    1924.9612   -27634.955   -479.31902    534.25452      78.6455    18.361407    27.451183 
   74400    246.68387    -286.0154    263624.46   -25651.271    1996.3877   -27647.659   -773.10017    534.90064    78.645258    18.359437    27.460709 
   74600    235.09237    -279.1715    263624.46   -25737.649    1902.5788   -27640.228   -657.99134    536.35182    78.645302    18.359168    27.474621 
   74800    240.91365   -214.57425    263624.46    -25743.23    1949.6899    -27692.92   -436.36574    539.16103    78.643457    18.358446     27.46412 
   75000     237.9661   -210.95125    263624.46   -25742.613    1925.8357   -27668.448   -440.04298    540.20774    78.643391    18.356157    27.463631 
   75200    244.40239   -281.19039    263624.46   -25688.029    1977.9239   -27665.953   -710.88648    539.35809    78.645035    18.357015     27.47102 
   75400    242.59736   -264.10331    263624.46   -25783.231     1963.316   -27746.547   -689.66989     539.9845    78.645519    18.357681    27.471249 
   75600    240.40057   -295.18205    263624.46   -25708.505    1945.5376   -27654.043   -871.01856    541.71604    78.645783    18.356988    27.473458 
   75800    239.56397   -178.10732    263624.46   -25668.651    1938.7671   -27607.418   -283.52537    542.14064    78.646349    18.356412    27.462856 
   76000    246.80448   -270.57071    263624.46   -25666.278    1997.3638   -27663.642   -693.96234    544.19206    78.648413    18.356651    27.434188 
   76200    230.43246   -391.58863    263624.46   -25779.983    1864.8667    -27644.85   -1249.9488    546.69109    78.649053    18.354741    27.436747 
   76400    233.45216   -273.03811    263624.46   -25770.345    1889.3048   -27659.649   -711.23891    549.64879    78.649407    18.353425    27.418395 
   76600    243.57578   -360.77164    263624.46   -25715.012    1971.2343   -27686.246   -1103.4266     552.7243    78.650386    18.353174    27.412135 
   76800    235.34269   -454.63254    263624.46   -25758.082    1904.6047   -27662.687   -1520.0959    554.79467     78.64921    18.353957    27.419738 
   77000    246.74927   -188.96383    263624.46   -25680.039     1996.917   -27676.956   -317.05501    559.13265    78.648703    18.355908    27.403248 
   77200    240.21753   -233.11928    263624.46   -25721.965    1944.0563   -27666.022   -545.51912    559.33363    78.647924    18.356115    27.403891 
   77400    241.70314   -259.28027    263624.46   -25717.805    1956.0791   -27673.885   -606.54132    559.75311    78.647345    18.355747    27.403357 
   77600    233.21008    -453.4098    263624.46   -25798.438    1887.3457   -27685.783   -1522.8684    561.21972    78.645361    18.358314    27.405674 
   77800     230.2471   -424.77037    263624.46   -25742.909    1863.3666   -27606.275   -1390.8765    564.09176    78.645813    18.360619    27.419365 
   78000    243.74276   -410.27874    263624.46   -25775.005    1972.5856   -27747.591   -1331.1405    566.52869    78.644977    18.360677    27.416723 
   78200    239.06809   -511.00686    263624.46   -25778.198     1934.754   -27712.952   -1805.0649    569.51567    78.646376    18.361383    27.410869 
   78400    241.81116   -268.88884    263624.46   -25755.066    1956.9534   -27712.019   -697.41112    567.34272    78.647962    18.362235    27.404726 
   78600    240.75925   -135.73398    263624.46    -25666.03    1948.4404    -27614.47   -81.899279    567.20156    78.649132    18.364062    27.404257 
   78800    237.09449    -139.4173    263624.46   -25652.663    1918.7818   -27571.445   -109.00834    568.95988    78.649192    18.367075    27.391715 
   79000    236.64385   -278.59824    263624.46   -25699.208    1915.1349   -27614.343   -774.22282    569.16758    78.648282    18.371779    27.390836 
   79200     236.5077     -341.445    263624.46   -25639.959     1914.033   -27553.992   -1032.6996    571.20085    78.646986    18.373905    27.406116 
   79400    244.32957    -403.7926    263624.46   -25595.736    1977.3346   -27573.071   -1282.5076    572.53053    78.645091    18.373232    27.420783 
   79600    234.89473   -112.57565    263624.46   -25700.072    1900.9794   -27601.051      7.77445    571.29691    78.645913    18.372058    27.402064 
   79800    243.83793   -217.21919    263624.46   -25699.362    1973.3558   -27672.718   -468.29874    572.97511    78.644024    18.370076    27.407587 
   80000    240.91665    -296.6993    263624.46   -25733.968    1949.7142   -27683.682   -799.94815    573.81466    78.640596    18.371301    27.402677 
   80200    231.88751   -329.86248    263624.46   -25762.824    1876.6423   -27639.466   -969.72918    574.31392    78.640916    18.371006    27.387839 
   80400    236.43038   -229.04596    263624.46   -25728.071    1913.4073   -27641.478   -523.25918     575.3299    78.643357    18.372467    27.375314 
   80600    245.86797   -269.81348    263624.46   -25676.383    1989.7847   -27666.168   -667.11045    574.96836    78.644704    18.373011    27.377667 
   80800    242.19501   -182.99223    263624.46   -25696.864    1960.0598   -27656.923    -262.3649    576.36119     78.64565    18.374837    27.390063 
   81000     238.8847    -183.2081    263624.46   -25708.798    1933.2698   -27642.068   -307.14651     578.9739    78.645429    18.376974    27.381381 
   81200    241.68667   -479.59558    263624.46   -25705.823    1955.9459   -27661.769   -1607.6686    581.30789    78.642048     18.37718    27.369935 
   81400    238.31696   -344.94672    263624.46   -25693.942    1928.6752   -27622.617   -993.23965    582.38487    78.643039    18.376041    27.360998 
   81600    239.68237   -218.17465    263624.46   -25749.507    1939.7253   -27689.232   -470.99814    583.39832    78.642753    18.375508    27.343101 
   81800    234.20258   -254.04106    263624.46   -25828.441    1895.3779   -27723.819     -637.437    584.22175    78.643072    18.375427    27.332799 
   82000    241.97986   -213.97617    263624.46   -25730.364    1958.3186   -27688.682    -436.8632    585.11251    78.643152    18.375091    27.320931 
   82200     245.8923   -213.75583    263624.46   -25663.535    1989.9816   -27653.517   -414.23532    586.60176    78.642376    18.375376    27.333425 
   82400    239.77163   -209.05754    263624.46   -25683.043    1940.4477   -27623.491   -399.21331    589.75482    78.641656     18.37456    27.329508 
   82600    240.81865   -367.44852    263624.46   -25606.969    1948.9211    -27555.89     -1106.84    592.40176     78.64229    18.374785    27.328162 
   82800    236.49449   -388.84619    263624.46   -25709.214    1913.9261    -27623.14   -1248.5217    591.85109    78.642663    18.376193    27.323259 
   83000     244.7281   -265.91285    263624.46   -25635.123    1980.5599   -27615.683   -669.65878    590.90191    78.643234    18.376699    27.337475 
   83200    237.51892    -394.2225    263624.46   -25660.106    1922.2167   -27582.322     -1244.34    592.14145    78.643581    18.376216    27.338426 
   83400    235.79263    -201.3121    263624.46   -25686.079     1908.246   -27594.325   -400.97112    593.74521     78.64535    18.375385     27.32829 
   83600    236.12939   -367.27046    263624.46   -25761.789    1910.9714    -27672.76   -1149.1697    594.89616    78.646485    18.375899    27.341341 
   83800    239.89749   -354.76555    263624.46   -25713.921    1941.4662   -27655.387   -1076.9388    594.86608    78.648469    18.376763    27.345219 
   84000    237.58577   -141.32675    263624.46   -25658.209    1922.7577   -27580.967   -122.85865    594.64664    78.648045    18.379563    27.344562 
   84200    243.22857   -57.753065    263624.46    -25616.44    1968.4244   -27584.865    239.87687    595.62696    78.647835    18.378464     27.31742 
   84400     236.1094   -143.93875    263624.46    -25697.55    1910.8096    -27608.36   -131.24239    597.12784      78.6476    18.376569    27.330957 
   84600    244.93097   -228.24434    263624.46   -25666.423    1982.2016   -27648.624   -499.10176    601.09857    78.647083    18.376998     27.32831 
   84800    238.78166   -253.66407    263624.46   -25707.934    1932.4359    -27640.37   -647.64177    601.54398    78.648702    18.379521    27.327055 
   85000    237.68959   -198.38388    263624.46   -25724.467    1923.5979   -27648.065   -394.68541    603.30661    78.649285    18.379405    27.333579 
   85200    239.09745   -314.33391    263624.46   -25750.971    1934.9916   -27685.962   -882.00588    604.60085    78.650372    18.379923    27.331876 
   85400    235.61387    -348.0625    263624.46   -25784.276    1906.7993   -27691.075   -1033.4565    608.77222    78.650429    18.377485    27.322971 
   85600    241.19985   -119.66194    263624.46    -25769.24    1952.0061   -27721.246   -61.073457    608.93005    78.649943    18.375725    27.321471 
   85800    234.56277   -408.67947    263624.46   -25724.551    1898.2929   -27622.844   -1267.7183    611.57506    78.650856    18.374958    27.319365 
   86000    240.98071   -208.95341    263624.46   -25766.476    1950.2326   -27716.708   -397.68655    612.24272    78.653023    18.373724    27.319346 
   86200     241.5777   -342.58844    263624.46   -25738.373     1955.064   -27693.437   -1029.1665    615.11878    78.654202    18.373023    27.313085 
   86400    239.67199   -110.83651    263624.46   -25847.592    1939.6413   -27787.233    42.867177    618.86642    78.656023    18.372801    27.305155 
   86600    245.21734   -378.32705    263624.46   -25759.761    1984.5192    -27744.28   -1203.5413    621.65075    78.655993    18.373514    27.310565 
   86800    239.10185    -220.1006    263624.46   -25829.754    1935.0272   -27764.782    -438.5245    623.51041    78.656383    18.374472    27.299324 
   87000     245.1366    -337.3379    263624.46   -25748.235    1983.8658   -27732.101   -1001.3651    624.19513    78.657005    18.373812    27.310531 
   87200    240.88092   -324.05228    263624.46   -25752.373    1949.4251   -27701.798   -938.05528     625.6351    78.657409    18.373613     27.30489 
   87400    242.65728    -369.6824    263624.46   -25795.737    1963.8009   -27759.538   -1155.3947    626.22333    78.657015    18.375233    27.303336 
   87600    235.45397   -321.80622    263624.46   -25721.702    1905.5052   -27627.207    -881.1461    629.62465    78.655994    18.374754    27.303207 
   87800    237.16985   -340.28547    263624.46   -25760.144    1919.3917   -27679.536   -1014.3652    634.29416    78.655155    18.373419     27.31847 
   88000    240.18607   -270.61035    263624.46   -25727.725    1943.8016   -27671.526   -708.23421    636.26438    78.655182     18.37313    27.324097 
   88200    234.86963   -312.97119    263624.46    -25836.31    1900.7762   -27737.086   -895.68687    638.34524       78.654    18.371657    27.325227 
   88400    236.74158   -319.19777    263624.46   -25718.463    1915.9257   -27634.389   -931.53321    640.95578    78.654215    18.370575    27.331185 
   88600    235.37581   -287.27816    263624.46   -25747.653    1904.8727   -27652.526   -770.32547    642.17471    78.653781    18.369405    27.324348 
   88800    238.43323     -256.513    263624.46   -25749.966    1929.6162   -27679.582   -632.34209    642.15026    78.652936    18.370914    27.329482 
   89000    237.50773   -244.43206    263624.46   -25711.062    1922.1261   -27633.188   -585.06913    643.49097    78.652658    18.372614    27.322994 
   89200    245.17248   -209.41606    263624.46   -25752.964    1984.1562    -27737.12   -472.03514    641.21729    78.651827     18.37472    27.327027 
   89400    242.19928   -194.47399    263624.46   -25735.457    1960.0944   -27695.551   -355.22645    644.71634    78.651941    18.376166     27.33643 
   89600    235.33887   -313.35757    263624.46   -25840.515    1904.5738   -27745.089   -929.82945    645.67615    78.652975    18.377121    27.310705 
   89800    237.56512    -355.4524    263624.46   -25706.332    1922.5906   -27628.922   -1040.1145    646.12299    78.653258    18.376553    27.281018 
   90000    240.79244   -355.13944    263624.46   -25751.446    1948.7089   -27700.155   -1097.4648    649.31453    78.655673    18.375955    27.266207 
   90200    234.91084   -192.27323    263624.46   -25767.468    1901.1098   -27668.578   -352.37909    649.50249     78.65754    18.376031     27.24925 
   90400    236.55814   -186.10126    263624.46   -25733.398    1914.4412    -27647.84   -347.63419    651.66692    78.658499    18.376975    27.229627 
   90600    238.04327   -372.57567    263624.46   -25744.575    1926.4602   -27671.035   -1156.5905     653.7011     78.65963    18.377671    27.231588 
   90800    236.83771   -313.21623    263624.46   -25780.127    1916.7037   -27696.831   -880.52098    650.82398    78.661716    18.378337    27.240446 
   91000    240.68974    -193.9445    263624.46   -25765.115    1947.8778   -27712.993   -369.17404    649.18717      78.6612    18.378614    27.238579 
   91200    235.68212   -332.99137    263624.46    -25867.16    1907.3517   -27774.511   -934.59636    648.83505        78.66    18.379309    27.207619 
   91400    233.94183   -270.13338    263624.46   -25777.141    1893.2677   -27670.408   -687.49794    650.17548    78.660375    18.380509    27.222791 
   91600     238.7792   -317.64472    263624.46   -25694.122     1932.416   -27626.538   -855.43281    651.62421    78.660776    18.381872    27.223627 
   91800    241.91348   -398.72392    263624.46   -25685.183    1957.7814   -27642.965   -1268.4278    653.07911    78.660108    18.382649    27.224954 
   92000    244.28499   -241.67577    263624.46   -25693.626    1976.9738     -27670.6   -567.19159    656.45789     78.66045    18.383689    27.199241 
   92200    236.00888   -355.32976    263624.46   -25717.146    1909.9961   -27627.142   -1053.7257    658.98528     78.66003    18.382784    27.186585 
   92400    243.93451   -154.39428    263624.46   -25715.296    1974.1374   -27689.434   -153.85509    659.45347    78.659534    18.382266    27.182363 
   92600    242.25641   -304.84906    263624.46   -25652.436    1960.5567   -27612.992   -872.76709    661.91279    78.659019    18.382087    27.193303 
   92800    236.51409   -256.54489    263624.46   -25751.518    1914.0847   -27665.602   -653.50939    663.57423    78.659204    18.382543    27.202387 
   93000    240.77282   -228.23175    263624.46   -25754.924    1948.5502   -27703.474   -491.34356    666.30349    78.658813    18.382322    27.204529 
   93200    241.93995   -359.11491    263624.46    -25706.24    1957.9956   -27664.236   -1085.8571     669.8019    78.657256    18.382522    27.206049 
   93400    237.60567   -191.79502    263624.46   -25780.208    1922.9187   -27703.127   -329.47797    671.15443     78.65773     18.38116    27.204401 
   93600    239.87531   -366.35495    263624.46   -25751.584    1941.2867   -27692.871   -1081.4387    673.60328    78.658353     18.38009    27.187908 
   93800    234.64178   -235.82503    263624.46   -25787.985    1898.9323   -27686.917   -536.70166    676.47118    78.658399    18.379023      27.2056 
   94000    236.72533   -309.31118    263624.46   -25801.682    1915.7943   -27717.477   -855.20236    676.77654    78.658774    18.377672    27.200483 
   94200    245.84018   -149.30187    263624.46   -25713.708    1989.5598   -27703.268   -162.24258    679.67887     78.65857    18.375438    27.201997 
   94400    235.81854   -197.51631    263624.46   -25773.994    1908.4557   -27682.449   -387.71476    682.11674     78.65771    18.374421    27.216612 
   94600    239.70799   -271.53113    263624.46   -25772.703    1939.9327   -27712.635   -697.98587    683.58472    78.657804    18.375077    27.220976 
   94800    240.53768   -281.49535    263624.46   -25773.047    1946.6472   -27719.694   -739.68383    684.05723    78.660118    18.373687    27.209558 
   95000    241.24834   -243.89208    263624.46   -25789.577    1952.3985   -27741.975   -606.54042    685.15002    78.661352    18.374198    27.229224 
   95200    240.72587   -241.69877    263624.46   -25769.987    1948.1702   -27718.157   -575.00994    685.38675    78.660678    18.373499    27.229629 
   95400    236.56065   -179.79981    263624.46   -25742.254    1914.4615   -27656.715   -302.39596    685.07264    78.659241    18.372067    27.221175 
   95600    239.01905    -400.6307    263624.46   -25746.253    1934.3571    -27680.61   -1281.8429    686.47666    78.658159     18.37065    27.233526 
   95800    237.79229   -313.09269    263624.46   -25738.555     1924.429   -27662.984   -875.54906     688.9573    78.659415     18.37145    27.240461 
   96000     242.7179   -216.73039    263624.46   -25698.969    1964.2915   -27663.261   -448.36165    689.08074    78.658311    18.372942    27.233659 
   96200    243.22472    -400.3887    263624.46   -25647.233    1968.3932   -27615.626   -1300.4743    689.37564    78.656934    18.374131    27.219032 
   96400    239.98324   -178.86518    263624.46    -25684.89    1942.1602    -27627.05   -308.52858    688.03919    78.656896    18.373198    27.229038 
   96600    233.91072   -258.37085    263624.46   -25750.233    1893.0159   -27643.249   -645.35831     687.5611    78.654963     18.37377    27.242778 
   96800    238.88896   -309.91585    263624.46   -25708.324    1933.3043   -27641.628   -909.75321    689.33831    78.656506    18.371854    27.243095 
   97000    240.39157   -235.19467    263624.46   -25762.544    1945.4648   -27708.009   -556.23164    690.88301    78.656168    18.371736    27.254136 
   97200    237.22115    -214.5861    263624.46   -25730.467    1919.8069   -27650.273   -443.26113    690.92031    78.654645    18.371829     27.26885 
   97400     237.2143   -335.25723    263624.46    -25657.64    1919.7514   -27577.392   -1010.2793    694.30813    78.653862    18.371838    27.255481 
   97600    245.84847   -403.22315    263624.46   -25618.329    1989.6269   -27607.956   -1286.8321     695.7058    78.653769    18.372479    27.255339 
   97800    236.69515   -265.30012    263624.46   -25674.482      1915.55   -27590.032    -696.5632    695.07319    78.653801    18.372479    27.231735 
   98000    233.95014   -276.97579    263624.46   -25704.469    1893.3349   -27597.804    -772.4435    697.10406    78.652017    18.374599    27.217336 
   98200    241.35686    -242.2738    263624.46   -25727.602    1953.2768   -27680.878     -590.481    697.87274     78.65083    18.375176    27.236926 
   98400    235.36626   -433.00653    263624.46   -25681.586    1904.7954   -27586.381   -1458.1818    702.25502    78.650149    18.375691    27.233425 
   98600    237.77366   -327.99738    263624.46    -25704.51    1924.2783   -27628.788   -949.55413    702.13248     78.65063    18.377423     27.23178 
   98800    240.46985    -334.2404    263624.46   -25638.543    1946.0983   -27584.641   -969.15159    704.26247    78.651065    18.379289    27.233289 
   99000    239.56068   -205.62027    263624.46   -25715.525    1938.7405   -27654.266   -427.82018    705.33536    78.650805    18.379035    27.219343 
   99200    236.24426   -336.20031    263624.46   -25716.177     1911.901   -27628.078    -991.3526    709.76434    78.651772    18.377113    27.206161 
   99400    234.93667   -285.73086    263624.46   -25728.518    1901.3188   -27629.837   -774.38432    709.04195    78.653539     18.37434    27.182397 
   99600    239.43779   -296.41384    263624.46   -25689.897    1937.7459   -27627.643   -798.06693    710.70054    78.653131    18.374284    27.163205 
   99800    238.21959   -343.04208    263624.46   -25697.972    1927.8872    -27625.86   -1044.9391    714.98351    78.650826    18.374192    27.188355 
  100000    242.95775   -189.87807    263624.46   -25704.858    1966.2326    -27671.09   -361.12228    714.17428    78.648925    18.375999    27.196114 
  100200    234.98736   -330.16808    263624.46   -25792.382    1901.7291   -27694.111   -959.32119    716.10189     78.64726    18.375228    27.207609 
  100400    238.43354   -277.14416    263624.46   -25723.992    1929.6186    -27653.61   -705.65392    718.68191    78.647441     18.37356    27.197752 
  100600    240.63112   -254.49805    263624.46   -25729.129    1947.4034   -27676.532   -649.57086     720.3975    78.647755    18.373852    27.202493 
  100800    235.17118   -198.40125    263624.46   -25766.345    1903.2167   -27669.561   -356.83536    722.80001     78.64726    18.375221    27.201501 
[...]
 5176000    222.91688   -1043.2256    263624.46   -28530.513    1804.0438   -30334.557   -3983.4033    5566.4315    78.869219     18.31755    27.234069 
 5176200    224.76343   -1000.9839    263624.46    -28471.16    1818.9878   -30290.147    -3805.861    5565.8804    78.869402    18.317592    27.226529 
 5176400    229.48452   -970.67386    263624.46   -28493.036    1857.1951   -30350.231   -3661.3434    5566.3575    78.869629    18.316996     27.22356 
 5176600     230.2649   -1063.2307    263624.46    -28424.29    1863.5107     -30287.8   -4054.9211    5569.4142    78.869243    18.317363    27.230354 
 5176800    225.04248   -920.77733    263624.46   -28457.299    1821.2462   -30278.545   -3406.7726    5564.1792    78.868869    18.317613    27.224196 
 5177000    226.70539   -1121.9316    263624.46   -28463.165    1834.7039   -30297.869   -4367.6792    5569.4238    78.869436    18.316942    27.229464 
 5177200    232.53765   -898.71245    263624.46   -28425.636    1881.9038   -30307.539   -3341.3267     5565.707    78.868136    18.317323    27.228522 
 5177400    226.33029   -981.87184    263624.46   -28387.365    1831.6682   -30219.033    -3735.756     5567.617     78.86675    18.316988    27.226587 
 5177600    233.17924   -1009.1985    263624.46   -28388.059    1887.0961   -30275.156   -3834.8312    5564.5147    78.867497    18.315603    27.231845 
 5177800    227.33031   -1049.0829    263624.46   -28444.426    1839.7613   -30284.187   -4017.9725    5567.8921    78.867195     18.31603    27.229236 
 5178000     225.0055   -1031.0135    263624.46   -28478.816    1820.9469   -30299.763   -3929.9446    5566.3478    78.867173    18.316014    27.228986 
 5178200     228.8329   -1056.1494    263624.46    -28446.78    1851.9216   -30298.702   -4090.5464    5565.0858    78.867488    18.315209     27.22955 
 5178400    230.38997   -988.93592    263624.46   -28426.669    1864.5229   -30291.191   -3744.2566    5566.8292    78.867433    18.315365    27.230075 
 5178600    226.21325   -1071.0559    263624.46   -28451.925    1830.7211   -30282.646   -4157.7337    5566.5559    78.867781    18.315976    27.226388 
 5178800    229.59204   -928.24811    263624.46   -28421.487    1858.0653   -30279.552   -3511.0357    5568.2947     78.86765    18.316555    27.229803 
 5179000    228.76129   -1078.3828    263624.46   -28482.144    1851.3421   -30333.486     -4183.74    5566.2807    78.867228    18.316639    27.230905 
 5179200    224.43542   -1013.9947    263624.46   -28506.212    1816.3333   -30322.545   -3872.0302    5565.8341    78.866979    18.316085    27.227427 
 5179400     229.7063   -1095.9407    263624.46   -28386.899    1858.9899   -30245.889   -4244.5276    5568.8596    78.867713    18.314201    27.235275 
 5179600    226.43811   -978.08741    263624.46   -28481.249    1832.5408    -30313.79   -3724.9858    5564.7481    78.867696    18.314996    27.227239 
 5179800    223.79249   -1104.7729    263624.46   -28516.696    1811.1301   -30327.826   -4287.6273    5567.5328    78.867706    18.313931     27.23117 
 5180000    218.99238   -991.55157    263624.46   -28593.532    1772.2832   -30365.815   -3761.4491    5565.7308     78.86763    18.313624    27.231601 
 5180200    224.53907   -1103.7095    263624.46   -28540.753    1817.1721   -30357.925   -4273.5166    5567.9404    78.867001     18.31365    27.232523 
 5180400    227.79897   -1025.5095    263624.46   -28429.749    1843.5541   -30273.303   -3890.7674    5565.7662     78.86713    18.314214    27.234181 
 5180600    226.89087   -955.19003    263624.46   -28461.391     1836.205   -30297.596   -3596.4525    5566.1992    78.867666    18.313936    27.228891 
 5180800    220.28772   -938.20572    263624.46   -28526.082    1782.7664   -30308.849   -3514.5001    5568.4492    78.866991    18.314976    27.233141 
 5181000    228.36176   -989.39262    263624.46    -28440.53    1848.1087   -30288.639   -3761.5289    5563.5917    78.866098    18.314844    27.228762 
 5181200    224.81128   -1017.8998    263624.46   -28512.387     1819.375   -30331.762   -3883.9683    5566.6352    78.865679    18.315998    27.227902 
 5181400     224.5585   -945.32191    263624.46   -28466.738    1817.3293   -30284.068   -3593.0432    5565.9037    78.865252     18.31649     27.23069 
 5181600     226.8354    -1064.554    263624.46    -28504.37    1835.7561   -30340.126   -4105.2525    5567.1322     78.86475    18.317345    27.228934 
 5181800    229.72071   -1027.3082    263624.46    -28448.66    1859.1066   -30307.767   -3923.4135    5566.4566    78.865628    18.317817    27.236647 
 5182000    227.98143   -992.19452    263624.46   -28446.071    1845.0307   -30291.102   -3777.7127    5563.5034    78.865624     18.31921    27.229339 
 5182200    230.03248   -1061.0643    263624.46   -28418.186    1861.6297   -30279.816   -4089.3195    5567.9134    78.865461    18.319058    27.230925 
 5182400    229.45917   -965.82613    263624.46   -28492.225    1856.9899   -30349.215   -3636.3316    5564.8394    78.865082    18.319933    27.236761 
 5182600    228.82237   -1013.1227    263624.46   -28487.338    1851.8364   -30339.175   -3821.3713    5566.6467    78.865459     18.32021    27.228015 
 5182800    225.59149   -1008.2984    263624.46   -28460.928    1825.6892   -30286.617   -3851.1027    5564.5577    78.866861    18.321894    27.230099 
 5183000    228.19939   -1006.6741    263624.46   -28393.556    1846.7947   -30240.351   -3802.6468    5567.4491    78.866869    18.323215     27.23134 
 5183200    230.15071   -1040.9021    263624.46   -28441.118    1862.5865   -30303.704    -3987.041     5566.722     78.86679    18.324255    27.230748 
 5183400    224.87946   -973.20624    263624.46   -28548.196    1819.9268   -30368.123   -3685.7286    5564.6722    78.865956    18.323888    27.234487 
 5183600    222.91423   -1053.7587    263624.46   -28518.688    1804.0224   -30322.711   -4061.5792    5566.7425    78.865532    18.325825     27.22816 
 5183800    228.55018   -973.72684    263624.46   -28500.956    1849.6336    -30350.59   -3665.7324    5564.9684    78.865965    18.325328    27.232854 
 5184000    227.66303   -1118.2316    263624.46   -28454.764     1842.454   -30297.218   -4299.9958    5567.2864     78.86672    18.326327    27.229696 
 5184200    226.99508   -1043.0611    263624.46   -28457.966    1837.0483   -30295.014   -3982.9903    5566.2609    78.866579    18.326583    27.231832 
 5184400    224.43722   -1010.7027    263624.46   -28463.684    1816.3478   -30280.032   -3829.5376    5563.3661    78.866403    18.327886    27.233334 
 5184600    226.50684   -995.12161    263624.46   -28462.155    1833.0971   -30295.252   -3762.8961    5566.7197    78.866667    18.327732    27.232284 
 5184800    224.09981   -996.65472    263624.46   -28448.941    1813.6172   -30262.558   -3783.7287    5566.2336    78.866617    18.329472    27.231341 
 5185000    224.29198   -945.98044    263624.46   -28440.425    1815.1724   -30255.598   -3569.0357    5565.0834     78.86626    18.330267    27.232629 
 5185200    222.69044   -1011.0383    263624.46   -28473.793    1802.2113   -30276.004   -3856.9393    5566.8195     78.86634      18.3313    27.239757 
 5185400    227.98558   -1004.8688    263624.46   -28458.212    1845.0643   -30303.276   -3837.0174    5564.8394    78.866123    18.332336    27.234161 
 5185600    227.01672   -1057.2106    263624.46   -28482.095    1837.2235   -30319.318    -4074.041    5567.2254    78.866048    18.333247    27.234848 
 5185800    226.08292   -978.45287    263624.46   -28448.135    1829.6663   -30277.801   -3726.1734    5565.6528    78.864729    18.333645    27.235901 
 5186000    230.64129   -1015.2838    263624.46   -28415.375    1866.5567   -30281.932   -3858.9864      5565.17    78.864139    18.334628     27.23535 
 5186200    227.97775   -970.40091    263624.46   -28443.519    1845.0009   -30288.519   -3694.2711     5562.818    78.864317    18.335457    27.236596 
 5186400    224.86322   -984.20506    263624.46   -28462.742    1819.7954   -30282.537   -3741.9083     5567.738    78.865067    18.336185    27.231298 
 5186600    221.97657   -996.46561    263624.46   -28473.488     1796.434   -30269.922   -3781.4735    5565.1571    78.863995    18.337911    27.237773 
 5186800    230.70505   -1008.7527    263624.46   -28386.569    1867.0728   -30253.641   -3841.2538    5565.5216     78.86398    18.339126    27.236081 
 5187000    235.10595   -1016.0526    263624.46   -28392.879    1902.6887   -30295.567   -3890.2723    5564.3004    78.863645    18.339476    27.232214 
 5187200    224.21958   -1030.4056    263624.46   -28534.281    1814.5865   -30348.867   -3930.7831    5566.1772    78.862528    18.339762    27.226553 
 5187400    221.95926   -1036.0222    263624.46    -28531.35    1796.2939   -30327.644   -3970.6147    5565.6787    78.862498     18.34261    27.229785 
 5187600    223.48151   -1094.8252    263624.46   -28441.057    1808.6134    -30249.67   -4248.4334    5567.2916    78.862431    18.342762    27.232979 
 5187800    226.95784    -1026.369    263624.46   -28468.915     1836.747   -30305.662   -3947.9829    5566.3377    78.862518    18.344096    27.234304 
 5188000    232.95396    -904.1883    263624.46   -28389.501    1885.2729   -30274.774   -3402.3884    5564.5656    78.861422    18.344895    27.236181 
 5188200    228.10134   -993.59669    263624.46   -28413.342    1846.0012   -30259.343   -3760.7875    5566.4096    78.860513    18.345609    27.238763 
 5188400    223.46529   -943.78717    263624.46   -28468.981    1808.4821   -30277.463   -3551.8729    5563.5398    78.860381    18.347383    27.238349 
 5188600    225.32542   -1052.0852    263624.46   -28510.052    1823.5359   -30333.588   -4060.3544    5567.0214    78.859633    18.347934    27.237962 
 5188800    223.43454   -1026.9031    263624.46   -28480.966    1808.2332   -30289.199   -3904.8475    5565.5814    78.859981     18.34809    27.235008 
 5189000    221.98172   -921.73907    263624.46   -28442.423    1796.4757   -30238.899    -3448.208    5563.1987    78.860136     18.34852    27.228161 
 5189200    225.18051   -1091.5432    263624.46   -28541.523    1822.3632   -30363.887   -4203.9047    5565.6206    78.861183    18.347322    27.232378 
 5189400    226.32254   -900.47294    263624.46    -28479.41    1831.6055   -30311.016   -3353.7689    5563.1672    78.860789    18.346714     27.22793 
 5189600    223.74752   -1041.4692    263624.46   -28412.916    1810.7662   -30223.682   -3991.7752    5568.6965    78.860911    18.346056    27.229628 
 5189800    224.66779   -1008.7054    263624.46   -28465.949    1818.2138   -30284.162   -3830.4458    5564.9709    78.861016    18.345789    27.235469 
 5190000    225.54942   -1037.2758    263624.46   -28463.557    1825.3487   -30288.906     -3982.52    5565.0717    78.861749     18.34514    27.235435 
 5190200    225.70622   -984.60936    263624.46   -28484.252    1826.6177    -30310.87   -3732.0601    5565.5062    78.861208     18.34613    27.234256 
 5190400    234.09607   -953.70778    263624.46   -28320.998    1894.5159   -30215.514   -3600.1471     5564.087    78.860873    18.345963    27.231224 
 5190600    230.94358   -1031.5186    263624.46   -28448.288    1869.0031   -30317.292   -3924.6798    5564.7135    78.860107    18.345308    27.232519 
 5190800    229.78094   -966.94627    263624.46    -28431.82     1859.594   -30291.414   -3615.0474    5565.2906    78.859288    18.344971    27.229365 
 5191000    222.08448   -1015.8016    263624.46   -28458.167    1797.3073   -30255.475   -3878.9046    5566.9331    78.859459    18.343749    27.232423 
 5191200    225.84837   -897.65203    263624.46   -28437.333    1827.7681   -30265.101   -3324.9941    5565.2616    78.858759    18.343871    27.228744 
 5191400    229.35412   -932.03584    263624.46   -28448.035    1856.1398   -30304.175   -3522.9642    5564.0691    78.859678    18.344098    27.232606 
 5191600    222.21946   -972.03175    263624.46   -28467.853    1798.3997   -30266.253   -3680.0804    5565.8455    78.860066    18.344364    27.233856 
 5191800     231.0183   -961.97188    263624.46   -28368.852    1869.6078    -30238.46   -3632.9075    5565.8121    78.860279    18.343122    27.234635 
 5192000    229.57412   -978.96207    263624.46   -28372.286    1857.9202   -30230.206   -3705.5581    5565.6179    78.860342    18.342399    27.232292 
 5192200    228.01321   -965.89534    263624.46    -28432.51    1845.2879   -30277.798   -3649.5713    5563.4165    78.861471     18.34191    27.232272 
 5192400    229.34261   -966.39736    263624.46   -28413.717    1856.0466   -30269.763   -3638.1682    5566.3699    78.861905    18.341137    27.242287 
 5192600    219.86855   -1014.0941    263624.46    -28469.57     1779.374   -30248.944   -3814.8801    5566.5776     78.86237    18.341102     27.23817 
 5192800    230.00084   -1006.9806    263624.46    -28416.28    1861.3736   -30277.654   -3799.6896    5564.2306     78.86383    18.340042    27.237906 
 5193000    223.88419   -926.24998    263624.46   -28462.494    1811.8722   -30274.366   -3451.8899    5564.9824    78.863143    18.339769    27.239022 
 5193200    228.22477   -1004.1811    263624.46   -28406.299    1847.0001   -30253.299   -3782.0538     5566.846    78.862737    18.340846    27.235537 
 5193400      220.675    -931.3217    263624.46   -28471.945    1785.9005   -30257.845    -3481.851    5563.4952    78.863394    18.341381    27.237921 
 5193600    226.18583   -920.28769    263624.46   -28376.582    1830.4991   -30207.081    -3430.953    5563.1448     78.86445    18.342215    27.236122 
 5193800     227.7947   -1003.9772    263624.46   -28471.978    1843.5196   -30315.498   -3808.3112    5567.4802    78.866036     18.34259    27.237591 
 5194000    220.42819   -974.12479    263624.46   -28549.116    1783.9031   -30333.019   -3696.0391    5563.3095    78.866169    18.344289    27.237428 
 5194200    219.88433   -944.27927    263624.46    -28488.81    1779.5018   -30268.311   -3560.0204    5564.4424    78.866369     18.34391    27.242926 
 5194400    228.90973   -1160.6853    263624.46   -28416.993    1852.5434   -30269.536   -4567.5863    5566.3547    78.867982    18.344506    27.244294 
 5194600    230.53767   -1077.9812    263624.46   -28398.389    1865.7182   -30264.107   -4192.1341    5564.1293    78.869067    18.345185    27.243493 
 5194800    222.33427   -964.29604    263624.46    -28418.79    1799.3289   -30218.119   -3700.4074    5563.6821    78.869841    18.344366    27.241032 
 5195000    230.01095    -1058.115    263624.46   -28439.382    1861.4554   -30300.837   -4078.1052    5565.8458    78.870324     18.34365    27.239576 
 5195200    227.95971   -1031.7911    263624.46   -28422.032     1844.855   -30266.887   -3946.6619    5562.5304    78.871164     18.34274    27.242241 
 5195400    229.15946   -912.57835    263624.46   -28404.592    1854.5644   -30259.156   -3383.5439    5564.7881    78.870664    18.341124    27.239163 
 5195600    222.86868   -992.60318    263624.46   -28499.254    1803.6538   -30302.908   -3752.3496    5564.0319    78.870888    18.342183    27.238838 
 5195800    230.72425   -987.19885    263624.46   -28366.931    1867.2281    -30234.16   -3770.0857    5563.9212    78.871704    18.342182    27.245079 
 5196000    230.01128   -1027.1115    263624.46   -28447.997    1861.4581   -30309.455   -3949.0162    5566.1742    78.872116    18.341383    27.244151 
 5196200    227.69726   -1011.8592    263624.46   -28447.126     1842.731   -30289.857   -3859.4349    5564.1204    78.872417    18.342035    27.243778 
 5196400    226.69933   -1076.4943    263624.46   -28424.566    1834.6548   -30259.221   -4157.5032    5568.0546    78.872414     18.34268    27.241905 
 5196600    227.37788   -939.79292    263624.46   -28473.139    1840.1463   -30313.285   -3549.8375    5563.2439     78.87165    18.343509    27.243779 
 5196800    229.15432   -1060.1823    263624.46    -28433.57    1854.5229   -30288.093    -4088.768    5566.5428    78.871709    18.343053    27.239878 
 5197000    235.51373    -984.9269    263624.46   -28397.264    1905.9889   -30303.253    -3734.853    5564.8059     78.87277     18.34315    27.240141 
 5197200    224.33413    -928.2322    263624.46   -28438.402    1815.5136   -30253.916   -3491.1527    5563.7815    78.872001    18.342901    27.237056 
 5197400    223.94321   -1073.8805    263624.46   -28407.937    1812.3499   -30220.287   -4126.2107    5567.9235    78.872244    18.343322    27.233014 
 5197600    218.13319    -1043.435    263624.46   -28466.506      1765.33   -30231.836   -4020.0036    5563.9525    78.872023    18.341804    27.237542 
 5197800    220.69594   -1051.4161    263624.46    -28536.11      1786.07    -30322.18   -4030.0614    5566.6289    78.870771    18.342833    27.231757 
 5198000    228.98171   -983.79708    263624.46   -28411.357     1853.126   -30264.483   -3728.2441    5564.4056    78.870173    18.342709    27.241766 
 5198200    227.15907   -952.10144    263624.46   -28414.446    1838.3755   -30252.822   -3609.4901    5562.8666    78.871217    18.343319    27.233332 
 5198400    221.56374   -1059.1359    263624.46   -28496.101     1793.093   -30289.194   -4096.6973    5566.6801    78.869956    18.342964    27.233164 
 5198600    223.75445   -1046.6826    263624.46   -28531.893    1810.8222   -30342.715   -4016.7771    5564.3811     78.87027    18.343249    27.234692 
 5198800    229.56748   -1034.2283    263624.46   -28464.523    1857.8665   -30322.389   -3976.0841    5564.4859    78.870739    18.342705    27.237601 
 5199000    230.72235    -990.3198    263624.46   -28392.373    1867.2127   -30259.585   -3724.6021     5565.753    78.870981    18.342142    27.234356 
 5199200    228.44958   -911.68637    263624.46   -28439.641    1848.8195   -30288.461   -3386.7823    5564.6533    78.870115    18.343408    27.233624 
 5199400    224.36373   -1088.5548    263624.46   -28465.826     1815.753   -30281.579   -4180.9933    5567.7805    78.869726    18.344299    27.238271 
 5199600    225.54012   -1054.3058    263624.46   -28440.848    1825.2735   -30266.122   -4049.7729    5560.7546    78.869172    18.344004    27.231551 
 5199800    228.05936   -1067.1415    263624.46     -28440.9    1845.6615   -30286.561     -4067.02    5566.1442    78.868749    18.343202    27.233468 
 5200000    228.39677   -969.51681    263624.46   -28450.219     1848.392   -30298.611   -3647.8684    5564.8007    78.868765    18.344486    27.229524 
Loop time of 15623.3 on 80 procs for 5200000 steps with 9436 atoms

Performance: 287.570 ns/day, 0.083 hours/ns, 332.836 timesteps/s
98.0% CPU use with 80 MPI tasks x no OpenMP threads

MPI task timing breakdown:
Section |  min time  |  avg time  |  max time  |%varavg| %total
---------------------------------------------------------------
Pair    | 0.26853    | 3681       | 13399      |7533.8 | 23.56
Neigh   | 0.46907    | 231.12     | 843.11     |1939.7 |  1.48
Comm    | 10.985     | 4969.7     | 13867      |6572.4 | 31.81
Output  | 171.74     | 171.85     | 173.89     |   1.8 |  1.10
Modify  | 326.26     | 6504.5     | 15380      |7863.6 | 41.63
Other   |            | 65.14      |            |       |  0.42

Nlocal:        117.950 ave         365 max           0 min
Histogram: 34 4 19 3 0 0 0 0 2 18
Nghost:        750.300 ave        1203 max           0 min
Histogram: 10 2 2 2 4 0 30 5 7 18
Neighs:         0.00000 ave           0 max           0 min
Histogram: 80 0 0 0 0 0 0 0 0 0
FullNghs:      11465.4 ave       44202 max           0 min
Histogram: 50 10 0 0 0 0 0 1 7 12

Total # of neighbors = 917232
Ave neighs/atom = 97.205596
Neighbor list builds = 553074
Dangerous builds = 0
write_data 		${DIR}/data.${NAME}_run
write_data 		run_12/data.${NAME}_run
write_data 		run_12/data.ibeam_cooling_12_run
System init for write_data ...
Total wall time: 4:20:57
