LAMMPS data file via write_data, version 7 Aug 2019, timestep = 200000

4098 atoms
1 atom types

2.1371035057256549e-01 5.1206289649427639e+01 xlo xhi
2.1371035057256549e-01 5.1206289649427639e+01 ylo yhi
2.1371035057256549e-01 5.1206289649427639e+01 zlo zhi

Masses

1 18.15

Atoms # atomic

1945 1 2.5377756434160323e+00 1.9962869583154861e+00 5.1174229533783219e+01 0 0 -1
97 1 1.8466053032705305e+00 4.3106878007982328e+00 1.5230930158788041e+00 0 0 0
1698 1 2.5996774202134603e+00 6.4740717393604097e+00 5.1036408765771611e+01 0 0 0
2216 1 1.5347574057091762e+00 2.9167479578743816e+01 3.6337635463783883e+01 1 0 -1
2773 1 1.3261783281025186e+00 3.0212407289788988e+01 3.1459467271906987e+00 1 0 1
3211 1 4.6435959581393699e-01 4.3786373726617640e+01 4.2953994638116626e+01 1 0 0
2944 1 9.3529197486555804e-01 3.9955683054741115e+01 5.0494189471885647e+01 1 0 -1
3722 1 1.1475225915062199e+00 1.8664590361804361e+01 9.7717083727319949e+00 1 -1 0
618 1 3.7335722980867270e+00 2.0641353199368737e+01 5.0615618432914928e+01 0 0 0
1379 1 2.8593987075589218e+00 2.2908191829984567e+01 1.3733955385040189e+00 0 0 0
876 1 3.3124400161335981e+00 2.6839085513734759e+01 2.8272952115090364e+00 0 0 0
480 1 3.9147849789859808e+00 2.9785555942258299e+01 2.9037841790076362e+00 0 0 0
1318 1 5.4267926268252586e-01 2.9023399133567896e+01 2.7590100486134936e+01 0 0 -1
68 1 7.6926204693936640e-01 1.7100092555192365e+01 2.5464446726444304e+01 0 1 -1
492 1 6.0439125569650898e-01 1.6235547000224607e+01 4.5502171488774678e+01 0 0 -1
1738 1 7.5812088818520429e-01 1.2180250390721376e+01 1.0744071703864723e+01 0 0 0
1047 1 1.3881880173508205e+00 4.0029628396908493e+01 2.2633519138478082e+00 0 0 0
1163 1 1.9765684731637432e+00 4.2763805707037307e+01 3.4507790792820554e+00 0 0 1
3545 1 1.3134132539937613e+00 4.6973193095619564e+01 2.7209696597127980e+01 1 0 0
2585 1 1.0399858082615614e+00 4.2889377314789101e+01 2.8530741376100904e-01 1 0 0
598 1 2.2543838485914303e+00 4.5210907969857161e+01 1.2073240847929620e+00 0 -1 1
1134 1 2.1657204944974615e+00 4.9736436052187912e+01 1.1521321202403860e+00 0 -1 1
556 1 8.7888764108567918e-01 3.4528762470871342e+01 2.7976474701091941e+01 0 0 0
1643 1 3.5854160439696275e-01 4.3646253245706434e-01 4.6380814093993541e+00 0 0 0
1272 1 3.2006617271949884e+00 1.8005713220294550e+00 4.4941805779578061e+00 0 1 0
1535 1 1.8965214938324768e+00 5.0617055099984839e+01 1.8770115743962361e+01 0 0 0
1044 1 3.0089289482689847e+00 4.4291982104098144e+00 3.9870517305432189e+00 0 1 1
34 1 1.7166769729745694e+00 6.1075785272157930e+00 5.4741628720605675e+00 0 0 0
2968 1 1.5011162709526285e+00 8.8342859410074048e+00 4.0776569708075820e+00 1 1 0
3728 1 2.8881586723863886e+00 1.1605066072121032e+01 4.0611297251557783e+00 1 0 0
3934 1 2.9328816176063826e+00 1.1882555930024207e+01 7.0758790585215738e+00 1 0 1
1147 1 1.6838447887556749e+00 1.4189025216678342e+01 3.7241388274000435e+00 0 0 1
3371 1 2.6405151762198149e+00 1.6025690529919984e+01 5.4501629018026261e+00 1 0 0
1323 1 2.2782759056434720e+00 1.8221027005754209e+01 3.9997133002566154e+00 0 1 0
3978 1 9.7929684347154955e-01 2.9982777163731143e+01 4.2526449415201469e+01 1 0 -1
122 1 3.3860823280901982e+00 2.1240414041591499e+01 3.6856100813110904e+00 1 0 1
4056 1 1.6281153512604205e+00 2.8001157617899914e+01 7.3118387872319257e+00 1 0 1
1037 1 2.7182841061609762e+00 2.4350642108655261e+01 5.4279953214611920e+00 0 0 0
648 1 1.6468870721166908e+00 2.4459366057594288e+01 1.2318135700904168e+01 0 0 0
316 1 1.7411905638146161e+00 1.1087392211651014e+01 3.2710102067284382e+01 0 0 0
562 1 3.9476108649354087e+00 3.3423041715438444e+01 4.5974753128607029e+00 0 0 1
907 1 1.6445418065776705e+00 4.3835355256008171e+01 7.9564048796261568e+00 0 0 1
2038 1 2.2956436143133034e+00 3.7937873580143233e+01 3.1909771433704845e+00 0 0 1
1637 1 1.5604046084017855e+00 4.1488800103349149e+01 6.1554408808477170e+00 0 0 1
3344 1 1.0644265516211027e+00 4.5711284845652656e+01 6.3614185219418831e+00 1 -1 0
3595 1 6.8964838611696722e-01 1.1451912690551783e+01 2.3991501774492555e+01 1 1 0
2023 1 1.9495123701600199e+00 4.8711878756370695e+01 3.6467794467077836e+00 0 -1 0
1796 1 3.6337414322673354e+00 4.7301797155300832e+01 5.5623397921017128e+00 1 0 1
883 1 4.1429895999126332e-01 1.7282596443284639e+01 1.4807344185429306e+01 0 0 0
3471 1 2.6505192741311183e+00 5.0402838529698116e+01 7.8925334971434848e+00 1 0 0
2574 1 3.6155190985415366e+00 1.7955145261025054e+00 7.1191833285452626e+00 1 0 0
866 1 7.3883203738127579e-01 4.8741769205972659e+01 4.9848186410238483e+01 0 -1 -1
654 1 3.0888745423552724e+00 4.0560203081185051e+00 8.7369843907874785e+00 0 0 1
623 1 1.0130374559684028e+00 9.8994069738087997e+00 3.8950210862033629e+01 0 0 0
502 1 2.5877609961017167e-01 2.6353763876102239e+01 1.8852091776797412e+01 0 0 0
2419 1 2.1878824526624108e+00 9.4166161772269081e+00 8.0508279403917804e+00 1 0 0
3271 1 1.1995789147892462e+00 2.2844454592371104e+01 2.4867264124103119e+01 1 0 -1
3841 1 1.8828575889737622e+00 7.0009209903215304e+00 1.6205883710619418e+01 1 0 0
2428 1 6.9573482414181731e-01 2.2790833319896553e+01 4.8817414793788643e+01 0 0 0
1317 1 7.4257662768034449e-01 2.7571586753547336e+01 2.9950304027741037e+01 0 -1 0
2745 1 1.0547131572000230e+00 8.8130757211334938e+00 1.1879712583023934e+00 1 0 1
2121 1 1.2104499434775016e+00 2.5148372495737934e+01 2.8946891921128945e+01 1 0 0
1160 1 1.0848437928106609e+00 1.3451033098083130e+01 5.0722516139839655e+01 0 0 0
4027 1 2.6802325883466915e+00 2.3151685401977822e+01 7.8479025026042359e+00 1 0 1
3540 1 2.6765557124529882e+00 2.6318523893386594e+01 8.8797506658816996e+00 1 0 1
2397 1 1.5508751478785361e+00 6.0118848796458257e+00 8.0491666328563998e+00 1 0 1
1207 1 3.6755521765653110e+00 2.9761376798076849e+01 7.3955838735423516e+00 0 0 0
1409 1 2.8804540863787906e+00 3.2491970996155359e+01 8.0432209080823860e+00 0 0 0
3626 1 1.1169937452068892e+00 1.9084577188820708e+00 1.4097554508492301e+01 1 0 1
917 1 2.2234554240297437e+00 3.7021811821753474e+01 6.0998268481600846e+00 0 -1 0
3646 1 1.9764012643613249e+00 3.9157204872551475e+01 7.8517245410315937e+00 1 -1 1
3454 1 3.9499357123262979e+00 3.9735661397792867e+01 9.6975945684984470e+00 1 -1 0
1260 1 4.4823557744686129e+00 4.3781360602337557e+01 8.0644767535096822e+00 0 0 0
2569 1 1.0386582878726069e+00 2.9646934040035259e+01 4.5893107613921686e+01 1 0 -1
2822 1 1.8259164856912538e+00 4.9880728983141196e+01 1.0723368670134448e+01 1 -1 0
1288 1 3.9060387907442737e+00 1.0593995675115497e+00 1.1262062050315340e+01 0 1 0
62 1 2.1927725173716732e+00 3.2517576730989144e+00 1.1422589950039649e+01 0 1 0
490 1 3.5505981492519014e+00 5.3005602144524984e+00 1.2735454234781628e+01 0 0 0
785 1 5.1194976053656904e-01 2.8221742909994301e+01 2.3035073859750185e+01 0 0 0
571 1 4.1557672869026732e+00 1.5471088529324904e+01 1.2948424793271435e+01 0 0 0
3788 1 1.1520180223925061e+00 4.2444066830993194e+01 4.7135424608828657e+01 1 0 -1
755 1 2.1040316391966130e+00 1.9926666228553589e+01 1.1766091294882763e+01 0 0 0
3792 1 4.5803971882090000e+00 2.0756040998122366e+01 1.1142651312665274e+01 1 0 0
1213 1 1.6920592774668728e+00 7.5107736225556945e+00 3.8028506680908166e+01 0 0 0
3808 1 3.5558390673410543e+00 2.3374792379119548e+01 1.0620586041995876e+01 1 0 0
3487 1 5.9872336371954871e-01 2.1981199422384869e+01 1.1574218892631981e+01 1 0 0
868 1 6.9261656403074356e-01 1.8694611612087908e+01 2.1730572808217037e+01 0 0 0
487 1 2.9115319925291656e+00 3.4479900330950684e+01 1.1219852331998590e+01 0 0 0
1132 1 3.0249223036925050e+00 3.4655291950209289e+01 1.4054999902724438e+01 0 0 1
2380 1 3.8058700564735655e+00 3.8788104868807821e+01 1.2615561668744450e+01 1 0 0
1270 1 3.2237371878080019e+00 4.6873161651216265e+01 5.0227480143615921e+01 0 -1 -1
1289 1 1.0813560598930312e+00 4.0652703589726286e+01 1.2835270640983778e+01 1 0 0
2556 1 7.2123539434351769e-01 4.4154274339123972e+01 1.0565948984426269e+01 1 -1 0
2783 1 2.4704445719483297e+00 4.1787713334748261e+01 1.0793252538761553e+01 1 0 0
230 1 1.0582375956653323e+00 3.0145076014362797e+01 2.5050939401600292e+01 0 0 0
395 1 1.6406355362428902e+00 4.5895298537288241e+01 1.1965712966103048e+01 0 0 1
4091 1 1.3637392059694935e+00 3.8047857660638115e+01 4.1748885859338998e+01 0 0 0
117 1 3.5604584641272039e+00 4.7636891587605021e+01 1.0479882199055561e+01 0 0 0
1137 1 4.0724947105627347e+00 2.7029058990289116e+01 1.3177595930739628e+01 0 0 1
776 1 5.0886715842523622e-01 3.0384079258508066e+01 1.1546067822304503e+01 0 0 1
2021 1 6.8008378287625426e-01 2.6783009413884379e+01 1.0926464162754288e+01 1 0 1
382 1 2.9334390516886404e+00 9.3991157397380274e+00 1.2999559784593627e+01 0 0 1
2805 1 1.5206772455430266e+00 6.4218562285612331e+00 1.3539795612700996e+01 1 0 1
818 1 2.4558790970310640e+00 1.3601330157397411e+01 1.4767016394525079e+01 0 0 0
1276 1 3.2667141815838483e+00 1.0547373400918941e+01 1.5710120364981268e+01 0 1 0
2699 1 2.8899662224163030e+00 1.1993913163388196e+01 1.2169413781793464e+01 1 1 0
1205 1 1.1816614043628322e+00 1.9374991769259513e+01 2.9134817244545811e+01 0 0 0
236 1 2.7177493836229303e+00 1.7780350278101292e+01 1.3575358275806074e+01 0 0 0
912 1 3.8805449253533926e+00 1.9269647394429168e+01 1.5813567293925072e+01 0 0 0
2911 1 3.8292188767786746e+00 2.2097057963469656e+01 1.5894502013008445e+01 1 0 1
500 1 2.6605259622893049e+00 3.1847655870571568e+01 1.0768519135334820e+01 0 0 0
272 1 1.2358323687354367e+00 2.0691526802390293e+01 8.0999700953126599e+00 0 0 1
127 1 1.6203112018273427e+00 2.8285796950297627e+01 1.3745320741093664e+01 0 0 0
1931 1 1.8252288628793356e+00 3.2274760308608478e+01 1.4057572810318376e+01 0 0 0
3499 1 2.9002335540383637e+00 3.0193604913860749e+01 1.5471564228670019e+01 1 0 0
3576 1 1.9372026521141463e+00 3.7238872877882173e+01 1.4107703958340842e+01 1 0 0
473 1 9.3777106353729378e-01 1.3153202937732322e+01 8.0654040081298497e+00 0 0 0
3412 1 1.6411046633093125e+00 3.8433460245224026e+01 1.6516410861731341e+01 1 0 0
3057 1 4.0212145677554441e+00 3.4882461745398928e+01 3.8334935467368396e+01 1 0 -1
2048 1 3.5412926759431924e+00 3.7798783395416458e-01 3.8288600538827737e+01 0 1 0
219 1 2.2608732245755365e+00 4.4213963926919504e+01 1.6572504187616403e+01 0 0 0
1307 1 9.5710648176445134e-01 4.5830689902855113e+01 1.4555681606230227e+01 0 0 0
2502 1 1.1831910425706698e+00 4.4496304892506927e+01 2.5693288018850641e+01 1 0 0
758 1 1.8172761829782798e+00 4.6473946616156567e+00 3.4495228630950763e+01 0 0 0
1567 1 3.9905717964023344e+00 4.0019303394619968e+01 5.1205784769063676e+01 1 -1 -1
3706 1 2.5661231783593479e+00 4.2676115339245477e+00 1.8835227066015623e+01 1 0 0
804 1 2.6225203321259749e-01 5.0304110387876747e+01 4.4319012370781635e+01 0 0 0
2114 1 2.4928160650544280e+00 1.6117417428460470e+01 1.0305780962090482e+01 0 0 1
3175 1 2.6343728208394275e+00 1.3132833292099063e+01 1.8092519299460882e+01 1 0 0
1130 1 1.5931925467117858e+00 2.4109711052551464e+01 1.5060106111047316e+01 0 1 0
1798 1 5.1318288089789088e-01 4.4828547036231132e+00 1.6720055508411349e+01 0 0 1
4003 1 3.8557842187301744e-01 2.0055585752423529e+01 1.7324363790965243e+01 1 0 0
83 1 6.8005611897429463e-01 1.9826711046964636e+01 5.5462240443240782e+00 1 0 1
2979 1 5.6500745199100155e-01 3.5824371491722985e+01 1.0203227408074961e+01 1 0 0
3845 1 9.8740813511488768e-01 2.3825768585987955e+01 1.9926210493057887e+01 1 0 0
3221 1 5.8218358458669051e-01 1.5974955077687722e+01 3.1708328543111929e+01 1 0 0
734 1 1.8622418937261791e+00 2.6568557454667236e+01 1.6371360683788634e+01 0 0 1
2227 1 1.3289020602839372e+00 5.7502488535020344e+00 4.2484410990799105e+01 0 0 -1
588 1 3.6919928650599316e+00 2.8777130161175467e+01 1.9356713104206456e+01 0 0 0
1236 1 4.3509209272375511e+00 4.2550376743998896e+01 1.6581639765874769e+01 0 0 0
1803 1 2.4042847987625722e+00 3.0875577809420236e+01 1.8149659394213600e+01 0 0 1
2661 1 3.1304763378656526e+00 3.3605027012269389e+01 1.8745335957014415e+01 0 0 0
2714 1 1.8783371731778451e+00 3.4459458591176372e+01 1.6714007556911845e+01 1 0 1
3282 1 3.0337003251134567e+00 4.2606025652719467e+01 4.8949823531053752e+01 1 -1 0
1281 1 1.2212627911766578e+00 4.1343208615553735e+01 1.9089449238160213e+01 0 0 0
3860 1 3.9603420941430691e+00 4.1704928206413229e+01 1.9259553442329587e+01 1 0 0
123 1 2.2726005230604853e+00 4.5715116429274374e+01 1.8935234809770840e+01 0 0 0
1415 1 4.6933828266432389e+00 4.9173435155843057e+00 3.8253259105445920e+01 0 0 0
852 1 4.0775119635671722e+00 6.2510342157669436e+00 3.5648235916980227e+01 0 0 0
3436 1 1.8727391156890332e+00 1.5859358194528226e+00 2.3087641953829241e+01 1 0 0
1404 1 3.4796610169391382e+00 3.8599145572653937e-01 3.3791848646563764e+01 0 1 0
3908 1 1.0874555430815327e+00 1.3976058187381071e+01 3.8214346255497745e+01 0 0 0
3383 1 3.3600640085061295e+00 8.6320534680124101e+00 1.9952562952921920e+01 1 0 0
1714 1 8.2102776463587890e-01 2.6033939710828250e+01 2.8306327942435301e+00 0 0 0
3967 1 6.1477449017935570e-01 9.4520890459907694e+00 1.9991390769479558e+01 0 0 0
3893 1 2.0122666039927988e+00 1.1474350465059722e+01 2.1735637902419779e+01 1 1 0
1926 1 6.9479752816485707e-01 3.3523718685871344e+01 5.0384077814687288e+01 0 0 -1
2524 1 2.2131063506006017e+00 1.4258227736529301e+01 2.1104458897626095e+01 1 0 0
3975 1 9.8946376870176045e-01 4.0343598945273811e+01 2.8446505521862942e+01 1 0 0
597 1 8.0390565722643381e-01 4.7377888743502666e+01 8.7122619639420833e+00 0 -1 0
411 1 1.3622193330358829e+00 2.1016929909477316e+01 1.9775777099015553e+01 0 0 0
2804 1 4.3677754190133742e+00 2.8532048455949045e+01 4.4303353242206711e+01 0 0 0
2209 1 2.6637103706644116e+00 2.3467542598205114e+01 2.2273609815257434e+01 0 0 -1
846 1 3.9329894363714093e+00 2.5969814959545666e+01 2.1869742140786268e+01 0 0 0
2515 1 6.0874683945877295e-01 2.7465946999635641e+01 3.4269983498685903e+01 1 0 0
2045 1 1.6669498898236370e+00 2.7579688343787865e+01 2.0867496731387650e+01 0 1 0
1256 1 2.2887413032931270e+00 3.4387601933244753e+01 2.1228787955986146e+01 1 0 0
1097 1 3.7966979239869429e+00 3.6589107167918684e+01 2.1528075518639252e+01 0 0 0
266 1 4.0474196374018874e+00 4.5847308603727797e+01 4.2326869906128479e+01 0 0 -1
3807 1 1.5432530043449453e+00 3.7967559329807983e+01 2.1977198900067215e+01 1 0 0
392 1 1.3247794069582439e+00 4.2733023620052109e+01 2.1958930008063806e+01 0 0 0
853 1 3.8248239431586084e+00 4.4379444848703102e+01 2.0488307162413641e+01 0 0 0
3477 1 4.8367989277506274e+00 5.1029428523584784e+01 1.8194366605371275e+01 1 0 0
3050 1 2.8792606472506987e+00 4.8764858419722330e+01 2.2579924462314871e+01 1 0 0
1644 1 3.9463310422352857e+00 8.0818081535840616e+00 6.2445028249782455e+00 0 0 0
1299 1 2.3152856069345074e+00 4.1316746412465761e+00 2.4576368201561827e+01 0 0 0
3013 1 1.8985495729749535e+00 6.5098748882102528e+00 2.3133872653890734e+01 1 0 0
695 1 3.1106521319630884e+00 8.2284824056444545e+00 2.4542392387694008e+01 0 0 0
3043 1 4.4439973530274566e+00 1.9259994502278499e+01 2.1735733336076883e+00 1 0 0
563 1 1.2474785719614834e+00 3.2458962633243658e+01 4.4589271265467563e+00 0 0 0
3320 1 2.1416825537363384e+00 1.4945435736951474e+01 2.3910155099136688e+01 1 0 0
2951 1 4.8194799971378925e+00 1.0033112553382544e+01 4.7116708369450677e+00 0 0 0
889 1 2.5727848042471142e+00 1.8372707241350572e+01 2.3744230051095425e+01 0 0 0
493 1 2.0118398698077842e+00 4.7944561622800848e+00 4.8913032725658326e+01 0 0 -1
1284 1 1.3003436847652525e+00 4.6686511711023059e+01 4.5439807633260898e+01 0 0 -1
579 1 4.4038564106213567e+00 1.4610339785914068e+01 3.0834835014923190e+01 0 0 0
1780 1 4.6474445550474872e+00 2.7751557066998409e+01 3.9316383674151936e+01 0 0 0
2589 1 7.2742333770923651e-01 2.8129861255930688e+01 4.7629525054524882e+00 1 0 0
881 1 1.5093228720133884e+00 3.3559922761103309e+01 2.3550553509401428e+01 0 0 0
2284 1 3.5089217863709798e+00 3.1622415901944414e+01 2.4650816864207744e+01 0 0 0
3711 1 4.1964702318855114e+00 3.6223272100872450e+01 2.4299052352668113e+01 1 0 0
400 1 1.9691067545135403e+00 3.5435596634509551e+01 2.5562774354716783e+01 0 0 0
3889 1 2.5905056622349680e+00 4.0439140792059447e+01 2.2245723750872969e+01 1 0 0
1827 1 2.5072874560683429e+00 4.0092753739307781e+01 2.4947543300136452e+01 0 -1 0
2523 1 3.0660189724337994e+00 4.8961747648081868e+01 4.1212487969435529e+01 1 -1 -1
808 1 1.7365521718162908e+00 4.5276340184233888e+01 2.3135655414255158e+01 0 -1 0
1043 1 4.2190872811848958e+00 4.6912348939258877e+01 2.3933618290570227e+01 0 0 0
3419 1 3.7714757890766650e+00 4.7924730751816057e+01 2.6548533624773548e+01 1 -1 0
159 1 2.0451115501629125e+00 5.0037195997410279e+01 2.4829481413827459e+01 0 -1 0
92 1 3.9534001590593015e+00 4.1311485673228141e+00 2.6582969500145460e+01 0 1 0
3570 1 2.7904949517434972e+00 1.8478122467556999e+00 2.8470570174641434e+01 1 0 0
968 1 3.4598412479556289e+00 7.0020933376653369e+00 2.6987583465151989e+01 0 0 0
181 1 1.7302788065605235e+00 1.0195901204885839e+01 2.5852331111984970e+01 0 0 0
1881 1 3.0532766780423004e+00 1.2019821911493207e+01 2.7542960027960721e+01 1 0 0
3597 1 4.0192626451102509e+00 1.3470404943215559e+01 2.5246594660622897e+01 1 0 0
1142 1 3.9606978276427562e+00 3.0909274268625456e+01 2.7300153366432475e+01 0 0 0
780 1 2.7426320781693101e+00 1.7323681267224075e+01 2.7522310590794280e+01 0 0 0
2207 1 3.3018521668548857e+00 2.0747583153268110e+01 2.4842062676441806e+01 0 0 0
1246 1 4.2035318951801703e-01 4.5591950610304110e+01 3.8995188930853885e+01 0 -1 0
668 1 1.0703389967288528e+00 2.7099997219248287e+01 4.6832272348577362e+01 0 0 0
895 1 4.8020863334324124e+00 4.2979122639174347e+00 4.4292587190210170e+01 0 0 0
2621 1 1.3345372380200802e+00 1.5760412204718783e+01 1.3163829535245541e+00 1 0 0
1029 1 1.8175878512299841e+00 2.5135214151964341e+01 2.6055972826555944e+01 0 0 0
3929 1 4.4683437105611281e+00 4.5202871063149090e+01 4.8537246765145071e+01 1 -1 -1
447 1 2.8705284155797992e+00 3.2133680416126381e+01 2.9518249849425573e+01 0 -1 0
3380 1 1.3437969753035959e+00 1.5762548293652149e+01 7.7715371079766991e+00 1 1 0
1201 1 3.7664890714850228e+00 2.2644176457817384e+01 2.8091467223019499e+01 0 0 1
2057 1 9.5150429323722907e-01 1.7406167327667323e+01 1.7468072246343183e+01 1 0 0
3622 1 3.3336607633009225e+00 4.2549206090682645e+01 2.6025068284592678e+01 1 0 0
3191 1 4.1817311029335196e+00 1.6391275884251122e+01 1.6571418747362081e+00 1 0 1
468 1 3.3352474933913161e+00 6.1039680587219642e+00 2.0614865838049802e+01 0 1 0
254 1 1.3280345672409881e+00 5.0677939129954974e-01 3.2480904296433422e+01 0 0 0
604 1 4.2902242944043119e+00 3.6040290743286249e+01 4.4539827653285840e+01 0 0 0
3422 1 3.1966570904865259e+00 4.2584778415773306e+00 3.0790547639532164e+01 0 0 0
1452 1 1.1347080064146620e+00 6.7353917943901687e+00 2.8859911295145409e+01 0 0 0
628 1 3.6018236804697037e+00 7.2696334453250433e+00 3.1893133168949266e+01 0 0 0
2018 1 3.3700784321156068e+00 1.6081791922678491e+01 1.7639333911818902e+01 1 1 0
155 1 4.3867286646740578e+00 1.1947517782113112e+01 3.1827451832597827e+01 0 0 0
2071 1 4.4799032799716967e+00 4.3525549333331796e+01 4.0616846958629012e+01 0 0 0
3554 1 1.0265460471096599e+00 1.3307508059102211e+01 2.8837937742116402e+01 1 1 0
99 1 2.1368527222886966e+00 1.5441296085392027e+01 2.9714054223314271e+01 0 0 0
3539 1 3.4992105789991199e+00 1.7078811876031761e+01 4.0744442563535983e+01 1 0 0
1475 1 3.6432525646147895e+00 1.1530216581477820e+01 4.3617843517100169e+01 0 0 0
100 1 7.0101980988411261e-01 2.1897959283051804e+01 2.7334393019197037e+01 1 0 0
3500 1 3.1539566787086901e+00 2.4051361397023356e+01 3.0624768548179077e+01 1 0 0
2955 1 3.2311203109770448e-01 3.2534792403328212e+00 3.8023407686394307e+01 1 0 0
3310 1 2.3960766327565679e+00 3.4456630316189802e+01 4.6986004021990567e+01 1 0 -1
1864 1 1.8083007704632945e+00 3.1114455451978131e+01 3.2099566454994232e+01 1 0 0
287 1 3.1731901965118428e+00 2.7944480786566110e+01 2.6977562445428944e+01 0 0 0
1091 1 3.9924188697062561e+00 3.4532130992717967e+01 3.0312339858763647e+01 0 -1 0
810 1 4.0518483936271874e+00 1.4130802782512813e+01 4.3145826769678322e+01 0 0 -1
1042 1 2.3106936078656370e+00 1.8288544638955646e+00 2.0320093953961678e+01 0 1 -1
3331 1 1.4832602496761973e+00 3.5781470686875537e+01 3.0575737620366642e+01 1 0 -1
3939 1 2.8471596084267246e+00 3.8534718679068291e+01 2.9911372869542667e+01 1 0 0
3266 1 1.6088086177820997e+00 4.3031395187549180e+01 2.8671148849931726e+01 1 0 0
2858 1 4.0516984919199714e+00 4.3489357349865543e+01 3.0017532974636691e+01 1 0 0
2882 1 3.9508179459202180e+00 9.1606024281669707e-01 2.5731262369284494e+01 1 0 0
3322 1 3.7098793932038880e+00 4.5866038753249370e+01 3.1195605608543332e+01 1 0 0
3981 1 1.6447718400286284e+00 4.7519820236110647e+01 3.0303566445361177e+01 1 -1 0
507 1 4.1996631228327850e+00 4.0921948408404589e+01 5.6989833658453364e+00 0 0 0
4024 1 3.7790647138648792e+00 1.9883252227882707e+01 2.0283472021168389e+01 1 -1 0
3201 1 4.8063615754971112e+00 5.0000891308197637e+01 2.7691481992971557e+01 1 -1 0
136 1 4.8902943677211230e-01 2.3155702981045852e+01 3.8831014292239305e+00 0 0 1
1114 1 1.0942164640089522e+00 3.1792227864493841e+00 3.2124202897184219e+01 0 0 0
358 1 1.4381788914311113e+00 8.5565485210068406e+00 3.3157883844189911e+01 0 0 0
3876 1 4.2020165335253399e+00 1.9594401740835927e+01 2.7283955032083302e+01 1 0 0
196 1 3.8060937487882516e+00 3.6582948928251966e+01 4.9800849325278392e+01 0 0 -1
2663 1 1.1130557933175698e+00 1.3154804342164239e+01 3.4488314245623428e+01 1 0 0
3628 1 2.1906730466915585e+00 1.5810408251469127e+01 3.4244375580296435e+01 1 -1 0
2041 1 4.7458518426585181e+00 4.9193527996465235e+01 4.7070812464840017e+01 0 0 0
4053 1 2.3264749434115211e+00 1.8697743365334905e+01 3.4025263232734119e+01 1 0 1
2416 1 3.6947297633473752e+00 1.9858512802453109e+01 3.6606207618947906e+01 1 0 0
1495 1 2.9464650335442366e+00 2.2233953583848930e+01 3.7663771760909768e+01 0 0 0
715 1 2.1936653727088227e+00 2.0042155975612321e+01 3.1632263733298679e+01 0 0 0
2192 1 4.3540296720274032e+00 4.4359899529647379e+01 4.4685244223064970e+01 0 0 0
3930 1 1.8468208238390884e+00 2.2700889328969136e+01 3.2499268055484208e+01 1 0 0
176 1 2.6245393965882338e+00 2.3727651686210233e+01 3.5084111093296272e+01 0 0 0
714 1 2.6068675875376726e+00 2.8549237453323713e+01 3.2166929756880130e+01 0 0 0
3824 1 4.1178972307493051e+00 3.0914794331063160e+01 3.5821937422995489e+01 1 0 0
3410 1 3.3829747368886842e+00 3.2851080883683679e+01 3.3754068249776239e+01 1 0 0
825 1 2.0359615335837873e+00 3.5066831723451656e+01 3.4007152032039613e+01 0 0 0
558 1 2.4477098662425263e+00 3.9154208900701022e+01 3.2450271404036329e+01 0 0 0
27 1 4.7016833155853375e+00 3.1933345339646067e+01 4.1231420146080737e+01 0 -1 -1
3579 1 3.9998672594235218e+00 1.8176033751677551e+01 4.5217775650830816e+01 0 0 0
3033 1 3.4300645933440208e+00 4.1661826406095102e+01 3.2401651692527977e+01 1 0 0
1074 1 1.8017193851044602e+00 4.2239327264726242e+01 3.4622056485185780e+01 0 0 0
2245 1 4.0866333936334058e+00 3.4860056534696866e+01 7.0197060124273953e+00 0 0 0
3183 1 2.0235623723771763e+00 4.4859142722795553e+01 3.3867087834444462e+01 1 0 0
2032 1 2.1253648797356499e+00 1.2425061798506182e+01 4.5960667312708281e+01 1 0 -1
3089 1 3.8148122306605714e+00 3.4514497889229432e+01 4.0785050723732667e+01 1 0 0
2455 1 3.9587204606328985e+00 4.1480316955950570e+01 1.4025237010232855e+01 0 0 1
1066 1 2.8561903652659044e+00 2.9388935999009678e+00 3.7015389104167141e+01 0 1 0
4062 1 4.3324831806265225e+00 4.8515360598407838e+01 7.8916543198881683e+00 1 0 1
1825 1 3.8574416711606667e+00 7.0242091186473683e+00 3.9873220089077606e+01 0 0 0
4070 1 2.8136847895136796e+00 5.0848452745109967e+01 1.5540249147790629e+01 0 -1 0
719 1 2.8103357110097118e+00 8.5426631643088324e+00 3.5779051923218177e+01 0 0 0
3798 1 4.4965975686198050e+00 1.6578570159944181e+00 4.4262158350662446e+01 1 0 -1
29 1 2.8680856810530591e+00 1.6563803228329574e+00 4.6416705036690402e+01 0 0 -1
3041 1 3.0799785307434124e+00 1.1573350468173354e+01 3.9498587613075514e+01 1 0 0
2536 1 3.1403933002789186e+00 1.2671941509713266e+01 3.6795583005919667e+01 1 0 -1
3342 1 3.6911497701964033e+00 3.7354196927471435e+01 3.3893176466078515e+01 1 0 0
1523 1 2.1524550180404507e+00 1.8577295810143802e+01 3.8377065318453361e+01 0 0 -1
152 1 1.1347866601152758e+00 1.6350758196151059e+01 3.7089077635464179e+01 0 0 0
697 1 1.6386533084310930e+00 2.5887396082203932e+01 3.7737036102310626e+01 0 0 0
2467 1 4.1456652147187734e-01 3.1907191697493225e+01 7.2719685481020768e+00 1 0 1
334 1 3.6220842842331260e+00 2.7432857662372346e+01 3.6751153605736391e+01 0 0 0
3466 1 3.7347123948499834e+00 3.0581045716157568e+01 3.8954716917880404e+01 1 0 0
184 1 2.1196355424630111e+00 5.0198400831416549e+01 4.7398763453797613e+01 0 -1 -1
1691 1 1.7761353049169877e+00 1.9162479378474043e+01 4.9460304303181530e+01 0 0 0
3600 1 1.8229945036031132e+00 3.5444020042512292e+01 3.6712268261651047e+01 1 0 0
169 1 1.2230174460925907e+00 3.8142982983962341e+01 3.7378414808431117e+01 0 0 0
3036 1 3.2961676981004393e+00 3.9619849036574450e+01 3.7811646212127386e+01 1 -1 0
706 1 2.7225214249047132e+00 4.2215438172467074e+01 3.6954471073800249e+01 0 0 0
3878 1 3.5391236356283797e+00 4.8948528985158703e+01 3.5994163966719597e+01 1 -1 -1
76 1 4.0787379442455425e+00 8.3249174177411103e+00 1.7222369078437517e+01 0 0 0
1399 1 2.7648619492506237e+00 1.7400302833484993e+00 4.0766610622158723e+01 0 0 -1
899 1 3.6641638226151190e+00 4.5660093217498163e+00 4.1772836727334209e+01 0 0 -1
3657 1 1.8150657881995553e+00 1.0601753148725852e+01 4.2009524559902758e+01 1 0 0
864 1 4.1415605839687526e+00 3.9332697479901739e+01 1.7168723573855637e+01 0 0 0
1216 1 1.9167045543033665e+00 1.4327642033264594e+01 4.1073626357157949e+01 0 1 0
1032 1 1.9049020895270818e+00 2.1003916232176149e+01 4.2618967679104884e+01 0 0 0
1121 1 3.1590282517872978e+00 3.1598814994834697e+01 4.6491111380330750e+01 0 0 0
247 1 3.2072921861144845e+00 3.8820438982634229e+01 4.8420716172692281e+01 0 0 0
150 1 3.6889382846349696e+00 2.0236001628360523e+01 4.0413974439543409e+01 0 0 0
1487 1 2.0947672060093763e+00 2.3792442652284361e+01 3.9762333892479589e+01 0 0 0
1761 1 4.3052321340558084e+00 4.6829753834639405e+01 3.4202167659803095e+01 1 -1 0
1198 1 4.0792508405360604e+00 2.6599053550517855e+01 3.0902910383325420e+01 0 0 0
3069 1 1.2314802324913585e+00 3.0642255561509209e+01 3.9819944420914453e+01 1 0 0
3913 1 4.0583936833450691e+00 2.6879253844021811e+01 2.7096184150886987e-01 1 0 1
1285 1 4.4533903688395666e+00 4.3596855674981072e+01 1.1921411417268695e+01 0 0 0
1024 1 1.1346555298703025e+00 3.5321540520173542e+01 4.1571525556772528e+01 0 -1 0
829 1 1.9587046215721420e+00 2.7292808415544577e+01 4.3258367532063900e+01 0 0 -1
3730 1 4.3113959180344006e+00 2.6369986421897266e+01 4.1660793077641983e+01 0 0 -1
721 1 3.8870591646522605e+00 3.9461913455196921e+01 4.0725608014946388e+01 0 0 0
3995 1 1.3605201104297022e+00 4.3010207397105077e+01 3.9035923349792981e+01 1 -1 0
850 1 2.6614626617090154e+00 4.1786937482245875e+01 4.1339445163371138e+01 0 0 -1
3285 1 3.6216693291451572e+00 1.5001969219457905e+01 4.8293702819654428e+01 1 0 -1
2567 1 2.2755442026471995e+00 4.7249570402793154e+01 3.7875769366746994e+01 1 0 0
3513 1 2.7953564742686470e+00 4.7580318923130591e+01 1.5845184795285434e+01 1 -1 0
3265 1 4.1700246022767296e+00 2.0758073287206759e+01 4.6320861401462992e+01 1 0 0
450 1 1.4406581874525217e+00 4.9974146455504382e+01 3.8848156954331643e+01 0 -1 -1
1169 1 1.4925961585450840e+00 1.6484307763506031e+01 4.9425858113421995e+01 0 0 0
168 1 4.3800687717876867e+00 2.6787173165407047e+01 1.7799316501330619e+01 0 0 0
640 1 3.6367471860993925e+00 4.6449987310681195e+01 4.6465050638389627e+01 0 0 0
3867 1 4.5945657283675345e+00 4.7611232920547266e+01 1.8258013510846343e+01 1 0 0
449 1 1.6779593274267501e+00 8.5394054695405579e+00 4.3746576952664313e+01 0 0 -1
3194 1 4.2867679464240309e+00 8.1805542335078965e+00 2.4567500742405226e+00 1 0 1
3544 1 2.7861160716256519e+00 1.2241542421648004e+01 4.8849831223992467e+01 1 0 0
3885 1 4.8318234869492978e+00 2.4247277914206440e+00 3.4774270326492356e+01 1 1 0
779 1 1.6816616134215243e+00 1.8725965781054139e+01 4.3912920607333930e+01 0 0 0
337 1 3.2361327430858555e+00 3.4080603648891653e+01 4.9306526573687236e+01 0 0 0
4020 1 2.3900518511064290e+00 2.2947406260017299e+01 4.5352104473918445e+01 1 0 0
3676 1 3.8370735775674225e+00 2.7956740743598964e+01 2.4144233016575448e+01 1 0 0
3467 1 4.5856571007380138e+00 3.8580161815002555e+01 2.5760683654438807e+01 1 0 0
3956 1 3.0985244413396535e+00 2.5784173150125827e+01 4.5713816266469308e+01 1 0 0
1784 1 4.6220878654743371e+00 4.7506527984423546e+00 1.6914797372400379e+01 0 0 0
3861 1 3.4619481847365376e+00 3.1233107184735591e+01 4.3694283020415057e+01 1 0 0
165 1 4.0611935288120815e+00 4.0060894295575892e+01 4.4158498746243708e+01 0 0 0
2897 1 2.2853219004952492e+00 3.4038925313647340e+01 4.3999240948119393e+01 1 0 0
50 1 9.0844460118674220e-01 3.8558862359477331e+01 4.6781927811265874e+01 0 -1 -1
269 1 2.5349359694675875e+00 3.7907428724451847e+01 4.4606656807251142e+01 0 0 0
1135 1 2.3502023814540505e+00 4.2307231442482035e+01 4.4308116815383656e+01 0 0 -1
1383 1 3.1769075683556922e+00 2.9740914610719329e+01 4.9145405511798074e+01 1 0 -1
1570 1 1.6214684999799671e+00 4.7284768749812585e+01 4.2737820376306331e+01 0 0 0
2935 1 7.1993374997897652e-01 3.0938667904787593e+01 5.0049802008507001e+01 1 0 -1
1689 1 4.4998115143932980e+00 3.0645323382742102e+01 3.1144444076613698e-01 0 0 0
3479 1 2.7835981183371570e+00 5.0229510280424989e+01 3.0191312868531700e+01 1 0 -1
3615 1 3.6865709143574024e+00 2.1562463010882098e+00 4.8795782918393840e+01 1 0 0
1195 1 2.0491608252667337e+00 4.4084517377861445e+00 4.6190163297546064e+01 0 0 0
1853 1 3.1617286553148372e+00 6.8647480240582572e+00 4.5452706966936347e+01 0 1 0
854 1 1.2724911489308832e+00 7.8406347855030862e+00 4.7215329100436321e+01 0 0 -1
572 1 4.3022882764126766e+00 9.0919455521167798e+00 1.0167095287764340e+01 0 0 0