LAMMPS data file via write_data, version 7 Aug 2019, timestep = 5000000

4098 atoms
1 atom types

2.1371035057256549e-01 5.1206289649427639e+01 xlo xhi
2.1371035057256549e-01 5.1206289649427639e+01 ylo yhi
2.1371035057256549e-01 5.1206289649427639e+01 zlo zhi

Masses

1 18.15

Atoms # atomic

3783 1 2.9816540487464640e+00 8.8013876216907538e-01 1.5982498863451742e+00 -1 1 -2
3491 1 3.8720952854115254e+00 4.9232283032113202e+01 4.8298809496827786e+01 0 0 0
703 1 3.3972148793025161e+00 6.0640846021917465e+00 1.5266034860438185e+00 0 0 -1
2185 1 3.8843255161044571e-01 2.6193053895723573e+01 3.0101490580057444e+01 -1 2 -2
1464 1 2.9690551534372739e-01 4.2580960050994769e+01 1.8113473457532393e+01 0 -1 3
2044 1 7.0073306361827514e-01 6.6204501519468950e+00 4.2938404772620892e+01 1 0 0
2351 1 1.3143923525071708e+00 1.2216694567131343e+01 5.1123946686016275e+01 -3 0 -2
2150 1 3.0583639529856708e+00 1.4483921537296863e+01 5.0582641263654438e-01 0 -3 1
1781 1 2.2590945961457023e+00 1.4067431048593104e+01 3.1481990684044732e+00 1 0 0
3068 1 7.8355830883228395e-01 2.5460096363006567e+01 1.7039273701734523e+01 1 -1 0
794 1 1.2027227326888212e+00 2.0300910936096987e+01 1.6301588428082632e+00 0 3 2
1525 1 2.3285883350090253e+00 2.2812909792255180e+01 2.5734983940663358e+00 -1 1 1
202 1 2.6965937253110179e+00 2.8211079082461108e+01 1.8656842202958119e+00 0 0 1
3214 1 4.0267512552957250e+00 2.6309024557226987e+01 7.6523759779998368e-01 1 -1 0
2494 1 6.7293763491937075e-01 4.7693421878920795e+01 5.0296106681976156e+01 0 2 -1
1485 1 3.8318650632714149e+00 3.0527406870700005e+01 2.6742451810289141e+00 0 1 2
2688 1 6.9017530324602838e-01 3.9438024793295405e+01 2.3719449582420353e+01 -1 1 0
629 1 1.8104497476044341e+00 3.6526897909417812e+01 8.6688626148652304e-01 0 -1 1
3215 1 4.1104364714060857e+00 3.5642193851373918e+01 2.2102662080442865e+00 0 -1 1
2406 1 4.7386031982478360e-01 1.0718038105276502e+01 2.2586113442941222e+00 0 2 1
3837 1 1.5173625828709649e+00 4.0676613100161248e+01 2.9018777418659285e+00 0 -2 -1
3479 1 2.2761878225046903e+00 4.1918452112405710e+01 5.1320246580101858e-01 1 0 -3
2242 1 3.3489321384938013e+00 4.4230745803449011e+01 1.4494921938887797e+00 1 -1 2
1409 1 1.9573994454243753e+00 4.5582359996227680e+01 2.9905501342659431e+00 -1 -1 1
2498 1 3.6748439278713905e+00 4.9414354771566359e+01 1.6419798620621000e+00 0 -1 3
2815 1 3.6055646962819394e+00 2.4924849816946373e+00 3.8490021581474583e+00 1 2 0
433 1 2.7304575455411069e+00 8.2719369754227068e-01 5.8249465271152001e+00 -1 1 -1
1027 1 2.4116062257329327e+00 5.0802619509983780e+00 3.5724414157446471e+00 -1 0 1
16 1 3.2256630663555184e+00 6.5811886076099357e+00 5.9851207135069888e+00 -1 0 0
1952 1 1.8362766513479947e+00 8.9875136422800512e+00 5.7489734435005504e+00 0 3 2
270 1 3.2272297885226235e+00 1.0184911276710558e+01 3.3163845163756664e+00 0 2 -2
422 1 8.8504988331558743e-01 1.5271579632877044e+01 6.9415921576503195e+00 0 1 1
3959 1 4.4158568756856920e-01 2.8933260434093608e+01 3.6004803065603141e-01 -1 0 -1
3467 1 2.1568032843536726e+00 1.9032213795046083e+01 5.4328379391203008e+00 2 1 1
1509 1 7.1053873610599505e-01 5.0548569588138825e+00 2.1131260011895510e+01 -2 1 1
223 1 3.5624073472795743e+00 2.1316199903576482e+01 6.3714348238929848e+00 1 -1 2
957 1 5.3122647254144550e-01 2.4632376558378134e+01 3.8870937186298571e+00 -1 0 1
3599 1 3.0644345622255198e-01 3.4457064774717367e+01 2.9078709216581053e+01 2 0 0
1461 1 1.7934140371836804e+00 2.6989317904134566e+01 4.1162601809164716e+00 1 1 0
3146 1 3.9755907283995686e+00 2.6252136450077082e+01 5.7642550692231955e+00 0 2 0
239 1 1.4867541039317564e+00 3.0994780635466920e+01 6.2026325638754445e+00 0 0 2
2323 1 2.1083337631567858e+00 3.2450732581331522e+01 4.0621846737625216e+00 2 -1 0
3750 1 3.1189925176311788e+00 3.4811775652704135e+01 4.5421131414150979e+00 2 -2 0
3273 1 1.6104108784621862e+00 3.6027290884273093e+01 5.9978100034309714e+00 1 0 1
2179 1 3.4990320052865878e+00 3.9575576541965738e+01 4.4536399129964925e+00 0 0 1
1748 1 2.8887691934675819e+00 3.8530970179368460e+01 6.7257526655294333e+00 0 -1 -1
1896 1 9.8003548670990781e-01 4.4225693278255527e+01 4.9360697323965681e+00 0 2 2
1502 1 2.7756815364119474e+00 4.3642536671956790e+01 6.4300288087768562e+00 1 -2 0
3702 1 4.7663724075910485e-01 2.9879767630407123e+01 1.3944910234327034e+01 0 1 2
2170 1 2.7664878143924159e+00 4.8087300929875283e+01 3.8223372006534091e+00 2 0 0
1627 1 1.0444092118107149e+00 4.9659763526799026e+01 5.2588685074544381e+00 -1 -1 -1
516 1 1.2836257124848589e+00 2.8522438004262805e+00 7.4397135280771014e+00 -1 -1 -1
3908 1 4.6066577105895137e+00 6.8007736683697395e-01 7.4091011188348253e+00 0 2 0
366 1 2.5576595573204347e-01 2.1507333145498123e+01 2.9851651900940457e+01 -2 -1 0
4007 1 2.5191005690207944e+00 5.0385940716178244e+00 8.3964551175451785e+00 2 1 0
104 1 4.6258184393799091e+00 4.3946956591897887e+01 3.6940534315994682e+01 0 1 -2
1391 1 1.6395517327751283e+00 1.0288029916314882e+01 8.1075067331119222e+00 0 -1 2
2624 1 3.0866644081863086e+00 1.3875528072620396e+01 5.9793516513594493e+00 2 2 -1
3229 1 1.8245772683451364e+00 1.8118566139714250e+01 7.5236309946416053e+00 0 -1 1
1493 1 4.0179352315774031e+00 1.7649478443982851e+01 9.0727951699513838e+00 -1 1 -2
3502 1 1.2074569947037987e+00 3.5654248700481901e+01 2.1359243067618948e+01 -1 -2 0
3293 1 1.1864914662758983e+00 2.2134971624830754e+01 9.8993026326091158e+00 2 0 1
2306 1 1.9131337919587763e+00 2.3091764061282284e+01 7.5954278501255628e+00 1 0 -1
3660 1 3.2076792680752528e+00 2.5337019869726053e+01 8.1588963580782856e+00 1 1 0
3561 1 1.7235844287230300e+00 2.6938440442300475e+01 9.3679051646579534e+00 1 1 1
3688 1 3.5281966868284980e+00 3.0746973784626949e+01 7.6085205715505682e+00 1 -2 -1
882 1 3.1438792678148495e+00 2.9267382459071300e+01 9.9014444366118735e+00 0 -2 -1
2426 1 8.2391037583117754e-01 3.4672739139977956e+01 8.2316686692210155e+00 1 -1 3
2723 1 2.8894378893268273e+00 3.4010096762856421e+01 9.5808593374842950e+00 0 0 2
3513 1 6.3130026370734105e-01 4.7957025286600157e+01 1.2607097498516564e+01 0 1 0
3252 1 1.2803475599271037e+00 4.0045546822020377e+01 8.1716549020852778e+00 0 0 0
1353 1 2.3323953428228568e+00 4.2215149721579373e+01 8.7531118840676925e+00 1 -1 -1
2773 1 4.5428196482464065e+00 4.1485416863316772e+01 9.8947204451981143e+00 0 1 2
350 1 3.9909679685835240e+00 4.5860738698691684e+01 7.2259001812847803e+00 0 1 1
2724 1 2.6167748671352484e+00 4.7257123047965692e+01 8.5728450975276989e+00 0 0 1
1711 1 3.7248387740120155e+00 4.9921965731698208e+01 9.1326014010324812e+00 0 0 1
2046 1 2.8829746995548278e-01 3.9003035822262035e+01 1.0575113573182316e+01 2 0 0
514 1 2.7544903976894801e+00 7.9272701272436308e-01 1.0840802233043814e+01 -1 -1 2
592 1 4.5219116835388409e+00 4.5533053496503966e+00 1.0618115941476422e+01 0 0 0
945 1 2.7670387152885976e+00 6.0856673496733444e+00 1.2094725698112262e+01 0 1 3
61 1 1.5842213054256726e+00 8.6394060791447949e+00 1.0966878667060039e+01 1 1 1
390 1 3.5893757038812701e+00 1.2023099590456841e+01 9.0383384726785962e+00 2 -1 4
1652 1 1.3127145485661813e+00 1.2549879957039579e+01 1.2681549455822882e+01 1 0 0
1901 1 4.5097915228892971e+00 4.7955079490921534e+01 1.3025297747417362e+01 0 1 0
1846 1 4.7728391282610847e+00 9.7006969400232723e+00 3.2957577721464098e+01 0 1 0
3977 1 2.1167582238829028e+00 1.3710211212901966e+01 1.0537284876240312e+01 3 3 0
2662 1 3.2488304527997940e+00 1.6097797315093409e+01 1.1015086959621321e+01 0 -1 -1
2297 1 1.5765244769210327e+00 1.7851624989154509e+01 1.2256387518405475e+01 -1 -2 1
2536 1 3.3898541163481304e+00 2.1503999421555907e+01 1.0878565657225559e+01 1 -1 -1
448 1 1.1318657733984114e+00 2.6015136217768401e+01 1.1676175627447446e+01 -1 0 -1
1469 1 1.0240619725803748e+00 3.0737335439979702e+01 1.1080647692036617e+01 0 0 1
2682 1 2.4265880979534535e+00 3.3166611083170885e+01 1.2084710362174736e+01 2 0 0
1220 1 4.1284410269445617e+00 3.6508319546395079e+01 1.0384094938419032e+01 0 -1 -1
1636 1 2.2854037480338212e+00 3.8099409547585488e+01 1.1756825694742400e+01 -1 1 2
3979 1 3.4003625211947659e+00 4.0499867484961086e+01 1.2439390061970888e+01 0 -1 -2
3383 1 9.5862771155548432e-01 1.0338991672125967e+01 2.0579758240071932e+01 1 0 -2
331 1 7.0078979477076886e-01 2.0071005172219706e+01 3.6958279227463166e+01 -3 0 1
1618 1 1.9749231022702218e+00 4.6252194034111398e+01 1.0968905388884796e+01 -1 -2 0
988 1 3.8635639376778288e+00 4.5508425075384316e+01 1.2469302303937502e+01 1 0 1
3218 1 4.7106376626442445e+00 3.7960516563318997e+01 3.7852804675589212e+01 2 1 1
2627 1 3.1858934599215432e+00 4.7979885272615462e+01 5.0606650068791438e+01 0 1 0
2491 1 1.6540776686348833e+00 2.8826516162084683e+00 1.6705865449411313e+01 0 -1 1
1314 1 1.7783397407048978e+00 2.9638327942625118e+00 1.3506321233613040e+01 2 0 0
2834 1 3.6710141683681274e+00 4.5360524663584361e+00 1.6172970266463079e+01 1 1 1
2202 1 3.1199680226781461e+00 6.9218473980136883e+00 1.4649109822659682e+01 1 1 -1
1968 1 1.1106408744764815e+00 8.4972872980132035e+00 1.5818235168246106e+01 1 0 -1
2714 1 3.3575893944960691e+00 1.2050009922857228e+01 1.4402055336284105e+01 2 1 0
1532 1 1.0461195210258805e+00 1.6532071300427379e+01 1.4400392006056530e+01 1 1 -1
2500 1 2.8575509933614218e+00 2.0120832390126367e+01 1.2941679958836188e+01 2 0 0
2061 1 1.1774239019510953e+00 2.1262764047608044e+01 1.4757176919938999e+01 0 2 1
1659 1 3.0554115529419392e+00 2.5051965715391322e+01 1.3267152843696184e+01 0 1 1
560 1 2.1126632856220890e+00 2.3871216317549205e+01 1.5489866897051865e+01 -1 0 0
3657 1 4.2599956834481212e+00 2.7456085138054444e+01 1.4116676326749106e+01 2 0 0
92 1 4.7864442613927185e+00 4.9459292664397525e+00 1.8467552064882803e+01 -1 -1 0
2562 1 2.6048974880975089e+00 2.9123062407693084e+01 1.5218434349351908e+01 1 1 -1
3460 1 3.7927757426094657e+00 3.1441347124965766e+01 1.5570070790032286e+01 3 -1 -2
284 1 6.7545537858717764e-01 3.4495471125365263e+01 1.3465712287515666e+01 -1 1 1
2715 1 4.7424792210997344e+00 3.2895726056778820e+01 8.2701750671120173e+00 1 -1 -1
98 1 1.7178976563383574e+00 3.6706827932995253e+01 1.4031766336737883e+01 -2 -2 1
99 1 4.0556159736468320e+00 3.6506594110248237e+01 1.5674735457357176e+01 1 2 0
135 1 1.3248366827123474e+00 4.0649065370801040e+01 1.5965568300572837e+01 0 1 0
1494 1 1.7536165005324498e+00 4.2103118907095784e+01 1.3798242394783919e+01 1 -2 1
3670 1 2.7837801906593826e+00 4.4641232204911269e+01 1.4564127751280804e+01 2 -1 1
2881 1 2.0316099569244632e+00 5.0076499577909786e+01 1.3423798047459588e+01 -1 -1 0
1905 1 2.1860671597704728e+00 4.4199725860181699e-01 1.7873720088453627e+01 2 0 -1
3485 1 1.0216875193070127e+00 3.9282864861288694e+01 2.8411743744617574e+01 0 -3 0
3031 1 2.7076615117443787e+00 1.0752437578155490e+01 1.6537825776332539e+01 1 0 -1
1775 1 1.1367565450948183e+00 1.2178360941132736e+01 1.8160788386276920e+01 0 0 1
1411 1 2.2423114712796925e+00 1.4652306332936645e+01 1.8535464868403558e+01 -1 1 0
2145 1 3.0788266496775543e+00 1.5848069648462610e+01 1.6313771596508186e+01 1 1 1
2114 1 4.5912204063441377e+00 1.9406220499030614e+01 1.4832404243063291e+01 1 -1 2
1933 1 3.8991870585309568e-01 4.8170459345486407e+01 7.2519623353482672e+00 -2 0 0
3052 1 2.4928070172162946e+00 1.9945683338099055e+01 1.8552227079588381e+01 1 -2 0
1135 1 3.8294165520190897e+00 2.2367197687886208e+01 1.9166768945322975e+01 -3 0 1
2002 1 3.0065362982835873e+00 4.4690788366894729e+01 4.8053559345937515e+01 1 0 0
2446 1 4.3978790188254846e-01 2.4163145985417405e+01 4.1523274241353683e+01 1 -1 1
79 1 1.9751854807491191e+00 2.7831923016063111e+01 1.7514867491049710e+01 -1 1 -2
3196 1 4.0485535760063396e+00 2.7482580687226065e+01 1.9328376064269573e+01 1 0 2
1063 1 3.2043849577312633e-01 4.4110637346339473e+01 4.8143866687828549e+01 -1 -3 -1
3573 1 2.4758786750528956e+00 3.2857959690446904e+01 1.7362056023073091e+01 0 1 0
1078 1 3.3925709864130300e+00 3.5186802072603967e+01 1.7878128402862167e+01 -1 -3 0
1011 1 1.6473990008045591e+00 3.6748976515201484e+01 1.9112382114177308e+01 -1 1 1
3336 1 3.5729430621247613e+00 4.0400123041293128e+01 1.7596536943641141e+01 1 0 -1
2665 1 2.4631781887037349e+00 4.4061064424746689e+01 1.9081867690294967e+01 1 -3 1
3382 1 4.7051270530080487e+00 4.2713516106257018e+01 1.8220075236033793e+01 2 1 -1
1299 1 2.3303332796041185e+00 4.6345139446488069e+01 1.7491604170273387e+01 -1 -1 0
1664 1 4.7035221585059750e+00 4.7636352271609255e+01 1.7775835117201265e+01 -1 0 -2
2687 1 3.6437828989373475e+00 4.9918852822074953e+01 1.5937235831408621e+01 1 0 -1
2633 1 1.0813541679202152e+00 2.4699231687908791e+00 2.2145186094453745e+01 1 1 -1
504 1 3.0117125720181663e+00 1.1397118655845171e+00 2.0576935592810450e+01 -1 1 1
2074 1 4.3276761876007015e+00 1.3287516294064996e+01 4.0098347956086670e+01 0 0 -1
3551 1 3.0032882255246878e+00 6.2793655619127637e+00 1.9922614995140357e+01 2 3 0
1429 1 3.7264931967373260e+00 9.1468239460798362e+00 2.0148504801889366e+01 0 1 1
2372 1 1.8040325951282647e+00 1.0422113221152090e+01 2.3381405129314363e+01 0 0 0
2840 1 4.6925436289991600e+00 1.0292198364778427e+01 1.8222236349265916e+01 1 0 0
324 1 4.5439491349937162e+00 1.3667143755438619e+01 2.0325919164413818e+01 -1 2 -1
3171 1 8.7673540166113817e-01 3.8603341956714395e+01 4.8109044799996042e+01 0 -3 1
2775 1 7.1516778432434891e-01 1.6575402470803596e+01 1.9868620684633797e+01 1 0 0
3568 1 1.8299426430565580e+00 1.8773210815967762e+01 2.0762853594971070e+01 0 0 0
1252 1 4.9727541958897509e-01 4.7746407867796556e+01 4.6004851993826321e+01 1 -2 1
4 1 4.7388424572076637e+00 3.2843932262370096e+01 1.3349914935704955e+01 0 -2 0
2191 1 2.2882589408898331e+00 2.3938713645074909e+01 2.0572140851665452e+01 -1 0 0
2534 1 3.4859640758627526e+00 2.6003118065685559e+01 2.1886249578345520e+01 -1 0 2
1734 1 1.2683530571232866e+00 3.1616310179370242e+01 1.9531102086378638e+01 -2 1 1
3853 1 3.7550591962245470e+00 3.1073685598583388e+01 2.1163043883969898e+01 -1 -1 -4
2735 1 3.2768535672323579e-01 2.0144283595460660e+01 1.6879143198405504e+01 -2 -1 -2
3412 1 4.4119292971539332e+00 4.2174897296366112e+01 4.9735730412733066e+00 0 1 1
620 1 2.9474179426025495e+00 3.8812796342709660e+01 1.9599654314328948e+01 0 0 1
3866 1 1.8238242418235691e+00 4.0694880343707176e+01 2.1771847496005542e+01 0 0 1
559 1 3.4845821346885386e+00 4.2329451572748347e+01 2.3007132022292190e+01 0 -2 -1
1984 1 3.4658423880221858e+00 4.4448711048629015e+01 2.1489827201705456e+01 -2 1 1
3483 1 1.1388070827892309e+00 4.8218656992684522e+01 2.1364364770692614e+01 -2 1 0
923 1 3.4238990368016284e+00 4.9796714727844744e+01 2.1682758888393014e+01 -1 -1 -2
1880 1 2.0835967498604466e+00 2.9493065339982043e+00 2.4704292865703696e+01 -2 2 -1
412 1 3.7022795873828649e+00 6.4572711480685712e+00 2.2929316077745629e+01 -1 0 2
3986 1 4.7621190326005678e+00 8.2857400842455107e+00 1.9736944498828832e+00 -1 3 1
3578 1 2.4317261308063514e+00 7.9827340573193704e+00 2.4708502815618765e+01 2 0 2
3094 1 4.6738131371589411e+00 3.3149511948061523e+01 2.6768974689085940e+01 0 -1 0
3145 1 4.7052723688457201e+00 3.4564128285303028e+01 3.5120101540478849e+01 1 1 0
3694 1 2.3680011038772242e+00 1.4665625187740655e+01 2.3275436379143208e+01 2 -1 0
2164 1 1.4262770859477218e+00 1.3745711102578504e+01 2.5866748265742473e+01 -2 -1 -1
3652 1 3.2205881833540317e+00 1.7241751285948716e+01 2.4391875118174486e+01 0 -1 1
1769 1 1.7220897673119069e+00 1.8841352006768854e+01 2.5693598332833478e+01 1 1 1
1182 1 3.6085124092069139e+00 2.2092565661634271e+01 2.4242664877663948e+01 1 2 0
3064 1 1.3957628066303425e+00 2.2668899286919491e+01 2.2709944613338177e+01 0 0 0
3317 1 4.1358709850335096e+00 9.7999779230058728e+00 1.0968482557113198e+01 2 0 2
811 1 1.6189379799593633e+00 2.7578666769911660e+01 2.2573888479069588e+01 -1 0 1
2052 1 1.0915700273846323e+00 2.6464889696186574e+01 2.4815613445556682e+01 1 -1 1
2343 1 2.9713687553339430e+00 2.9786572358854514e+01 2.3467167268929689e+01 2 0 -3
1680 1 1.3607443445880019e+00 3.1420008397268351e+01 2.5050446888907899e+01 1 -2 1
948 1 2.5739051822347534e+00 3.3694189046756279e+01 2.5135353459957344e+01 0 -2 0
3703 1 4.5839386406455125e+00 3.7329184767014738e+01 2.3661319552363619e+01 -2 0 0
1720 1 3.4747398171721606e+00 3.5193430299597267e+01 2.2932407076447294e+01 0 1 1
2922 1 4.4045596797699051e+00 5.0108722926215520e+01 2.4278064281887595e+01 -1 0 0
1355 1 2.9786060299139572e+00 3.9015883906167133e+01 2.5113591782904692e+01 2 -3 1
3558 1 4.1271009865891273e+00 1.8169576858841879e+01 1.7087776823296135e+01 0 0 2
3225 1 1.6711123276241679e+00 4.5904760255267583e+01 2.2748663382915776e+01 1 0 0
4021 1 2.6408703815701955e+00 4.6497186150370460e+01 2.5121478490649139e+01 1 -3 -2
3678 1 4.1432025023118948e+00 4.0363056205124806e+01 5.0447478693956683e+01 0 0 2
1989 1 2.6445066946394133e+00 3.6280059359985506e-01 2.5668992782846168e+01 -1 2 0
1410 1 4.1780420026686862e+00 3.4499091234858533e+01 4.0146871148446401e+01 0 -1 -2
1230 1 3.9763330030209758e+00 8.4516827638167269e-01 2.8057390242880970e+01 -1 0 0
976 1 4.7595525575032855e+00 3.8621396904632462e+01 4.2179055339511279e+01 0 0 -2
1628 1 1.5471649619458978e+00 4.7505427170279901e+00 2.8306133698875104e+01 3 0 1
4055 1 4.0871504690165050e+00 6.0885223990929056e+00 2.8192287033220598e+01 -1 1 2
1210 1 3.7835329218126725e+00 8.5647019886312492e+00 2.7185602683439857e+01 2 1 1
2980 1 1.7684310488245991e+00 9.6123665059258343e+00 2.8568327281473202e+01 0 -1 -1
510 1 3.0005762118767905e+00 1.2043078326175124e+01 2.9060169532735756e+01 -1 2 0
1418 1 7.2759931521157939e-01 4.3997184029164600e+01 1.0098644921323748e+01 -1 1 0
656 1 3.9038078324532224e+00 1.3157680880113015e+01 2.6820109302803885e+01 0 -1 0
3108 1 9.9941110823859747e-01 1.7710485176211982e+01 2.7849807070522125e+01 1 1 0
3547 1 3.4357347209715350e+00 1.6789388049765375e+01 2.9185151793280767e+01 1 -1 0
269 1 3.2986119011598403e+00 2.1045507136519557e+01 2.6570085352003129e+01 1 0 0
2200 1 1.7304853692477247e+00 2.2334782524583350e+01 2.7812636524096199e+01 1 -2 2
721 1 2.2550177858213751e+00 2.4770150384321408e+01 2.8440266227244450e+01 1 1 -1
1157 1 4.3642865996128108e+00 2.8367718391572186e+01 2.6933468868806624e+01 -1 0 1
2677 1 3.2542957452042365e+00 2.6158918167039872e+01 2.6329715881708953e+01 1 1 -1
3958 1 2.1893638032605311e-01 3.0464943590705424e+01 2.7426322950657244e+01 1 3 -1
3163 1 2.5021251752577034e+00 2.9824343110477052e+01 2.8546886855444029e+01 0 0 2
3417 1 4.5384911624618329e+00 1.3358238629591499e+01 3.4751811988487219e+01 -1 -1 -2
821 1 4.4236254107605504e+00 4.0477711892803709e+00 4.3215942262301219e+01 -1 0 -1
2554 1 1.1444815577105885e+00 3.5542014329454261e+01 2.6652750911708292e+01 0 -2 -1
1397 1 2.5375141690381651e+00 3.7512144837767167e+01 2.7246349561243662e+01 1 0 -2
1059 1 4.5616633949330092e+00 3.7358501848816140e+01 2.8759426763572680e+01 0 2 1
3883 1 4.5466654698231821e+00 2.6294841737424952e+00 1.2235132097359584e+01 0 2 0
3148 1 4.2796004617823762e+00 4.2579840737815822e+01 2.8018962078242019e+01 1 0 2
2609 1 2.8379738105649417e+00 4.3840749583636068e+01 2.5574410081407780e+01 -1 -2 -2
741 1 9.4436892504221126e-01 4.7700221389630997e+01 2.6754309779353491e+01 0 -2 -2
3269 1 2.1235167281384393e+00 2.1981425564509576e+00 2.9597244562586351e+01 1 1 -1
1268 1 3.2140024995292662e+00 2.7850469335710084e+00 3.2156599751235326e+01 0 -1 2
3093 1 3.0956082345631204e+00 3.8138335615472180e+01 4.9728759095294841e+01 0 1 -2
1484 1 1.2435894139520580e+00 8.1849144636507187e+00 3.0585350821498977e+01 0 0 1
3798 1 3.8078000204530529e+00 7.3503652749664550e+00 3.2142960905309572e+01 3 -1 -2
2099 1 1.6248724125564991e+00 1.3243745958204443e+01 3.0918352696393196e+01 1 -1 -1
550 1 2.8652747143987285e+00 1.5582786410506241e+01 3.1473288822209081e+01 0 0 0
3397 1 1.4094612752128539e+00 2.1409422211353235e+01 3.2404363551766657e+01 2 -2 2
479 1 4.5702113751541358e+00 2.4324220490263425e+01 3.0166372678967818e+01 -2 -2 -1
3985 1 2.9788463344940732e+00 1.0358165846153094e+01 4.9926840252089370e+01 0 0 -1
3873 1 1.6324478796876214e+00 2.8560665283314819e+01 3.0924993613615666e+01 0 1 2
2388 1 3.8958866743064515e+00 3.2114549352233723e+01 2.9188413744007828e+01 0 0 0
3063 1 2.6034802822234555e+00 3.4001039914373969e+01 3.0474412990389343e+01 0 -1 0
2189 1 3.7519647984531654e+00 3.6355621975535982e+01 3.1046309540442806e+01 0 1 1
1978 1 2.1675440176552869e+00 4.1419603740748506e+01 2.9911555007665942e+01 0 -3 0
1262 1 4.8253261625430888e+00 1.2672493976214433e+01 2.6405973052277694e+00 -1 -1 -2
2456 1 7.0832038694658339e-01 4.3513999556002481e+01 3.0635916833728157e+01 -1 0 2
3388 1 2.5656357269376007e+00 4.5677362166849939e+01 3.0707440061830230e+01 2 1 -1
2622 1 2.0819702927236099e+00 4.8191098798701603e+01 2.9239471269854697e+01 1 -1 0
2381 1 4.4897945216402855e+00 4.9488301283287640e+01 2.9481759348882804e+01 2 2 0
3990 1 3.4680916602716643e+00 5.5369747579431139e-01 3.3348379600441959e+01 1 -1 -1
1325 1 1.5370173634342525e+00 4.1299009276640444e+00 3.3460537881526626e+01 1 -3 0
1967 1 2.9939435415805975e+00 6.0731690389380342e+00 3.4343717846415224e+01 -1 0 -1
1225 1 1.0287574925192362e+00 1.2085858783430970e+01 3.3046059056020866e+01 1 -2 -1
344 1 3.0053155826860438e+00 1.1089243561516094e+01 3.4396698314714989e+01 1 -1 1
1197 1 8.0864080565676899e-01 1.5994330569476638e+01 3.5116644147044511e+01 1 1 1
3223 1 3.0736713781447982e+00 2.4097099234012877e+01 3.4977325579382257e-01 0 1 0
613 1 1.5107389431592479e+00 1.7146729097025297e+01 3.2995009070256387e+01 0 0 1
787 1 2.8190227080449470e+00 1.9420734462925026e+01 3.3299713558389421e+01 3 -1 1
2382 1 3.0898480646093320e+00 2.3215268361683965e+01 3.2346644277215113e+01 -1 0 0
2109 1 1.5609736418878373e+00 2.5136870212964691e+01 3.3738704553661023e+01 2 -1 -1
1110 1 3.8873509183059274e+00 2.8415485569725135e+01 3.2338853386481695e+01 2 2 -1
3938 1 2.8481837838733970e+00 2.7376371608045293e+01 3.4638718495399118e+01 0 0 1
2233 1 3.5314369755083970e+00 3.2479904437146615e+01 3.4248156169672576e+01 -1 0 -1
1440 1 1.4050642049129483e+00 3.2918026233477583e+01 3.2585142878970899e+01 -1 1 -2
3851 1 2.0673301768899259e+00 3.7923313734284974e+01 3.2376371605964344e+01 2 2 0
3264 1 1.2631113304901271e+00 3.6829803180133943e+01 3.4639969100077018e+01 0 0 -1
3463 1 3.2729377115805853e+00 4.0194328113890933e+01 3.2054625430465741e+01 3 2 0
682 1 2.1907441973021378e+00 4.1642281808151935e+01 3.4162914358442940e+01 0 -2 1
3615 1 4.0152870672200249e+00 4.3640658789855436e+01 3.4162572585229448e+01 -1 -1 0
3302 1 3.4098979468954891e+00 4.6082236955778399e+01 3.3151350718754891e+01 1 -3 1
2403 1 1.6393927466987155e+00 4.7350936280630442e+01 3.4697951359461840e+01 1 0 -1
470 1 1.2104383818996867e+00 4.9936255051378559e+01 3.3418010541707005e+01 1 0 0
1037 1 3.2683295228409803e+00 2.1874477085769306e+00 3.7332474730525760e+01 1 -1 -2
693 1 9.0300111346970890e-01 2.5822991992090354e+00 3.5749847761969555e+01 1 0 1
2868 1 4.3842656752054543e+00 1.0919208296763863e+01 5.9753025996257776e+00 1 2 -1
401 1 6.8459305217392996e-01 6.4691686387982621e+00 3.7990207164997571e+01 0 3 0
3130 1 1.3102140478511137e+00 7.5567621595685575e+00 3.5855252180043230e+01 1 1 0
3274 1 2.4004451142706511e+00 9.8459136660953011e+00 3.6708096642202293e+01 2 2 0
322 1 6.7986946318916386e-01 1.1688827359301193e+01 3.7734045091557377e+01 0 1 0
1777 1 4.5759103588731556e+00 2.2391936448137230e+01 4.9617377811631819e+01 0 1 2
2342 1 3.0084722774545058e+00 1.5138058946368046e+01 3.6169013768588563e+01 0 1 1
627 1 4.5563558413821168e+00 1.7529836322117713e+01 3.6865433686412132e+01 2 1 -2
1137 1 4.1949434770128020e+00 4.6558136083697114e+01 4.0416569430927943e+01 -1 -2 0
2661 1 3.1169656361086937e+00 1.9688652152755253e+01 3.6042093715245301e+01 1 0 0
2168 1 4.2140307972121844e+00 2.2218008526762961e+01 3.6669904112633041e+01 0 4 0
311 1 5.8927417279990946e-01 2.4461274802465230e+01 3.6336677456034920e+01 1 2 0
2991 1 2.6783663691238466e+00 2.4195840494627728e+01 3.7926494835375358e+01 2 0 1
4087 1 4.1372757585831206e+00 2.6166384121050640e+01 3.8443093725774332e+01 0 -3 0
2369 1 3.5337188890676656e+00 2.0903069670656982e+00 5.0316243580790847e+01 4 -1 -2
2469 1 1.3186831118717881e+00 2.9069139153237614e+01 3.6238702075008334e+01 1 -2 -1
3319 1 2.6610065231045770e+00 3.1406820802318542e+01 3.6600336850913330e+01 3 0 -2
2090 1 4.1009768862247622e+00 1.7858570754060732e+01 4.0316302110676512e+00 1 -2 0
3439 1 8.5233880359286385e-01 3.2811582520989369e+01 3.8016557353263025e+01 0 2 1
2923 1 2.1014578573720928e+00 3.4938546906386641e+01 3.8769162887790287e+01 -1 1 1
1016 1 7.9388692979086528e-01 2.4573231174872603e+01 4.9771154616957176e+01 1 1 -5
1153 1 3.2001094074933354e+00 3.6073606632033346e+01 3.6585989313682809e+01 0 1 -4
3255 1 1.1226307701318956e+00 4.0423675589127072e+01 3.6577721848897397e+01 2 0 1
1311 1 3.0350616175592610e-01 4.4608879436578967e+01 3.7857881461487239e+01 0 2 -1
1018 1 3.0590113119849156e+00 4.5389102836371990e+01 3.8284332264866983e+01 -1 -1 -2
2383 1 2.7908133562047031e+00 4.7955252945149269e+01 3.6971264240059782e+01 -1 0 -1
1831 1 2.6886573335679125e+00 8.8251985569640579e-01 3.9634237320617309e+01 0 1 1
1172 1 1.0027000678796034e+00 2.5551830690325321e+00 4.1060307437465013e+01 0 2 0
3690 1 2.9888483444961262e+00 5.8676020461568328e+00 3.9476457440787875e+01 0 1 -2
3744 1 4.2185761214701918e+00 8.2981428854099892e+00 3.9824045009925264e+01 2 3 -1
3486 1 4.1463771865418222e+00 1.8072342385948719e+01 2.2093902361990533e+01 1 -1 -1
243 1 3.3832079966592783e+00 2.0209855815545765e+01 4.8851324402462900e+01 1 2 0
2565 1 5.0250871785831375e-01 1.5641268957951645e+01 3.9829205764523778e+01 3 1 2
3591 1 2.1623892891200112e+00 1.3815124291599444e+01 3.8591837417485095e+01 0 0 0
2317 1 4.2666831128118776e-01 7.0113681298129711e+00 1.8450303630147200e+01 0 1 0
2316 1 1.8376335985124255e+00 1.7995247825097834e+01 4.0181255841187941e+01 0 0 -2
1820 1 6.7615298863787188e-01 2.0294379270899398e+01 3.9488997374115783e+01 3 2 -1
1770 1 1.9274220215256497e+00 2.2500312434923188e+01 4.0292352828459251e+01 -1 0 -1
2822 1 1.1519430611837256e+00 1.6502687110320522e+01 5.0640705434528883e+01 1 -3 -1
1508 1 2.7992879460120128e+00 2.7644076814764233e+01 4.0181483550862808e+01 1 1 2
2582 1 4.1243230749410467e+00 2.9773190405613313e+01 4.0645129459878468e+01 1 0 -3
1118 1 2.4092159365873362e+00 3.1276978492681042e+01 4.1896473056976468e+01 2 1 -1
1343 1 2.0034347312670886e+00 8.1741473717674982e+00 4.9046559267784041e+01 1 1 -2
2928 1 9.6755202911148108e-01 3.6759425140675440e+01 4.0165117749536158e+01 0 -1 -1
1866 1 3.4642943688503673e+00 4.0146430016758622e+01 3.8107736191759173e+01 -1 -2 3
3276 1 2.4403848534120263e+00 3.8943714781098990e+01 4.0749659262452354e+01 0 -1 0
2669 1 1.1685492535774082e+00 2.8929771003566902e+00 4.8830011218690366e+01 1 1 -2
1828 1 5.7081186538304096e-01 4.8365189315466907e+01 4.0767026010754833e+01 0 -2 0
1093 1 1.4074232722725828e+00 4.9788656666922627e+01 3.8598526770478855e+01 0 1 1
1511 1 2.2020940320293736e+00 3.2593293689034006e+01 4.9869103015209696e+01 1 0 -2
3639 1 2.5640925370847838e+00 3.7750051484416047e-01 4.4695589411141498e+01 1 -1 1
362 1 4.3667257055887836e+00 1.6868037805749239e+01 1.4920880775712586e+00 0 1 2
3862 1 4.4063922403561380e+00 2.3713935186738443e+01 1.7050798537147724e+01 -1 0 1
1586 1 4.6224825943937002e+00 1.7802613941801699e+01 3.9553155356421975e+01 0 2 -1
193 1 2.1095733416957674e+00 4.8143899492177358e+00 4.1782522000449447e+01 0 0 -1
4035 1 2.5887339866970351e+00 9.8775314290481671e+00 4.1156279858332006e+01 -1 1 -1
2805 1 2.0370127152411492e+00 8.7122870781149437e+00 4.3635449721733089e+01 0 -1 -1
1534 1 3.7625922291847669e+00 1.2019845816653088e+01 4.2319657355071591e+01 -1 0 0
1960 1 2.2221582179245796e+00 1.3867122262111543e+01 4.3408068702419207e+01 1 1 -1
3206 1 3.5331197111579495e+00 1.6080959670995931e+01 4.4133970579916756e+01 2 1 1
1422 1 2.3830811808611032e+00 1.8364162350391830e+01 4.2860881239789329e+01 1 0 -1
1165 1 4.1948137422267857e+00 2.1793588478531333e+01 4.1661061829139456e+01 0 -1 0
2623 1 3.6744416321872815e+00 2.0449131749660658e+01 4.3900088508424730e+01 2 2 -5
428 1 4.0721970838768522e+00 2.5880134321273971e+01 4.3726672109261315e+01 1 -2 -1
3532 1 1.8900996591771628e+00 2.6535285289287945e+01 4.2212135262964878e+01 1 0 1
2932 1 1.4500819988430453e+00 3.0349524672283266e+01 4.4214232518494804e+01 1 -1 -2
3251 1 3.6335423074083288e+00 3.3639760492710465e+01 4.2502042417659922e+01 -1 -1 0
3212 1 2.2837547057027670e+00 3.5128009076694767e+01 4.4091612498974435e+01 1 0 3
2871 1 3.5252024160760973e+00 3.7465818616677815e+01 4.4476697115746333e+01 1 -1 0
3084 1 1.3388447990858785e+00 6.7917820826065531e+00 5.1137036816718826e+01 0 -1 1
1865 1 2.3310347440432594e-01 5.0148405890573088e+01 2.5887012144797268e+01 1 -3 0
3415 1 9.9555170342522703e-01 4.0807656647095804e+01 4.2121350509035565e+01 2 -3 0
3726 1 8.6149067502753329e-01 4.4051101692216939e+01 4.3768367894896933e+01 -1 -2 -1
3834 1 3.1064978168890036e+00 4.2719715163201762e+01 4.2715515498629173e+01 0 1 0
1844 1 2.2090043360557114e+00 4.6293549441740872e+01 4.4372858972765059e+01 0 0 -1
3442 1 2.7445611421956597e+00 4.7720528363224155e+01 4.2325943280291646e+01 2 0 -1
3338 1 4.1901581719646650e+00 4.9826809103269703e+01 4.3007126801010848e+01 3 1 0
3761 1 3.7425095973660607e+00 2.8976716651704608e+00 4.5614480161996909e+01 1 0 -2
1472 1 2.0429423596739773e+00 4.2101470302734150e+00 4.6974847261969799e+01 1 -1 -2
640 1 3.6426195604047220e+00 6.7271371682457382e+00 4.7587990190853958e+01 -2 0 1
2887 1 4.0858735629340419e+00 8.1268969119137004e+00 4.5208617596479193e+01 2 1 -4
3509 1 3.9803079041979403e+00 1.2032000304217556e+01 2.2651057492849279e+01 3 0 1
194 1 3.8512323618159598e+00 1.1528962158184102e+01 4.7681818003337135e+01 -1 0 1
527 1 1.3783225955276941e+00 1.2341202131743367e+01 4.5770697818688866e+01 0 1 -2
758 1 3.5349470522775217e+00 1.6159134763789343e+01 4.6733789325258016e+01 0 -1 0
3030 1 9.7954816624406382e-01 1.6379902152751761e+01 4.7698118765102159e+01 2 0 -1