
# Set production fixes - Nose/Hoover
#
fix                 4 water temp/csvr ${START_TEMP} ${END_TEMP} 500.0 928347
fix                 4 water temp/csvr 235 ${END_TEMP} 500.0 928347
fix                 4 water temp/csvr 235 225 500.0 928347


## divide "droplet" into core and surface
#region		core_reg cylinder z 135 135 44.6 20 INF units box
#region		surface_reg cylinder z 135 135 44.6 20 INF units box side out
#group		core dynamic all region core_reg
#group		surface dynamic all region surface_reg

## compute pressure core
#compute        peratom_core core stress/atom NULL
#compute        p_core core reduce sum c_peratom_core[1] c_peratom_core[2] c_peratom_core[3]
#variable       press_core equal -(c_p_core[1]+c_p_core[2]+c_p_core[3])/(3*1249982.5)


## compute pressure surface
#compute        peratom_surf surface stress/atom NULL
#compute        p_surf surface reduce sum c_peratom_surf[1] c_peratom_surf[2] #c_peratom_surf[3]
#variable       press_surf equal -(c_p_surf[1]+c_p_surf[2]+c_p_surf[3])/(3*42395)

## compute total pressure of drop
compute        peratom water stress/atom NULL
compute        p water reduce sum c_peratom[1] c_peratom[2] c_peratom[3]
variable       press equal -(c_p[1]+c_p[2]+c_p[3])/(3*58187)


# compute order parameter
compute        3 all orientorder/atom nnn NULL cutoff 3.5

# compute center of mass of bridge
compute 	4 water com

# Run simulation
thermo_style        custom step c_2 press vol etotal ke pe v_press c_1[4] c_4[*]
thermo              200
dump		     1 water custom 400 ${DIR}/prod.${NAME}.dump id type x y z vx vy vz c_3[*] c_peratom[*]
dump		     1 water custom 400 run_5/prod.${NAME}.dump id type x y z vx vy vz c_3[*] c_peratom[*]
dump		     1 water custom 400 run_5/prod.ibeam_cooling_5.dump id type x y z vx vy vz c_3[*] c_peratom[*]
run                 ${STEPS}
run                 4000000
Neighbor list info ...
  update every 1 steps, delay 0 steps, check yes
  max neighbors/atom: 2000, page size: 100000
  master list distance cutoff = 6.6747184
  ghost atom cutoff = 6.6747184
  binsize = 3.3373592, bins = 24 22 12
  2 neighbor lists, perpetual/occasional/extra = 1 1 0
  (1) pair sw, perpetual
      attributes: full, newton on
      pair build: full/bin/atomonly
      stencil: full/bin/3d
      bin: standard
  (2) compute orientorder/atom, occasional, copy from (1)
      attributes: full, newton on
      pair build: copy
      stencil: none
      bin: none
Per MPI rank memory allocation (min/avg/max) = 6.105 | 6.738 | 7.323 Mbytes
Step c_2 Press Volume TotEng KinEng PotEng v_press c_1[4] c_4[1] c_4[2] c_4[3] 
       0    233.78792   -372.13761       229892   -22591.189    1662.0526   -24253.241    -892.2822    30.837489    39.435572    35.566685     26.74887 
     200    233.81384    -438.2076       229892   -22595.502    1662.2368   -24257.739   -1140.8695    32.331757    39.438023    35.566904    26.766695 
     400    235.59343   -368.23334       229892   -22589.002    1674.8883    -24263.89   -901.42823    32.915451    39.438763    35.566596    26.777736 
     600    239.61084   -440.25021       229892   -22499.675    1703.4491   -24203.124    -1203.796    34.181367    39.437881    35.568353    26.748757 
     800    240.15892   -331.28103       229892   -22474.554    1707.3455     -24181.9   -741.78322    34.675054    39.440159    35.570444    26.733418 
    1000    234.55028   -282.97336       229892   -22558.559    1667.4724   -24226.031   -553.87301    35.727753    39.440474    35.570265    26.748546 
    1200    234.75031   -421.17766       229892   -22541.936    1668.8944    -24210.83   -1129.2443    36.977296    39.439279    35.568838     26.73211 
    1400    234.94519   -440.73496       229892   -22584.279    1670.2798   -24254.559   -1208.1273    37.874086    39.437324    35.569741    26.734651 
    1600    233.56532     -253.812       229892   -22575.267    1660.4701   -24235.737   -421.11124     38.98648    39.435032     35.56947    26.751525 
    1800    235.11631   -348.07597       229892   -22527.198    1671.4964   -24198.695   -833.49525    40.023392    39.434989    35.568866    26.731617 
    2000    237.12699   -332.61601       229892    -22473.74    1685.7908   -24159.531   -760.72307    41.788221    39.436556    35.569421    26.723914 
    2200    234.14485   -345.59267       229892   -22560.786    1664.5901   -24225.376    -812.9825    43.013644    39.435394    35.568902    26.710504 
    2400    237.41801   -308.93325       229892   -22529.279    1687.8597   -24217.139   -636.63761    44.638293    39.432921    35.569906    26.715126 
    2600    235.46823   -315.38734       229892   -22598.052    1673.9983    -24272.05   -679.26898    46.120946    39.433947     35.56819    26.731901 
    2800    238.14982   -491.09892       229892   -22525.152    1693.0623   -24218.214   -1366.5757    47.627893    39.431528    35.568367    26.742043 
    3000    239.86088   -423.71926       229892   -22510.061    1705.2267   -24215.288   -1070.8178    49.790091    39.428814    35.567999    26.745029 
    3200    233.49246   -382.68367       229892   -22551.939     1659.952   -24211.891   -959.96343    51.254308    39.428104    35.568658    26.777174 
    3400    233.62503   -124.81179       229892   -22563.617    1660.8945   -24224.512    49.410011    52.322376    39.426427    35.570301    26.809627 
    3600    232.34787   -425.52985       229892    -22579.75    1651.8149   -24231.565    -1112.199    53.285461    39.424997    35.571641    26.810912 
    3800    236.29374   -414.58306       229892   -22548.293     1679.867    -24228.16   -1100.4339    54.265305    39.422846    35.572482    26.810578 
    4000    233.57325   -187.34081       229892   -22621.787    1660.5264   -24282.313   -235.10025    55.228292      39.4231    35.572889    26.815604 
    4200    238.07474   -247.30451       229892   -22587.574    1692.5286   -24280.102   -413.38396    55.703191    39.423377    35.574114    26.811889 
    4400    233.57031    -388.4909       229892   -22610.104    1660.5055    -24270.61   -981.57041    57.424026    39.422979    35.576192    26.801899 
    4600    231.69751   -457.26182       229892   -22684.698    1647.1914    -24331.89   -1221.9357    58.940789    39.423245    35.577723    26.780366 
    4800    235.72484   -499.57529       229892   -22565.993    1675.8226   -24241.816   -1394.8674    60.737248    39.423224    35.579211    26.772108 
    5000    235.00158   -447.34348       229892    -22577.67    1670.6808   -24248.351   -1231.7659    62.351223    39.423063      35.5809    26.766009 
    5200    236.65192   -246.10981       229892   -22567.923    1682.4134   -24250.336    -397.9896     63.58745    39.427027    35.579744    26.744173 
    5400      235.803   -261.09608       229892   -22621.525    1676.3782   -24297.903   -446.91327    65.446345     39.42643    35.580311    26.718941 
    5600    237.05302   -394.13401       229892   -22610.769    1685.2649   -24296.034    -968.3639    66.077987    39.425382    35.580637    26.706545 
    5800    231.27517   -250.19444       229892   -22576.969    1644.1888   -24221.158   -453.73569    66.825394    39.425412    35.580037    26.703584 
    6000    231.55106   -301.11675       229892   -22608.907    1646.1502   -24255.057   -631.84442     69.15869    39.428536    35.581293    26.714433 
    6200    237.34764   -294.23939       229892   -22640.998    1687.3594   -24328.357   -619.28693    70.491599    39.427801     35.57843    26.732012 
    6400     233.7797   -258.24997       229892   -22621.134    1661.9941   -24283.128   -458.10214    71.199316    39.429338     35.57636    26.729906 
    6600     231.9576   -578.26473       229892   -22605.364    1649.0404   -24254.404   -1701.3911    71.869784    39.428708    35.576766     26.72689 
    6800    238.08772   -286.86007       229892   -22611.506    1692.6208   -24304.126   -585.72933    73.574213    39.427333    35.573753    26.709175 
    7000    240.43312   -308.98252       229892    -22558.09    1709.2949   -24267.385   -645.99091    74.053214    39.427869    35.572703    26.728045 
    7200    227.23277   -264.91495       229892    -22648.51    1615.4505   -24263.961   -460.43528    75.729636    39.423755    35.572891    26.733611 
    7400    232.80896   -528.74826       229892   -22613.801    1655.0929   -24268.893   -1497.4026    76.345964    39.421007      35.5724    26.737472 
    7600    241.42046   -255.32035       229892   -22551.914     1716.314   -24268.228   -476.38216    76.891094    39.420149    35.571079     26.75666 
    7800    230.45547   -234.29561       229892    -22667.62    1638.3614   -24305.982   -363.50149    77.403002    39.420295    35.570728    26.766046 
    8000    238.92686   -405.78783       229892    -22519.68    1698.5864   -24218.267   -1010.1919    79.046295    39.419476    35.569541    26.768449 
    8200    233.71456   -263.92915       229892   -22536.341     1661.531   -24197.873   -492.86692    79.533024    39.420321    35.566193    26.787746 
    8400    236.99049   -386.28068       229892   -22502.368    1684.8203   -24187.188   -995.41928    80.422318     39.41791    35.564856     26.77395 
    8600    236.86646   -391.91271       229892   -22568.249    1683.9386   -24252.188   -1014.7405     82.19359    39.417718    35.563807    26.795925 
    8800    227.57375   -448.57796       229892   -22592.688    1617.8746   -24210.562   -1226.3057    83.096921    39.418343    35.563021     26.81128 
    9000    236.75115   -459.93314       229892   -22568.879    1683.1188   -24251.998   -1224.2947    84.501249    39.417649    35.564711    26.796703 
    9200    239.48886   -452.37204       229892   -22489.574    1702.5819   -24192.155    -1220.576    85.293531    39.418212    35.566226    26.808694 
    9400    247.80143   -406.57255       229892   -22546.362    1761.6778   -24308.039   -1059.4071     86.35219    39.419235    35.566136    26.822865 
    9600    237.92085    -384.8915       229892   -22577.129    1691.4345   -24268.564   -928.62835    87.127339    39.420395    35.568248    26.829009 
    9800    238.30889   -502.65904       229892    -22506.59    1694.1932   -24200.783   -1416.8722    89.906311    39.422168    35.568585    26.826813 
   10000    232.36515   -410.53215       229892   -22575.351    1651.9378   -24227.289   -1064.4043    91.129337    39.422964    35.568171    26.833716 
   10200     240.3821   -176.02362       229892   -22526.278    1708.9321    -24235.21   -149.20358    91.627657    39.423102    35.563946    26.818991 
   10400    237.95659   -263.53559       229892   -22522.577    1691.6886   -24214.265   -474.67814    92.263825    39.422577    35.563614    26.825023 
   10600    232.00105   -325.04776       229892   -22602.366    1649.3493   -24251.715   -707.37339    93.197397    39.421606    35.562151    26.828917 
   10800    237.07907    -325.0886       229892    -22644.48    1685.4501    -24329.93   -668.46704     94.09252    39.421362    35.562597     26.83135 
   11000    239.16736   -320.79108       229892   -22674.581    1700.2962   -24374.877   -752.70682    95.130227    39.422349    35.561682    26.827914 
   11200    232.50562    -468.3942       229892   -22672.571    1652.9364   -24325.507   -1286.0605    95.926811    39.420915    35.560081    26.831075 
   11400    236.22211   -364.16219       229892   -22645.785    1679.3578   -24325.143   -879.51905    97.423887    39.418561    35.558142    26.819767 
   11600    238.73287   -275.24563       229892    -22566.66    1697.2073   -24263.867   -564.46678    98.382396    39.417057    35.557991    26.814678 
   11800    244.03558   -383.07103       229892   -22568.799    1734.9055   -24303.705   -888.63934    100.32463    39.416673    35.560012    26.806844 
   12000    240.63567   -309.15329       229892   -22579.477    1710.7348   -24290.212   -653.15633     99.93614    39.416921    35.558348    26.808018 
   12200    236.47186   -299.13642       229892   -22577.445    1681.1333   -24258.578   -641.71827    100.39942    39.417134    35.559238    26.792878 
   12400     238.1095   -556.78506       229892   -22618.672    1692.7757   -24311.448   -1661.7567    102.21087    39.417595    35.561687    26.781866 
   12600    233.33902    -429.2484       229892   -22525.498    1658.8612   -24184.359   -1146.0366    102.65775    39.417766    35.560087    26.788559 
   12800    230.89108   -402.19457       229892   -22530.138    1641.4583   -24171.596   -1034.9866    103.83343    39.417829    35.561077    26.799529 
   13000    229.76921   -306.37359       229892   -22536.592    1633.4826   -24170.075   -679.21504    104.96164    39.419175    35.559404    26.799099 
   13200    229.08568   -202.52957       229892   -22570.335    1628.6232   -24198.958   -229.98458     105.8148     39.41981    35.559635    26.800651 
   13400    232.72438   -451.68086       229892   -22632.514    1654.4916   -24287.006   -1260.7169    107.07798    39.421605    35.561697    26.802821 
   13600    233.91623   -346.84447       229892   -22581.747    1662.9648   -24244.712    -788.9825    108.12029    39.420289    35.562804    26.789346 
   13800    236.98785   -383.61218       229892   -22525.098    1684.8016     -24209.9   -973.79428     109.9447    39.421251    35.561767    26.802305 
   14000    232.66747   -495.49192       229892   -22437.599     1654.087   -24091.686   -1391.3448    109.96784    39.423008    35.562838    26.780896 
   14200    237.06771   -461.89762       229892   -22512.051    1685.3693    -24197.42   -1266.2845    110.65484    39.423705    35.564013    26.772353 
   14400    229.29232   -73.917767       229892   -22581.104    1630.0923   -24211.196     289.7684    110.47202    39.427469     35.56485    26.757213 
   14600    230.65211   -221.36782       229892   -22551.272    1639.7594   -24191.031   -369.76303    112.43487     39.43248    35.565477    26.760529 
   14800    239.21912   -472.69302       229892   -22482.095    1700.6642   -24182.759   -1316.7955    114.06494    39.431992     35.56637    26.759795 
   15000    237.93199   -497.80513       229892   -22555.103    1691.5137   -24246.617   -1398.3655    114.48955    39.431524      35.5658    26.757793 
   15200    237.65908   -449.06323       229892   -22512.316    1689.5736    -24201.89   -1161.4724    115.82564    39.430521    35.567488    26.747955 
   15400    235.35455    -463.5813       229892   -22574.541    1673.1901   -24247.731    -1269.291    117.48035    39.429719    35.569406    26.734024 
   15600    242.41054   -318.99197       229892   -22470.782    1723.3528   -24194.135   -699.01619    118.16363    39.430073    35.568206     26.74464 
   15800    244.15401   -391.01275       229892   -22486.012    1735.7475    -24221.76   -943.07279    117.88583     39.42933     35.56784    26.749959 
   16000    234.77324   -350.48887       229892   -22507.289    1669.0574   -24176.346   -795.75805    119.30254    39.426816    35.569222    26.727288 
   16200    234.13184   -361.46179       229892   -22464.812    1664.4976    -24129.31   -865.55743    121.25962    39.424305    35.571645    26.727593 
   16400    237.37926   -430.97433       229892   -22482.477    1687.5842   -24170.061   -1177.6322    122.84855    39.422503    35.570596     26.73383 
   16600    239.02987   -360.36881       229892   -22458.513    1699.3188   -24157.832   -857.75273    123.26719     39.42153     35.56925    26.714092 
   16800    235.51707   -391.42149       229892   -22549.622    1674.3455   -24223.968   -1007.9632    124.57625    39.421404    35.569088    26.718642 
   17000    234.66397   -469.25526       229892   -22593.658    1668.2806   -24261.938   -1298.6911    125.96431    39.421752    35.572239    26.707295 
   17200    229.63201    -275.5142       229892   -22599.269    1632.5072   -24231.776   -534.94797    127.75009    39.420238    35.572017    26.717301 
   17400    226.64042   -467.69624       229892   -22690.657    1611.2393   -24301.896   -1280.9688    129.30449    39.415987    35.570043    26.716286 
   17600    235.27798   -439.46134       229892   -22583.512    1672.6458   -24256.158   -1149.6791    131.05894    39.413131    35.568803    26.740306 
   17800    235.34007   -220.01757       229892   -22602.557    1673.0871   -24275.644   -292.81612    131.42393    39.413303    35.568004     26.75358 
   18000    242.68706   -249.65704       229892   -22595.771    1725.3186   -24321.089   -422.24907    132.46766    39.412064    35.569731    26.762562 
   18200    235.48964   -366.48756       229892    -22606.44    1674.1505    -24280.59   -932.78559    133.81386    39.412959    35.569634    26.770835 
   18400    228.96531   -286.61116       229892   -22589.144    1627.7675   -24216.911   -569.74683    133.36203    39.414834    35.570612    26.771375 
   18600    234.86956   -200.90115       229892   -22592.759    1669.7422   -24262.501   -211.34315     131.4841     39.41458    35.570305     26.79228 
   18800    224.97316   -294.67939       229892   -22622.755    1599.3864   -24222.141   -625.42605    133.54686    39.415649    35.568304    26.795415 
   19000    235.90333   -352.93375       229892   -22568.749    1677.0915   -24245.841   -894.67207    135.15223    39.414505    35.565752    26.805969 
   19200     238.0354   -416.95902       229892   -22561.319    1692.2489   -24253.568   -1100.3456    136.55568       39.414    35.565313    26.819409 
   19400    237.96027   -512.98003       229892   -22521.391    1691.7147   -24213.105   -1503.6953    136.30476     39.41556    35.566597    26.803186 
   19600    238.13372    -234.1134       229892   -22573.675    1692.9478   -24266.623   -371.65175     137.2655    39.414134     35.56554    26.778618 
   19800    238.32494   -407.09934       229892   -22579.513    1694.3072   -24273.821   -1069.5871    138.97957    39.412815    35.568377    26.786048 
   20000    238.06454   -319.61733       229892   -22583.144    1692.4561     -24275.6   -707.59369    139.05749    39.412572     35.56987    26.785188 
   20200    240.67542   -460.70379       229892   -22639.782    1711.0174   -24350.799   -1237.3227    140.43228    39.413613    35.571422    26.800128 
   20400    234.14841    -411.8859       229892    -22557.66    1664.6154   -24222.275   -1029.1002    141.13918     39.41442    35.573629    26.804809 
   20600    235.93404   -425.97663       229892   -22617.901    1677.3098   -24295.211   -1089.5644    142.11192     39.41485    35.573476    26.779136 
   20800    241.85121   -355.61651       229892   -22557.207    1719.3764   -24276.583   -811.51696    144.18369    39.411736    35.573736    26.783352 
   21000     232.0983   -255.74666       229892   -22516.611    1650.0406   -24166.651   -473.82881    143.82112    39.409043    35.573368     26.77598 
   21200    235.25286   -519.86125       229892   -22486.515    1672.4672   -24158.982   -1532.8661    145.87199    39.407537    35.572358    26.780832 
   21400    234.65474    -371.2428       229892   -22503.391     1668.215   -24171.606   -916.48885    146.68659    39.406869    35.574795    26.780088 
   21600    240.44929    -296.3124       229892    -22435.26    1709.4098    -24144.67   -592.10432    148.83927    39.405785    35.576846    26.768967 
   21800    229.86582   -351.00131       229892   -22542.919    1634.1695   -24177.088   -823.11845    148.71952    39.406398    35.575621    26.762707 
   22000    228.37047   -149.03673       229892   -22608.687    1623.5386   -24232.226    -62.61504    149.81873     39.40555    35.575634    26.767376 
   22200    230.64195   -402.27033       229892   -22640.068    1639.6871   -24279.755   -1038.2813     150.4518    39.403185    35.574726    26.760062 
   22400    241.84137   -249.76583       229892   -22489.962    1719.3064   -24209.268   -457.63069     152.2359    39.402736    35.574471    26.769158 
   22600    228.44267   -360.92962       229892   -22525.145    1624.0519   -24149.197   -896.12457    152.82734    39.401588    35.571833    26.761078 
   22800    241.69581   -365.21476       229892   -22515.277    1718.2716   -24233.549   -877.55655    153.86267    39.402996    35.570576    26.760318 
   23000    230.84915   -228.89161       229892   -22592.274    1641.1602   -24233.434   -364.42484    154.92048    39.404117    35.569994    26.778769 
   23200    234.57901   -202.53439       229892   -22524.847    1667.6766   -24192.524   -249.32766    156.48082    39.406606    35.569477      26.7732 
   23400     235.3324   -208.30563       229892    -22518.12    1673.0327   -24191.152   -307.38491    156.25737    39.407279    35.570576    26.771264 
   23600    236.06685   -309.13243       229892   -22450.187     1678.254   -24128.441   -659.45313    157.70833    39.404798    35.570915    26.764508 
   23800    230.56978   -289.88208       229892   -22461.203     1639.174   -24100.377   -626.72936    158.56497    39.403272    35.568818    26.776071 
   24000    234.71325    -279.3024       229892   -22467.344    1668.6309   -24135.975   -557.27152    161.15718    39.405242     35.56891       26.754 
   24200    235.86694   -289.18763       229892    -22467.59    1676.8328   -24144.423   -604.08389    162.97237    39.404317    35.568017    26.743584 
   24400    228.41402   -437.59882       229892   -22518.106    1623.8482   -24141.954   -1216.9663    164.43392    39.402948    35.568869    26.759922 
   24600    227.61685   -354.82536       229892   -22536.462     1618.181   -24154.643   -886.79449    166.19864    39.404255    35.566164    26.768635 
   24800    229.29575   -276.73508       229892   -22519.417    1630.1167   -24149.533   -557.21518    167.11109     39.40446    35.564572    26.739147 
   25000    235.97936   -390.25506       229892   -22562.007     1677.632   -24239.639   -1054.8111    167.57169    39.405477    35.564449    26.747259 
   25200    226.35331   -450.41826       229892   -22712.355    1609.1982   -24321.553   -1217.0461    170.20674    39.406973    35.567879    26.758057 
   25400    233.84423   -275.87847       229892   -22573.636    1662.4529   -24236.089   -501.06715    171.53294    39.406114    35.566963    26.758741 
   25600    240.64162   -283.53761       229892   -22471.682    1710.7771   -24182.459   -627.88348    173.08538     39.40638    35.567588    26.754725 
   25800    235.89492   -346.05884       229892     -22507.8    1677.0317   -24184.832   -865.46066    173.38196    39.405638    35.567469    26.723221 
   26000    239.27255   -249.30771       229892   -22574.434    1701.0441   -24275.478   -431.73256    173.85224    39.403488    35.566737    26.718505 
   26200    231.42913   -365.70394       229892   -22554.637    1645.2834    -24199.92   -888.26787    174.18114    39.402998    35.565954    26.724338 
   26400    231.90167   -283.94178       229892   -22601.831    1648.6428   -24250.474   -527.72935    175.39934    39.402811     35.56706     26.72123 
   26600    240.69127   -313.83387       229892    -22559.06      1711.13    -24270.19   -669.84269    177.00503    39.403029    35.568541       26.729 
   26800    237.57475   -333.13963       229892   -22599.756     1688.974    -24288.73   -719.63367    177.08087    39.403748    35.569834    26.724487 
   27000    238.70281   -239.90496       229892   -22530.482    1696.9936   -24227.476   -390.25551    177.29575    39.401624    35.572584    26.743879 
   27200    237.50454   -229.37089       229892   -22562.073    1688.4749   -24250.548    -317.2979    178.63221    39.402773    35.572526    26.740058 
   27400    243.51732   -364.69262       229892   -22511.745    1731.2211   -24242.967   -906.93966    180.34497    39.402858    35.573243     26.73577 
   27600    228.56321    -403.4761       229892   -22663.841    1624.9089    -24288.75   -1023.6468    181.35514    39.404359    35.573722    26.740476 
   27800    240.01165   -256.37791       229892    -22542.31    1706.2985   -24248.609   -500.30263    182.80335    39.406193    35.574654    26.728689 
   28000    230.32205    -650.7418       229892   -22641.903    1637.4129   -24279.316   -2022.7518    184.45994    39.407057    35.573271    26.739431 
   28200    232.23628    -532.7017       229892   -22621.529    1651.0216   -24272.551    -1529.186    185.09641    39.407928    35.573483     26.75684 
   28400    238.39445   -337.70655       229892   -22644.081    1694.8014   -24338.883   -772.93395    185.57917    39.408321    35.574056    26.743339 
   28600    230.23478   -389.35691       229892   -22650.058    1636.7925    -24286.85   -984.84911    186.98006    39.409024    35.573731     26.74066 
   28800    230.60596   -280.07935       229892   -22663.182    1639.4313   -24302.613   -544.55147    187.32072    39.407652    35.571684    26.709281 
   29000    228.99457   -372.91453       229892   -22611.025    1627.9755   -24239.001   -884.05928    187.68955    39.405598    35.572487    26.719657 
   29200    234.61207   -355.63389       229892   -22586.539    1667.9116    -24254.45   -833.35372     188.5938    39.407227    35.572986    26.720378 
   29400    230.41546   -422.74091       229892   -22580.836    1638.0769   -24218.913   -1081.2949    189.31368    39.408063    35.573093    26.715133 
   29600    234.31435   -250.51633       229892   -22579.813    1665.7951   -24245.608   -415.24422    191.71894    39.410303    35.572168     26.73832 
   29800     231.9054   -358.57287       229892   -22649.493    1648.6693   -24298.162   -859.50636    192.27992    39.408715    35.572702    26.750778 
   30000    226.43383   -389.00327       229892   -22688.625    1609.7706   -24298.396   -982.58183    193.67086    39.406989    35.573825    26.751995 
   30200    235.25018   -419.31023       229892   -22569.808    1672.4481   -24242.256   -1077.0548    194.94004    39.407037    35.575999    26.770598 
   30400     237.3034   -496.18475       229892   -22595.962    1687.0449   -24283.007   -1427.8828    193.59446    39.406604    35.577036    26.779353 
   30600    228.87823   -395.58601       229892    -22645.44    1627.1484   -24272.588    -1033.523     194.1193    39.405602    35.577568    26.776881 
   30800    235.28663   -340.45059       229892   -22610.523    1672.7073   -24283.231   -815.24425    195.30302    39.406522    35.575315    26.782701 
   31000    234.94203   -268.64978       229892   -22593.268    1670.2574   -24263.525   -509.10628    197.95636     39.40496    35.574622    26.773397 
   31200    232.40287   -231.48096       229892   -22568.259    1652.2059   -24220.465   -381.48547    197.95862    39.402605    35.573653    26.789631 
   31400    240.46052    -354.2974       229892    -22526.93    1709.4896    -24236.42   -829.16253    199.04779    39.399079    35.574321    26.785616 
   31600    236.46055   -411.54202       229892   -22548.301    1681.0529   -24229.354   -1039.7793    200.92014    39.397972    35.572737    26.777138 
   31800    242.48709    -309.0217       229892       -22468     1723.897   -24191.897   -654.92401    201.97339    39.397499    35.572082    26.799074 
   32000     233.6166   -253.99782       229892   -22569.731    1660.8346   -24230.565   -407.22035    201.97547    39.399299    35.573847    26.827253 
   32200    233.18875   -374.56789       229892   -22579.283    1657.7929   -24237.076   -921.37627    202.95215    39.398711    35.576412    26.821544 
   32400    228.45842   -471.80368       229892   -22568.125    1624.1639   -24192.289   -1308.3236    203.64667    39.399152    35.573734     26.81703 
   32600    237.76811   -353.73642       229892   -22503.087    1690.3487   -24193.436   -848.79621    204.88564    39.398816    35.571104    26.830388 
   32800    236.92669   -338.11826       229892   -22512.282    1684.3668   -24196.649   -786.77442    205.81398    39.400332    35.572649    26.817117 
   33000    238.69404   -373.95057       229892   -22534.531    1696.9313   -24231.462   -941.49688    207.42211    39.401527    35.573252    26.828477 
   33200    230.52465    -254.6701       229892   -22517.246    1638.8532   -24156.099   -449.00288    208.61904    39.403065    35.572053    26.853225 
   33400    233.01115   -343.29502       229892   -22569.999    1656.5303   -24226.529   -791.70295    208.90221    39.403895    35.573697    26.859147 
   33600     234.6007   -260.55924       229892   -22553.351    1667.8308   -24221.182   -443.14146     211.4018    39.406131    35.571347    26.853357 
   33800    239.09823   -380.35324       229892   -22406.855    1699.8048    -24106.66   -937.60277     211.8769    39.406816    35.570721     26.84735 
   34000    235.15438   -175.62603       229892   -22513.674     1671.767   -24185.441   -145.73098    212.53153    39.404248     35.57031    26.851307 
   34200    233.45012   -313.19882       229892   -22502.302    1659.6511   -24161.953   -614.40781    211.03904    39.404595    35.573225    26.856536 
   34400    235.58403   -343.95781       229892   -22557.218    1674.8215    -24232.04   -829.39686    212.96818    39.405649     35.57723    26.882123 
   34600    242.16967   -229.40144       229892    -22430.64    1721.6403    -24152.28    -336.3189    213.40001    39.406625    35.579018    26.888296 
   34800    237.99984   -393.66212       229892   -22518.239     1691.996   -24210.235    -991.5403    214.94665    39.406445    35.581411    26.906842 
   35000      230.561   -378.29438       229892   -22584.191    1639.1116   -24223.303   -955.31598    215.56073    39.406351    35.582534    26.914898 
   35200    234.64918    -256.7317       229892   -22520.899    1668.1754   -24189.074   -450.54751    216.58683    39.406558    35.583427    26.896911 
   35400    232.56273   -337.60227       229892   -22549.969    1653.3424   -24203.311   -765.64744    216.35966    39.406033    35.582192    26.912337 
   35600    237.68688   -339.69276       229892   -22560.984    1689.7712   -24250.755   -751.58042    216.39645    39.403677     35.58084    26.900898 
   35800    243.02605    -360.6177       229892   -22466.794    1727.7285   -24194.523   -808.17713    218.22885    39.400665    35.582485    26.877317 
   36000    233.11908   -260.23092       229892   -22607.198    1657.2976   -24264.496   -484.86667    219.04164    39.401415    35.584453    26.854556 
   36200    230.37003   -361.10768       229892    -22633.15     1637.754   -24270.904   -854.78006    218.92199      39.4025    35.585158    26.865079 
   36400    233.09143   -491.03192       229892   -22569.494    1657.1011   -24226.596   -1420.6812    219.27853    39.403342     35.58527    26.859064 
   36600    233.13642   -472.07885       229892   -22542.211    1657.4209   -24199.632   -1328.2824     221.8094    39.403301    35.584112    26.851865 
   36800    229.50026   -588.11155       229892   -22593.514    1631.5706   -24225.085   -1719.3069    222.92734    39.402966    35.586035    26.845174 
   37000    233.49969    -331.7021       229892   -22591.571    1660.0034   -24251.574   -707.60225    224.42388     39.40205    35.587914    26.848788 
   37200    231.58981   -112.68762       229892   -22607.661    1646.4257   -24254.087    119.08973    224.17764    39.401226    35.587939    26.837518 
   37400    235.62098   -399.69012       229892   -22613.635    1675.0842   -24288.719   -999.46381     224.8338    39.400748    35.587926    26.837525 
   37600    229.26998   -470.48231       229892   -22621.456    1629.9335   -24251.389   -1272.2421     225.3023    39.402193    35.587272    26.842355 
   37800    232.74266   -371.37218       229892   -22652.042    1654.6216   -24306.664   -911.54418    225.37811    39.403007    35.585349    26.834741 
   38000     237.6376   -447.73226       229892   -22530.354    1689.4208   -24219.775   -1241.8419    226.73498    39.401476    35.584966     26.85883 
   38200    231.09916   -255.52036       229892   -22524.553    1642.9375   -24167.491   -432.88287    227.67392    39.403019    35.582689    26.866617 
   38400    238.22337   -448.88953       229892    -22465.54    1693.5852   -24159.125   -1216.9552    230.37986    39.404993    35.584438    26.892736 
   38600    234.26519   -406.52433       229892   -22534.964    1665.4456   -24200.409   -1022.3213      230.975    39.405215    35.586367    26.900297 
   38800      235.573   -392.09029       229892    -22489.79    1674.7431   -24164.533   -1024.7648    232.64348    39.403292    35.589212    26.901188 
   39000    233.36742   -343.56105       229892   -22463.231    1659.0631   -24122.294   -835.84059    232.51694    39.403637     35.58999     26.88047 
   39200    227.87189   -296.88721       229892   -22561.341    1619.9941   -24181.335   -598.60674    234.14791    39.405312    35.593072    26.877139 
   39400    240.17054   -200.24767       229892   -22560.056    1707.4281   -24267.484   -251.71691    235.40117    39.406779    35.593454    26.868158 
   39600    234.62546   -298.25642       229892   -22487.883    1668.0068    -24155.89   -616.46415    236.78723    39.408429    35.591674    26.868772 
   39800     231.5262   -333.45732       229892   -22559.868    1645.9734   -24205.842   -783.89035    238.34156    39.408178    35.592133    26.866982 
   40000    230.42889   -249.14708       229892   -22522.075    1638.1724   -24160.247   -417.28073    239.85804    39.408184    35.589922    26.868859 
   40200    230.49853   -497.52764       229892   -22552.335    1638.6675   -24191.003   -1403.2281    242.84644    39.407569    35.590482    26.865255 
   40400    226.27656   -311.19013       229892   -22612.359    1608.6526   -24221.012   -648.65546    242.05727    39.407257    35.591569     26.88266 
   40600    238.48084     -447.087       229892   -22504.696    1695.4156   -24200.112    -1200.909    243.70952    39.408049    35.590425    26.896392 
   40800    229.73704   -291.76457       229892   -22620.058    1633.2539   -24253.312   -597.11998    244.00862    39.409624    35.592213    26.898373 
   41000    235.58314   -334.67328       229892   -22613.613    1674.8152   -24288.428   -764.73425    245.76493    39.406048    35.592205    26.918259 
   41200    235.74397    -278.9587       229892   -22541.803    1675.9585   -24217.761   -579.34368    247.47388    39.404606    35.590572     26.91236 
   41400    242.16959   -423.49915       229892   -22570.731    1721.6398   -24292.371   -1145.0463    248.52842    39.402075    35.591777    26.923874 
   41600    234.61972   -443.17861       229892   -22552.333     1667.966   -24220.299   -1161.0152    249.00398    39.402775    35.592926    26.930978 
   41800    231.25187   -501.91803       229892   -22543.909    1644.0232   -24187.932    -1404.142    249.94006    39.401809    35.595904    26.922325 
   42000    232.16841   -135.69188       229892   -22560.859    1650.5391   -24211.398    4.3663889    247.73501    39.398005    35.597314    26.938124 
   42200    227.78763   -334.38695       229892   -22603.492    1619.3951   -24222.887    -763.4508    248.79039    39.396898    35.595734    26.939684 
   42400    236.37805    -364.4204       229892   -22550.126    1680.4664   -24230.592   -839.55207    248.85094    39.398279    35.595771    26.933735 
   42600    234.12386   -356.45091       229892   -22587.262    1664.4408   -24251.703   -877.20617    250.21738    39.398813    35.596743    26.910149 
   42800    238.52756   -234.40343       229892   -22530.727    1695.7477   -24226.475   -367.10325    250.05526    39.399602    35.597288    26.888594 
   43000    239.21525   -380.40581       229892    -22569.16    1700.6367   -24269.797   -936.02785    251.45462    39.398525    35.600147     26.90567 
   43200    238.28717   -364.00585       229892   -22587.809    1694.0388   -24281.848   -852.87579    253.14127    39.394528    35.601689    26.894007 
   43400    233.46944    -151.6926       229892   -22562.496    1659.7884   -24222.285     12.65159     254.6248    39.392827    35.598698    26.888424 
   43600    229.08128   -426.29703       229892   -22575.921     1628.592   -24204.513    -1133.438    256.99617    39.393661    35.596065    26.876864 
   43800    232.09731   -277.09188       229892   -22595.677    1650.0336   -24245.711   -502.52854    257.48803    39.394312     35.59733    26.886805 
   44000    231.98625   -322.62344       229892   -22644.156    1649.2441     -24293.4   -715.64642    258.23502    39.396002     35.59882    26.904052 
   44200    232.59749   -444.39211       229892   -22575.854    1653.5895   -24229.444   -1179.3821    260.18118    39.397342    35.597576    26.898749 
   44400    234.31505   -296.00388       229892   -22610.356       1665.8   -24276.156   -602.84252     261.0895    39.396867      35.5984    26.881023 
   44600    227.33479   -548.71872       229892   -22597.931    1616.1757   -24214.107   -1553.8371    259.89805    39.398606    35.599653    26.877704 
   44800    233.28285   -541.28944       229892   -22610.974    1658.4619   -24269.436   -1526.6777    259.80399    39.398077    35.597385    26.856412 
   45000    236.30533   -463.07773       229892   -22614.155    1679.9494   -24294.104   -1248.5676    260.94482     39.39522    35.596052    26.872381 
   45200    235.39964   -478.30858       229892   -22576.976    1673.5107   -24250.487   -1276.7568    262.72815    39.391976     35.59468    26.872352 
   45400    230.45302   -321.92317       229892   -22642.863     1638.344   -24281.207   -691.77137    261.85606    39.392989    35.591939    26.864531 
   45600    230.73968   -314.53708       229892   -22537.097    1640.3819   -24177.479   -657.40401    263.42349    39.394407    35.590761    26.853968 
   45800    228.06004   -399.54592       229892   -22569.718    1621.3317    -24191.05   -1008.3318    265.86605    39.395721    35.589963     26.86403 
   46000    241.26101   -317.71977       229892    -22495.32    1715.1805     -24210.5    -688.4194     267.8074    39.395548    35.588817    26.864385 
   46200    234.99799   -289.81293       229892   -22479.294    1670.6552    -24149.95   -561.97402    269.16644    39.395979    35.590125    26.858933 
   46400    237.20629   -330.85863       229892   -22539.944    1686.3545   -24226.298   -763.46089    271.14405    39.395326    35.591544    26.866406 
   46600    237.75663   -230.90104       229892   -22559.168     1690.267   -24249.435   -398.47303    272.18891    39.394277    35.589541    26.869263 
   46800     235.4944   -248.08084       229892   -22558.421    1674.1843   -24232.606   -389.72748    274.22333    39.392448    35.589375    26.855542 
   47000    231.70139   -127.09543       229892   -22529.028    1647.2189   -24176.247    97.884268    275.73694     39.39308    35.589719    26.873943 
   47200      234.678   -305.01844       229892   -22620.651    1668.3803   -24289.032   -650.45037    276.14677    39.391998    35.588223    26.898778 
   47400    232.62104   -274.54025       229892   -22562.758    1653.7569   -24216.515   -504.01326    278.14362    39.392468    35.586665    26.879198 
   47600    238.02159   -338.56724       229892    -22570.24    1692.1507   -24262.391   -792.91599    280.45912    39.391731    35.584462    26.871213 
   47800    233.99931   -543.38856       229892   -22577.577    1663.5554   -24241.132   -1560.4893    280.65178    39.391989    35.582552    26.870785 
   48000    233.59338   -294.30978       229892   -22559.044    1660.6695   -24219.714   -594.34769    280.76423     39.39419    35.583331    26.881093 
   48200    235.62656   -305.16123       229892   -22548.137    1675.1239   -24223.261   -666.03607    281.44175    39.394491    35.579833    26.865141 
   48400     233.0533   -440.21363       229892   -22537.385      1656.83   -24194.215   -1158.0213    282.68937    39.396218    35.578726    26.847923 
   48600    230.58917   -285.09753       229892   -22581.868    1639.3119   -24221.179   -579.01774    284.61426     39.39654    35.578217    26.841392 
   48800    230.21923   -444.91274       229892   -22571.125    1636.6819   -24207.807   -1162.3337    285.16725    39.396471    35.578459    26.867999 
   49000    234.02727   -409.11687       229892   -22591.472    1663.7542   -24255.226   -1092.1113    287.82594    39.395394    35.579397     26.85235 
   49200    236.02628   -369.93943       229892   -22528.822    1677.9655   -24206.787   -857.42908    289.26262    39.394985    35.578112    26.852747 
   49400    232.34007   -369.54887       229892   -22591.665    1651.7595   -24243.425   -890.40321    290.38403    39.395261    35.576374    26.821375 
   49600    235.95492   -521.60516       229892   -22577.314    1677.4583   -24254.772   -1461.8284    291.19618    39.392982    35.575813    26.818414 
   49800    241.84856   -455.26672       229892    -22587.18    1719.3575   -24306.537   -1182.4423    290.83863    39.392149    35.573676    26.792809 
   50000    228.63299   -532.65147       229892   -22616.139     1625.405   -24241.544    -1521.247    293.82735    39.390575    35.572401    26.791155 
   50200    234.25185   -248.17658       229892   -22540.625    1665.3508   -24205.976   -417.41015    293.22961    39.392278    35.574524     26.79074 
   50400    231.99431    -296.6531       229892   -22562.688    1649.3014    -24211.99   -546.02049    294.97612    39.390707     35.57503    26.789189 
   50600    242.90462   -379.61488       229892   -22466.953    1726.8653   -24193.818   -970.67695    295.94449    39.390364    35.573441      26.7868 
   50800    230.50431   -299.04053       229892   -22666.113    1638.7086   -24304.822   -595.46075    296.16042     39.39223    35.572468    26.795952 
   51000    235.84164   -551.74901       229892   -22598.001    1676.6529   -24274.654   -1602.1748    296.08953    39.394319    35.574797    26.783888 
   51200    231.00873   -344.89054       229892   -22622.537    1642.2946   -24264.831   -796.92421    296.99721    39.393645     35.57634    26.785034 
   51400    234.39781   -433.52292       229892   -22608.633    1666.3884   -24275.021   -1142.0525    298.36792    39.393959    35.578766    26.798851 
   51600    234.43703   -392.36296       229892   -22640.485    1666.6672   -24307.152   -964.87115    299.65505    39.392421     35.58219     26.80528 
   51800    241.08735   -265.87283       229892   -22620.232    1713.9459   -24334.177   -493.54415    301.84271    39.389008    35.583388    26.816852 
   52000    231.55723   -300.86554       229892   -22701.956    1646.1941    -24348.15   -623.20282      302.505    39.387743    35.583662    26.834432 
   52200     237.4578   -382.19489       229892   -22692.949    1688.1426   -24381.091   -893.04506    303.13936    39.386465    35.584365    26.827137 
   52400    230.78987   -475.62532       229892   -22742.037    1640.7387   -24382.776   -1314.9909    301.93914    39.386823    35.583869    26.816795 
   52600    230.99716   -221.42859       229892   -22654.159    1642.2124   -24296.372   -340.26566    303.26743    39.389123    35.582371    26.809996 
   52800    237.95564   -335.32697       229892   -22586.824    1691.6818   -24278.506   -733.91883    304.32415    39.388902    35.580393    26.806375 
   53000    241.71508   -416.97673       229892    -22585.13    1718.4086   -24303.539   -1046.1284    303.55293     39.38982    35.579346    26.814397 
   53200    228.53818   -235.36822       229892   -22673.067    1624.7309   -24297.798   -372.25089    305.55886    39.390237    35.576386      26.8376 
   53400    235.36515   -338.16854       229892   -22641.461    1673.2654   -24314.726   -793.37213    306.34865    39.390664    35.577684    26.860875 
   53600    231.49474   -518.09609       229892   -22722.944    1645.7498   -24368.694   -1460.7471    307.56131    39.388637    35.579679    26.845695 
   53800    229.22131   -355.47138       229892   -22687.284    1629.5875   -24316.871   -806.62298    309.70554    39.388674     35.58084     26.85161 
   54000    232.64861    -434.0503       229892   -22664.418    1653.9529   -24318.371   -1113.7027    309.88161    39.386829    35.580372    26.859923 
   54200    239.08057   -377.59149       229892   -22610.516    1699.6792   -24310.196   -883.02633    311.01013    39.385172    35.578666    26.860399 
   54400    234.00996   -374.80546       229892   -22554.895    1663.6311   -24218.527   -888.52328    312.42622    39.386483    35.577462    26.858115 
   54600    240.99283   -354.12207       229892   -22613.795    1713.2739   -24327.068   -869.58632    313.11572    39.386555    35.575369    26.872869 
   54800     239.5974   -322.60192       229892   -22577.232    1703.3535   -24280.585   -677.81363     313.4712    39.388149    35.573354    26.886836 
   55000    242.25474   -316.96838       229892   -22553.205    1722.2451    -24275.45   -656.63479    312.56967    39.389289    35.572204    26.891772 
   55200    228.86891    -418.2371       229892   -22653.153    1627.0822   -24280.235   -1069.1218    314.74465    39.389705    35.570162    26.887644 
   55400    236.44742   -341.82249       229892   -22615.768    1680.9596   -24296.728   -802.04101    316.95995    39.389312    35.570084    26.892452 
   55600    240.72833   -225.55054       229892   -22598.498    1711.3935   -24309.891   -301.38334    315.38918    39.390646    35.570575    26.866198 
   55800    240.57695   -350.11188       229892   -22497.416    1710.3173   -24207.734   -851.80805    314.31722    39.389884    35.569508    26.868787 
   56000     240.8436    -423.2816       229892   -22548.759     1712.213   -24260.972   -1092.2959    315.01763    39.391309    35.569023    26.858182 
   56200    236.08173   -361.67993       229892   -22556.909    1678.3598   -24235.269   -869.58879    314.41361    39.390295    35.568957    26.859438 
   56400     230.5802   -520.03295       229892   -22639.582    1639.2481    -24278.83   -1472.2597    315.35439    39.387322    35.570988    26.864105 
   56600    228.94014   -277.68285       229892   -22720.214    1627.5885   -24347.802   -520.07438    317.30254    39.388677    35.572438    26.861296 
   56800    235.22366   -271.71137       229892   -22662.076    1672.2596   -24334.336   -476.24862     317.1762    39.388573    35.572755    26.835473 
   57000    228.70575   -311.49494       229892   -22687.629    1625.9222   -24313.551    -644.6162    317.22144    39.388602    35.571918    26.835733 
   57200    235.57072   -436.19206       229892   -22575.027    1674.7269   -24249.753   -1106.3367    320.24711    39.388002    35.571154    26.835308 
   57400    232.94848   -250.09501       229892   -22617.089    1656.0848   -24273.174   -355.79124    320.62595     39.38623    35.570695    26.825288 
   57600    227.88805   -419.68757       229892   -22631.297     1620.109   -24251.406   -1061.1391    321.28453    39.384008    35.572193    26.828802 
   57800    234.35029   -470.44603       229892   -22629.204    1666.0506   -24295.255   -1297.2449    323.04034    39.381208    35.572544    26.821672 
   58000    233.34589   -354.06053       229892   -22651.063    1658.9101   -24309.974   -830.99331    323.67981    39.378726    35.572325    26.804734 
   58200     233.5327   -352.98563       229892   -22603.534    1660.2381   -24263.772   -793.10008    324.02512    39.378442    35.573948    26.793659 
   58400     234.5848   -48.564932       229892   -22649.366    1667.7177   -24317.083    377.46356    323.60007    39.378801    35.576151    26.792398 
   58600    234.58533   -441.35534       229892   -22658.759    1667.7215   -24326.481   -1199.9462    322.79139    39.379095    35.578614     26.78267 
   58800    225.59148   -511.27725       229892   -22636.509    1603.7821   -24240.292   -1452.1615    322.54802    39.379881    35.580737    26.779683 
   59000    236.84099   -342.52726       229892   -22583.659    1683.7575   -24267.417   -771.84511    322.33313    39.379812    35.580326    26.767793 
   59200    235.42382    -415.7906       229892   -22656.396    1673.6826   -24330.079   -1034.0681    323.91424    39.380009    35.580134    26.788751 
   59400     237.9163   -371.53245       229892   -22642.653    1691.4022   -24334.056   -913.94089    325.40029    39.382152    35.579569    26.769056 
   59600    235.30715   -252.04208       229892   -22700.651    1672.8531   -24373.504   -424.03439    325.66404    39.383098    35.578327    26.767274 
   59800    235.54853   -287.12195       229892   -22632.258    1674.5691   -24306.827   -540.09918    327.77013    39.384377    35.576072    26.769336 
   60000    237.40522   -468.30065       229892   -22616.695    1687.7688   -24304.463   -1252.3691    328.98177    39.387232     35.57245    26.764872 
   60200    238.92563   -161.43935       229892   -22625.886    1698.5777   -24324.464   -91.196871     326.9902    39.388296    35.571408    26.771074 
   60400    235.93634   -434.71676       229892   -22609.254    1677.3262    -24286.58   -1122.4088    327.47843    39.389899    35.571969     26.75757 
   60600    231.54436   -324.46208       229892    -22581.83    1646.1026   -24227.933   -718.52015     327.2851    39.391685    35.571009     26.74517 
   60800    242.30419   -372.23888       229892   -22512.674    1722.5967    -24235.27   -859.76048    328.17287    39.393344    35.572161    26.728381 
   61000     234.1155   -226.73311       229892       -22585    1664.3814   -24249.381    -331.8195    329.25358    39.394013    35.573382    26.706613 
   61200    239.37458   -386.47281       229892   -22526.522    1701.7694   -24228.292   -999.14391    331.90319    39.393708    35.572916     26.68738 
   61400    243.07465   -313.68838       229892   -22520.293    1728.0741   -24248.367   -641.12622    332.54819    39.395675    35.574098    26.699327 
   61600    231.70135   -342.44925       229892   -22583.405    1647.2186   -24230.624   -789.47825    332.98069    39.397178    35.576139    26.704212 
   61800    230.99841   -274.31924       229892   -22618.919    1642.2213    -24261.14   -523.63612    333.27911    39.397007      35.5783    26.704099 
   62000     237.3259   -297.44972       229892   -22552.111    1687.2049   -24239.316   -610.97196    335.63615    39.398322    35.576979    26.713508 
   62200    236.21644   -372.57936       229892   -22540.415    1679.3174   -24219.733   -878.07909    336.58822    39.398246    35.576744    26.716456 
   62400    236.19832   -344.20995       229892   -22570.107    1679.1887   -24249.296   -749.40118    335.77758    39.398475    35.574176    26.717753 
   62600    232.01087   -342.83741       229892   -22576.773    1649.4191   -24226.192   -808.59246    339.09172    39.398383    35.574372     26.70277 
   62800    236.78427   -309.84996       229892   -22633.465    1683.3543    -24316.82    -655.5442    339.04041    39.398062    35.574809    26.697528 
   63000    234.08762   -308.56244       229892   -22536.655    1664.1832   -24200.838   -641.80519    341.02688     39.39586     35.57381    26.711103 
   63200    235.61156   -398.24708       229892   -22563.735    1675.0172   -24238.753   -1006.5996    341.51374    39.396159    35.572231    26.716305 
   63400    230.15531   -328.82596       229892   -22624.862    1636.2275    -24261.09   -743.30787    342.94421    39.395373     35.57141    26.705036 
   63600    227.54491   -470.71059       229892   -22655.783    1617.6696   -24273.453   -1270.8209    345.08794    39.396921    35.570822    26.684956 
   63800    229.04978   -461.75559       229892   -22655.746     1628.368   -24284.114   -1236.2682    345.31788    39.398803    35.569807    26.667238 
   64000    239.06408   -322.23554       229892   -22547.709     1699.562   -24247.271   -727.97029    345.65698    39.400641     35.56822    26.673961 
   64200    239.44852    -286.2541       229892   -22529.194    1702.2951   -24231.489   -586.40855    346.37868    39.401549    35.568415    26.694363 
   64400    230.74698   -482.80259       229892   -22548.526    1640.4338    -24188.96    -1331.321     346.0862    39.402851    35.569156    26.689117 
   64600    231.58181   -228.82784       229892   -22595.544    1646.3688   -24241.913   -391.74358    345.89463    39.404117    35.567543    26.670493 
   64800    236.71575   -385.74161       229892   -22609.794    1682.8672   -24292.661   -902.71796    346.73652    39.404978     35.56756    26.668323 
   65000    239.61843   -278.63035       229892   -22506.032     1703.503   -24209.535   -524.02506    346.16983    39.405438    35.566604    26.673644 
   65200    235.88354     -280.932       229892   -22552.879    1676.9508    -24229.83   -538.13191    347.78911    39.405573    35.566591    26.674005 
   65400    229.54116   -232.24571       229892   -22573.803    1631.8613   -24205.665   -364.51705     348.3031    39.404722    35.565474    26.671236 
   65600    236.57946   -364.22864       229892   -22477.608    1681.8983   -24159.506   -873.52565    351.06298     39.40455    35.564745    26.662094 
   65800    235.53367   -343.92792       229892   -22511.523    1674.4635   -24185.986   -814.90488    351.53705    39.405586    35.566893    26.664332 
   66000    236.18804   -559.76498       229892     -22470.3    1679.1155   -24149.416   -1649.0361    353.68675    39.406037    35.565819    26.663197 
   66200    232.02475   -243.49899       229892   -22510.239    1649.5177   -24159.757   -427.43523    354.49471    39.405561     35.56787     26.67504 
   66400     234.8676   -446.28993       229892   -22493.921    1669.7282   -24163.649     -1200.28    357.16853    39.405092    35.569081    26.675882 
   66600    229.95218   -399.30009       229892   -22581.849    1634.7834   -24216.632   -1013.8335    358.44272    39.405284    35.567599    26.683736 
   66800    234.34189   -307.98419       229892   -22541.016    1665.9908   -24207.007    -666.8006    357.97586    39.406065    35.568519    26.672542 
   67000    229.50768   -389.97778       229892   -22588.966    1631.6234   -24220.589   -986.61359    357.95759    39.406539    35.569234    26.667924 
   67200    229.83748   -449.17113       229892   -22516.473     1633.968   -24150.441   -1237.0886    358.23519     39.40617    35.569954    26.667801 
   67400    232.36439    -436.7122       229892   -22463.442    1651.9323   -24115.374   -1204.2256    359.14528    39.407797    35.570857    26.669882 
   67600    242.75045   -306.54058       229892   -22458.365    1725.7692   -24184.134   -657.48976    360.69271    39.406929    35.571327    26.660192 
   67800    236.94389   -449.60145       229892   -22470.336    1684.4891   -24154.825   -1245.5777    363.07692    39.407265    35.571086    26.650695 
   68000    230.99637    -286.9159       229892   -22550.144    1642.2068   -24192.351   -573.11073    363.28538    39.407457    35.570218    26.659586 
   68200    235.13499   -359.99632       229892   -22501.257    1671.6292   -24172.886   -892.83493    361.00923     39.40783    35.571637    26.647705 
   68400    232.54237   -174.38874       229892   -22472.043    1653.1977   -24125.241   -163.92717    361.46507    39.406869    35.570077    26.656682 
   68600     232.8203    -383.2471       229892   -22519.271    1655.1735   -24174.444   -945.32542    363.78641    39.406604    35.568299    26.669448 
   68800    238.06306    -443.2028       229892   -22470.904    1692.4455   -24163.349   -1182.9667     365.2847    39.404419    35.565935    26.665541 
   69000    238.23919   -306.88619       229892    -22479.49    1693.6977   -24173.188   -677.06632    367.15062    39.404267    35.565704    26.652692 
   69200    233.03744   -334.26273       229892   -22560.498    1656.7172   -24217.215   -786.50889    366.08461     39.40267    35.561387    26.653677 
   69400    231.79847   -284.56132       229892   -22592.493    1647.9091   -24240.402   -565.65265    365.45644    39.404889     35.55987    26.677465 
   69600    234.51563   -430.10026       229892   -22466.428     1667.226   -24133.654   -1110.8182    366.07644    39.406322    35.557557    26.713292 
   69800    230.79219   -250.50582       229892   -22478.339    1640.7552   -24119.094   -413.50145    367.49634    39.403802    35.555357    26.722189 
   70000    234.39563   -336.63076       229892   -22528.431    1666.3729   -24194.804    -803.6705    371.13836    39.404468    35.554096     26.72597 
   70200    244.33478   -460.56712       229892   -22433.546    1737.0326   -24170.579   -1259.9056     372.0427    39.405385    35.552911    26.723047 
   70400    240.84537   -499.20319       229892     -22429.4    1712.2256   -24141.625   -1425.1528    373.69269    39.406546    35.553924     26.70864 
   70600    231.57783   -504.58282       229892   -22514.745    1646.3405   -24161.085   -1439.1305    374.67975     39.40622    35.554498    26.722345 
   70800    235.77986   -402.36086       229892     -22505.4    1676.2137   -24181.614    -988.0839    376.11902    39.407598    35.556236    26.746602 
   71000    232.90977   -249.41626       229892   -22577.757    1655.8096   -24233.567   -438.23712    376.11111    39.408209    35.555569    26.737561 
   71200    238.18819   -293.28055       229892   -22592.596    1693.3351   -24285.931   -591.92345    376.18351    39.406971    35.555925    26.755348 
   71400    229.04275   -483.96005       229892   -22551.692    1628.3181    -24180.01    -1331.867    379.54421    39.403687    35.555384    26.757296 
   71600    241.32235   -571.47266       229892   -22460.407    1715.6166   -24176.023   -1717.4872    381.25912     39.40125    35.556067    26.743322 
   71800    235.76389   -366.38207       229892   -22591.013    1676.1002   -24267.113   -871.37657    383.06525    39.400067     35.55628      26.7418 
   72000    233.69575   -372.69488       229892   -22636.146    1661.3973   -24297.543   -868.88325    384.36999    39.401466    35.556023    26.754311 
   72200    239.62872   -257.85161       229892   -22487.425    1703.5762   -24191.001   -454.69966    385.18561    39.403283    35.555181    26.764565 
   72400    232.06878    -236.7654       229892   -22542.414    1649.8308   -24192.244   -370.09351    384.04291     39.40215    35.556128    26.762353 
   72600    235.20684   -259.92782       229892   -22490.276      1672.14   -24162.416   -513.80798    384.97315    39.402406    35.557775    26.767483 
   72800    237.54984   -331.30433       229892    -22563.22    1688.7969   -24252.017   -706.44383    386.17535    39.402877    35.557083    26.782705 
   73000    236.33661    -409.8035       229892   -22587.359    1680.1718   -24267.531   -1072.5724    389.20548    39.402816     35.55547    26.776558 
   73200    238.08408   -377.27055       229892   -22534.128    1692.5949   -24226.723   -935.71233    388.92383    39.404412    35.557082    26.784657 
   73400    237.44062   -380.92137       229892   -22514.249    1688.0205   -24202.269   -982.26898    389.69387    39.404275    35.556892    26.787577 
   73600    233.60552   -452.02136       229892   -22570.137    1660.7559   -24230.893   -1270.2422     392.8501    39.405291    35.557771    26.783429 
   73800    230.91252   -162.29493       229892   -22649.212    1641.6107   -24290.823   -61.224904    395.35385    39.403991    35.556097    26.796455 
   74000    230.28015   -285.66296       229892   -22649.715     1637.115    -24286.83   -594.51415    397.48739    39.400696    35.556243    26.815383 
   74200    238.83638   -201.76055       229892   -22522.424    1697.9432   -24220.368   -238.42618    398.67376    39.400866    35.560045    26.821438 
   74400    237.79537   -353.88341       229892   -22545.583    1690.5424   -24236.126   -834.69824    399.41308    39.401285    35.561429    26.848079 
   74600    231.87909   -386.80656       229892   -22597.558    1648.4823    -24246.04   -985.55449    401.14311    39.399568    35.564056    26.850698 
   74800    240.65725    -342.7764       229892   -22622.463    1710.8882   -24333.352   -835.81786    401.44209    39.399779    35.565134    26.840702 
   75000    234.02398   -386.77552       229892   -22622.184    1663.7308   -24285.915   -934.05693    404.25525    39.400406    35.566627    26.837666 
   75200    229.67379   -512.97473       229892   -22543.697    1632.8042   -24176.501   -1498.7225    406.28592    39.401413    35.567304    26.847099 
   75400    227.77588   -283.29522       229892   -22600.386    1619.3116   -24219.698   -537.43574    406.43509    39.403485    35.569217    26.843061 
   75600     238.1778   -465.32761       229892   -22585.866    1693.2612   -24279.127   -1293.5527    410.21459    39.403016     35.56643    26.827924 
   75800    236.28579   -376.80957       229892   -22549.036    1679.8105   -24228.846   -952.76298    412.17726    39.402112    35.565031    26.820651 
   76000    237.86305   -468.07533       229892   -22529.168    1691.0236   -24220.192   -1284.1979    412.04973    39.403043    35.566246    26.805903 
   76200    229.95758   -548.04001       229892   -22644.365    1634.8217   -24279.186   -1568.0059    413.75829    39.401462    35.566191    26.807447 
   76400    231.36111   -405.86416       229892   -22604.302    1644.7998   -24249.102    -1043.572    414.36352    39.402483    35.565518     26.80993 
   76600    237.55278   -246.76972       229892   -22597.524    1688.8178   -24286.342    -428.4356    416.37908    39.402737    35.564364    26.790149 
   76800    231.52754     -59.7189       229892   -22600.007     1645.983    -24245.99    335.81551    415.54946    39.400624     35.56573    26.794354 
   77000    231.00188   -381.19464       229892   -22600.526     1642.246   -24242.772   -927.30516    417.86635    39.400528    35.564967    26.799728 
   77200    234.65216   -157.69975       229892   -22588.879    1668.1966   -24257.075   -17.197022    417.12694    39.399721    35.562873    26.809859 
   77400     233.5471     -191.141       229892   -22582.214    1660.3405   -24242.555   -175.37641    417.72229    39.399754    35.562661    26.820566 
   77600    234.55452   -427.48245       229892   -22599.197    1667.5025     -24266.7   -1140.3182    416.48009    39.399328    35.563787    26.813233 
   77800    231.10741   -347.69734       229892   -22588.134    1642.9962    -24231.13   -858.60704    416.24581    39.400265    35.562997    26.797672 
   78000    237.69747   -293.75066       229892   -22568.802    1689.8464   -24258.649   -618.83701    414.85956    39.402319    35.563107    26.788729 
   78200    234.56342   -360.81205       229892   -22573.306    1667.5658   -24240.872   -893.65537    414.69946    39.402958    35.563148    26.782013 
   78400    235.41834   -304.15197       229892   -22510.848    1673.6436   -24184.491   -661.72531    415.65988    39.402485    35.561628    26.784738 
   78600    236.79052   -329.98905       229892   -22542.291    1683.3987   -24225.689   -749.86707    416.04322     39.40328    35.562154    26.782905 
   78800    234.56537   -355.32422       229892   -22497.304    1667.5796   -24164.883   -843.52952    416.68268    39.404137    35.564705    26.774927 
   79000    232.07074   -307.05449       229892   -22527.451    1649.8447   -24177.296   -661.97602    417.74524      39.4042    35.565038    26.782135 
   79200    240.10653   -280.69171       229892   -22526.861     1706.973   -24233.834   -554.62365    417.20345    39.406109    35.563606    26.799494 
   79400    241.79538    -233.3547       229892     -22557.1    1718.9794   -24276.079   -366.53552    417.69028    39.405939    35.565531    26.790852 
   79600    230.64956   -430.08945       229892   -22676.662    1639.7412   -24316.403   -1123.8276    417.97771    39.403459    35.564808    26.794103 
   79800    236.14253   -295.98507       229892   -22634.195     1678.792   -24312.987   -599.63054    416.28964    39.403052    35.565477    26.793727 
   80000    231.54087   -617.79516       229892   -22645.979    1646.0778   -24292.057   -1858.7552    416.69998     39.40187    35.568868    26.802855 
   80200     233.1071   -319.56181       229892    -22661.47    1657.2125   -24318.683   -712.76167    418.89376    39.402217    35.570999    26.809467 
   80400    231.86785   -341.28565       229892   -22692.538    1648.4024   -24340.941   -788.57666    419.13803    39.401131    35.572623    26.809035 
   80600    229.05718   -449.83228       229892   -22676.764    1628.4206   -24305.184   -1253.3214    419.14082    39.400771    35.575555    26.814202 
   80800    233.69994   -255.56305       229892   -22634.839    1661.4271   -24296.266   -445.83965    421.62875    39.399585    35.576626    26.823607 
   81000    233.50841   -453.79338       229892   -22668.218    1660.0655   -24328.284   -1232.8766    423.58712    39.400921    35.577819    26.812346 
   81200    232.94004   -120.76606       229892   -22640.814    1656.0247   -24296.839    120.66678    423.92452    39.402843    35.578376    26.818884 
   81400    231.18197   -288.68084       229892    -22608.24    1643.5262   -24251.766   -613.72388    424.92457    39.405963    35.577282    26.838522 
   81600    230.77121   -440.11101       229892   -22694.722    1640.6061   -24335.328    -1175.708     425.2365    39.409409    35.575687    26.856303 
   81800    231.23504   -269.46148       229892   -22747.587    1643.9035    -24391.49   -513.67419    426.40848    39.409885    35.573545    26.880171 
   82000     233.2942   -108.59927       229892   -22680.347    1658.5426   -24338.889    151.45891    425.51525    39.409406    35.571263    26.877018 
   82200    239.16771   -496.26562       229892   -22594.255    1700.2987   -24294.553   -1405.5252    425.69543    39.410583      35.5727    26.873094 
   82400    234.28637   -366.47372       229892   -22605.296    1665.5961   -24270.892   -884.29845    426.53716    39.409997    35.573949    26.876701 
   82600    235.80492   -486.96028       229892   -22536.579    1676.3919   -24212.971   -1336.0838    426.65247     39.40875     35.57285    26.904809 
   82800    236.00726   -517.47535       229892   -22630.012    1677.8304   -24307.843   -1491.8056    428.32444     39.41103    35.573615    26.890679 
   83000    238.22898   -406.17765       229892   -22539.447    1693.6251   -24233.072   -1045.1739    429.54621    39.412791    35.575482    26.890022 
   83200     230.0239   -331.61327       229892   -22594.487    1635.2933    -24229.78   -781.48917    429.71286    39.414294    35.576463    26.862883 
   83400    238.14068   -331.22637       229892   -22570.442    1692.9973   -24263.439    -735.5913    428.89644    39.413641    35.576293    26.853819 
   83600    228.68237   -481.64133       229892   -22691.991     1625.756   -24317.747   -1339.4351    431.15626    39.415859    35.574501    26.872379 
   83800    235.62727   -248.08686       229892    -22665.27    1675.1289   -24340.399   -435.54798    430.51835    39.414522     35.57322    26.876412 
   84000    240.86915   -261.29227       229892   -22660.582    1712.3947   -24372.977   -506.00801    432.39103    39.416491    35.573512    26.896228 
   84200    232.99438   -432.34732       229892   -22594.702    1656.4111   -24251.113   -1110.8175    431.50296    39.420403    35.572598    26.886728 
   84400    230.26953   -387.63291       229892   -22668.724    1637.0395   -24305.764   -967.01333    432.46528    39.422102    35.571651    26.879207 
   84600    233.28447   -474.80217       229892   -22596.054    1658.4734   -24254.527   -1310.8423    435.34317    39.423215    35.572063    26.871541 
   84800    234.53607   -226.21458       229892   -22627.908    1667.3713   -24295.279    -333.7498    434.33321     39.42277    35.570516    26.884483 
   85000    232.39356   -385.99493       229892   -22573.158    1652.1397   -24225.298   -981.52615    434.72565    39.423887    35.569663    26.895911 
   85200    232.72594   -306.09924       229892    -22563.97    1654.5027   -24218.473   -673.14961    433.42692    39.422044    35.565458    26.906087 
   85400    230.60072   -349.08522       229892   -22650.251     1639.394   -24289.645    -844.3187    435.46352    39.423527    35.564096    26.902256 
   85600    232.58049   -252.50541       229892   -22643.623    1653.4687   -24297.092   -457.21687    437.72211    39.424905    35.562625    26.899583 
   85800    233.54204   -327.52688       229892   -22655.245    1660.3046   -24315.549   -742.51939    438.76232    39.424377    35.564162    26.898989 
   86000      228.122   -439.47947       229892   -22615.536    1621.7722   -24237.308   -1196.8621    439.14586    39.423951    35.568011    26.901393 
   86200    233.51487   -450.04101       229892   -22574.906    1660.1113   -24235.017   -1196.5586    439.25996    39.423179    35.568448    26.895504 
   86400    231.00428   -431.97926       229892   -22625.657     1642.263    -24267.92   -1167.2181    439.68791    39.422585     35.56812    26.901602 
   86600    238.09966    -464.9092       229892     -22561.1    1692.7057   -24253.806   -1277.9934    440.58495    39.423656    35.568677    26.896527 
   86800    232.49705   -343.87607       229892   -22630.633    1652.8755   -24283.508   -794.55175    441.51922    39.424089    35.569265    26.882818 
   87000    234.37167   -430.60018       229892   -22575.775    1666.2026   -24241.978   -1240.1593    442.47743    39.424222    35.570778    26.906291 
   87200    236.81392   -385.73109       229892   -22554.315    1683.5651    -24237.88   -994.38372    442.73413     39.42725    35.570687    26.905963 
   87400    234.45101   -280.75975       229892   -22632.761    1666.7666   -24299.528   -586.66767    443.35166    39.427999     35.57084    26.902809 
   87600    234.46998   -387.43976       229892   -22552.322    1666.9015   -24219.224   -978.61438    443.86026    39.430395    35.568346    26.896794 
   87800    235.39593   -220.95545       229892   -22624.925    1673.4843   -24298.409   -331.74949    442.64081    39.431483    35.567135    26.880522 
   88000    232.17288   -394.73557       229892   -22617.779    1650.5708    -24268.35   -1031.3437    444.07803    39.431877    35.566563    26.879399 
   88200    233.77549    -248.6372       229892   -22615.576    1661.9642    -24277.54   -476.66187    444.94815    39.429101    35.564933    26.893485 
   88400    240.04208   -414.59041       229892   -22568.552    1706.5148   -24275.066   -1112.6441    444.27065    39.429187    35.564753    26.916704 
   88600    234.41511   -379.77052       229892   -22613.965    1666.5114   -24280.477   -962.68338    446.25774    39.429377    35.562241    26.918466 
   88800    236.54983   -393.45441       229892    -22660.72    1681.6876   -24342.407   -989.72668    447.86469    39.429377    35.558835    26.905406 
   89000    231.50698   -326.61012       229892   -22637.216    1645.8369   -24283.052   -746.44188    448.60359    39.430034     35.55895    26.886741 
   89200    237.03403   -377.70678       229892   -22644.334    1685.1299   -24329.464    -945.5461    450.35834    39.429349    35.556865    26.893694 
   89400    237.93878   -404.50297       229892   -22609.422     1691.562   -24300.984   -1046.2943    450.77129    39.429783    35.554951    26.883484 
   89600    229.36004   -308.59557       229892    -22698.73    1630.5738   -24329.303    -688.4621    451.02737    39.431404    35.555395    26.883016 
   89800    233.73081   -297.48197       229892   -22582.912    1661.6465   -24244.559    -641.2361    451.47072    39.430508      35.5563    26.862903 
   90000    236.19779   -364.40651       229892   -22617.871    1679.1848   -24297.056   -906.14286    453.15557    39.431407    35.557827     26.85499 
   90200    232.72119   -332.44042       229892   -22614.795    1654.4689   -24269.264   -803.81556    453.01289    39.431426     35.55678    26.850444 
   90400    238.55464   -375.86846       229892   -22579.296    1695.9402   -24275.236   -964.43796    453.87087    39.430236    35.557222    26.836417 
   90600    235.58823   -275.64307       229892   -22596.691    1674.8513   -24271.542   -564.44776    455.26052     39.43088    35.555387    26.846158 
   90800    232.78953   -373.49497       229892   -22625.774    1654.9548   -24280.729    -914.8718    455.82764    39.431359    35.554117     26.85889 
   91000     235.4925   -324.60981       229892   -22669.477    1674.1708   -24343.648   -749.85129    456.50478    39.431878    35.551193    26.857813 
   91200    225.78737   -371.79832       229892   -22733.319    1605.1748   -24338.493   -931.92303    458.54391    39.432533    35.552211    26.863513 
   91400    234.12952   -295.30334       229892   -22668.419    1664.4811     -24332.9    -599.1884     458.9811    39.432061    35.552189    26.893475 
   91600    236.71156   -476.00002       229892   -22584.843    1682.8374    -24267.68    -1361.937    460.48966    39.433074    35.548488    26.905738 
   91800     240.6791   -361.86529       229892   -22604.441    1711.0435   -24315.485   -868.73857    460.03926    39.433318    35.546439    26.883465 
   92000    237.09841   -458.58838       229892   -22599.911    1685.5876   -24285.498     -1268.63    460.49523    39.432903    35.544791    26.867065 
   92200    229.96576   -393.90072       229892   -22587.994    1634.8799   -24222.874   -989.76163    462.31032    39.434463    35.543892    26.881105 
   92400    234.47696   -308.51946       229892   -22566.524    1666.9511   -24233.475   -673.10124     463.2707    39.434802    35.542674    26.879156 
   92600    244.85286   -324.01714       229892   -22548.331    1740.7158   -24289.047   -725.98319    464.28898    39.435529    35.539555    26.876761 
   92800    231.61211    -330.1518       229892   -22638.269    1646.5842   -24284.853   -700.62276    465.40229    39.435687     35.53768     26.89273 
   93000     232.0209   -232.77949       229892   -22641.881    1649.4904   -24291.371    -374.2748    466.85949    39.437749    35.537448    26.903624 
   93200    227.07511   -374.55763       229892   -22592.385    1614.3296   -24206.714   -915.27229    467.19609    39.438618    35.538012    26.904658 
   93400    233.37856   -354.95377       229892   -22635.908    1659.1424    -24295.05   -878.72643    466.51882    39.439196    35.538935    26.901715 
   93600    233.04484   -327.93702       229892   -22575.982    1656.7699   -24232.752   -756.51677    468.11358    39.436853    35.538639    26.902373 
   93800    233.30096   -395.53545       229892   -22618.059    1658.5907    -24276.65   -1003.6252    467.30898    39.435189     35.53992    26.927743 
   94000    229.31641   -385.03429       229892    -22621.66    1630.2636   -24251.923   -950.73076    466.80389    39.434162    35.541556    26.936768 
   94200     234.7068    -420.8947       229892   -22515.654    1668.5851   -24184.239   -1091.5034    466.82968    39.435105    35.541069    26.935264 
   94400    227.89354   -404.24716       229892   -22559.716     1620.148   -24179.864   -1076.8812    468.70477    39.435227    35.539966    26.955384 
   94600    231.12788   -449.88199       229892   -22555.023    1643.1417   -24198.164   -1238.5909    468.88897    39.436592    35.538683    26.973805 
   94800    231.09238   -453.63115       229892   -22508.421    1642.8894   -24151.311   -1240.0023    471.24153    39.439273    35.538635    26.967135 
   95000    234.53136   -419.83887       229892   -22595.125    1667.3378   -24262.463   -1120.3763    470.76829    39.441043     35.53911    26.962039 
   95200    234.52623   -334.58286       229892   -22608.569    1667.3013   -24275.871   -790.39488    470.88543    39.441213    35.540111    26.961313 
   95400    230.02121   -384.44928       229892   -22563.966    1635.2742    -24199.24   -994.80739    471.36875    39.442343    35.540611    26.971874 
   95600    234.85201   -213.34099       229892   -22550.998    1669.6174   -24220.616   -341.79355    472.20467    39.442503    35.542367    26.964063 
   95800    235.14379   -281.30756       229892   -22527.574    1671.6917   -24199.266   -541.34375    472.05624    39.443402    35.543694    26.959522 
   96000    236.36165    -373.9722       229892    -22515.38    1680.3498    -24195.73   -904.79587    473.31892    39.442854    35.545133    26.954971 
   96200    239.85526   -430.65637       229892   -22420.062    1705.1867   -24125.249   -1173.9551    475.07119    39.442687    35.544103    26.957326 
   96400    237.22293   -293.94876       229892   -22494.079    1686.4729   -24180.552   -586.01421    475.60069    39.443543    35.544155    26.972219 
   96600    233.83006   -502.20167       229892   -22557.613    1662.3522   -24219.965    -1438.741    476.77129     39.44382    35.543632    26.974363 
   96800    233.77839    -413.7207       229892   -22512.321    1661.9848   -24174.305   -1078.6697    477.71772      39.4461    35.546598    26.958455 
   97000    235.69867   -400.77017       229892   -22536.623    1675.6365   -24212.259   -1030.1638    477.93572    39.446844    35.549308    26.954396 
   97200    230.52113   -349.10554       229892   -22538.011    1638.8282   -24176.839   -805.56437    479.25032    39.446669    35.549674    26.974156 
   97400    231.58516   -301.82246       229892    -22507.02    1646.3926   -24153.413   -630.58648    480.25243    39.447949    35.548713    26.988809 
   97600     229.8852   -239.70402       229892   -22426.345    1634.3072   -24060.652   -389.78506    481.32625    39.445686    35.548263    26.959149 
   97800     238.9885   -325.78132       229892   -22460.707    1699.0247   -24159.732   -763.28368    483.37214    39.445665    35.548573     26.93719 
   98000    234.29009   -336.11814       229892    -22521.02    1665.6226   -24186.643   -730.69496    481.67326    39.444991     35.54733    26.932604 
   98200     236.6837   -458.33273       229892   -22533.115    1682.6394   -24215.754   -1221.9545    480.69866      39.4474    35.544486    26.941701 
   98400    236.67599   -446.77247       229892   -22473.016    1682.5845   -24155.601   -1191.3183    481.79441     39.44614    35.542798    26.965425 
   98600    229.44164   -422.27028       229892   -22492.832    1631.1538   -24123.985   -1112.6618    480.49618    39.446135    35.541172    26.963449 
   98800    238.74771   -432.04035       229892   -22498.034    1697.3128   -24195.347   -1153.0567    480.54877    39.447825    35.542351    26.962811 
   99000      232.828   -490.31204       229892   -22587.358    1655.2283   -24242.587   -1370.2931    481.10868    39.448467    35.542136    26.961902 
   99200    228.96045   -371.56431       229892   -22556.814     1627.733   -24184.547   -901.82866    482.09422    39.448523    35.541944    26.967172 
   99400    231.65848   -116.77474       229892   -22491.526    1646.9138   -24138.439    109.87336    482.57981    39.450795    35.542078    26.970986 
   99600    237.11115    -259.1785       229892    -22481.29    1685.6782   -24166.968   -478.37856    481.57027    39.450824    35.541738    26.974808 
   99800    235.82096   -418.55471       229892   -22494.089    1676.5059   -24170.595   -1155.2911    482.31137    39.450433    35.541487     26.98118 
  100000    233.52073   -409.41184       229892   -22530.348     1660.153   -24190.501   -1068.9773    483.98927    39.450236    35.541098    26.989696 
  100200    235.70909    -363.6767       229892    -22586.66    1675.7106   -24262.371   -872.00892    484.43787    39.450945    35.541968    27.001173 
  100400    238.84335   -265.92109       229892   -22514.753    1697.9928   -24212.746      -491.36    483.79876    39.451805    35.543167    27.013485 
  100600     231.0426   -381.52418       229892   -22543.495    1642.5354   -24186.031   -982.94627    485.08679    39.453636    35.545808    27.012709 
  100800    230.03205   -401.77494       229892   -22575.927    1635.3512   -24211.278   -1056.7395    487.05382    39.456166    35.546677    27.019832 
[...]
 3976000    220.78193   -444.48727       229892   -24697.208    1569.5899   -26266.798   -1232.4464    6682.7261    40.327067    36.473981    27.143749 
 3976200    227.48903    -621.0981       229892   -24690.825    1617.2723   -26308.097   -1910.4684    6685.7984    40.324927    36.475013    27.124134 
 3976400    217.99303   -569.78956       229892   -24722.344     1549.763   -26272.107   -1685.5084    6686.6649    40.323994    36.474467    27.132504 
 3976600    219.94808   -466.41464       229892   -24714.784    1563.6619   -26278.446   -1309.1698    6684.6821    40.323021    36.474873    27.140313 
 3976800    226.71747   -504.82797       229892   -24636.372    1611.7871   -26248.159    -1482.955    6684.2265    40.322787     36.47462    27.148757 
 3977000    221.47222   -457.36296       229892    -24751.59    1574.4974   -26326.087   -1233.3454    6683.2449     40.32232    36.474313    27.129036 
 3977200    221.59219   -538.53094       229892   -24659.809    1575.3503    -26235.16   -1602.6547    6685.4621    40.320258    36.474412    27.134046 
 3977400    227.29995   -442.88766       229892   -24668.555    1615.9281   -26284.483   -1211.1861    6685.3436    40.318655    36.476038    27.144073 
 3977600    220.93401   -478.65111       229892   -24681.927    1570.6711   -26252.598   -1324.1978    6684.2975    40.319272    36.475226    27.152543 
 3977800    230.60908   -488.61185       229892   -24679.756    1639.4535   -26319.209   -1404.8866    6685.0165    40.317659    36.475573    27.164131 
 3978000    221.27999   -411.07783       229892   -24705.772    1573.1308   -26278.903    -1077.818    6683.6589    40.315781    36.474942    27.163283 
 3978200    222.27762   -421.28653       229892    -24636.31    1580.2232   -26216.533   -1116.3959    6684.3092    40.315414     36.47447    27.155821 
 3978400     225.1769   -487.91824       229892   -24703.987    1600.8348   -26304.822   -1405.3226    6683.9733    40.313093    36.475272    27.143748 
 3978600    222.93989   -512.18916       229892   -24683.347    1584.9314   -26268.279    -1495.383    6685.5051    40.312443    36.474007    27.133233 
 3978800    228.38911   -572.29938       229892   -24647.837    1623.6712   -26271.508   -1711.0881    6685.5386     40.31162    36.473575    27.139535 
 3979000    224.09037   -483.72767       229892   -24680.132    1593.1104   -26273.242   -1396.0854    6684.8012    40.311875    36.473336    27.137542 
 3979200    221.84194   -413.39327       229892   -24717.094    1577.1258   -26294.219   -1101.7539    6682.1711    40.311186     36.47254    27.143003 
 3979400    222.91573   -560.45537       229892   -24677.614    1584.7596   -26262.374   -1658.5412    6684.7245    40.311954    36.473279    27.141154 
 3979600    222.36917   -523.16441       229892   -24688.235     1580.874   -26269.109   -1508.6176    6685.1629    40.310173    36.473472    27.125525 
 3979800    224.61294   -444.76291       229892   -24683.302    1596.8255   -26280.128   -1270.5056    6685.1803    40.308502    36.473367    27.132487 
 3980000    226.59915   -414.22187       229892   -24681.185    1610.9459   -26292.131   -1097.6361    6683.2913    40.309794    36.473043    27.144478 
 3980200    225.35139   -428.94374       229892   -24674.819    1602.0753   -26276.894   -1150.6954     6684.194    40.309296    36.472496    27.144136 
 3980400    224.41069   -434.01521       229892   -24672.455    1595.3877   -26267.843   -1159.9358    6683.7631    40.310115    36.471779    27.150829 
 3980600    226.94035   -502.35479       229892   -24621.039    1613.3716   -26234.411   -1435.8744     6684.941    40.309431    36.471412    27.136823 
 3980800    223.81094    -542.5893       229892    -24626.84    1591.1239   -26217.964   -1614.6602     6684.193    40.308628    36.470367    27.151682 
 3981000    226.72263   -484.72297       229892   -24636.728    1611.8238   -26248.552   -1357.7986    6686.4698    40.307935    36.470206    27.164174 
 3981200    228.48631   -504.18916       229892   -24628.502    1624.3622   -26252.865   -1460.3577    6684.5643    40.307931    36.469148     27.17751 
 3981400    225.56119   -476.70383       229892   -24623.591    1603.5668   -26227.157   -1359.3091     6683.451    40.308074    36.469715    27.182541 
 3981600    221.69005   -457.16767       229892   -24675.456     1576.046   -26251.502   -1247.8706    6684.8551    40.309848    36.469316    27.164648 
 3981800    222.00761   -468.19391       229892   -24647.653    1578.3036   -26225.957   -1322.0149    6685.3049     40.30907    36.468041    27.166726 
 3982000    223.54863   -499.44807       229892    -24694.74    1589.2591   -26283.999   -1439.8279    6684.9408    40.308657    36.468249    27.157415 
 3982200    222.06671   -551.61715       229892   -24715.788    1578.7238   -26294.512   -1640.4068    6685.6056    40.309954    36.469399    27.157654 
 3982400    225.05481   -516.75697       229892   -24647.468    1599.9668   -26247.435   -1530.5521    6684.9466    40.309615    36.469014    27.149028 
 3982600    223.11892   -462.89807       229892    -24679.89    1586.2042   -26266.094    -1288.877    6684.2566    40.308486    36.468908    27.157958 
 3982800    228.49262   -391.68005       229892   -24621.017     1624.407   -26245.424    -988.7375    6683.2621    40.307788    36.469017    27.172423 
 3983000    226.94004   -390.45865       229892   -24615.125    1613.3694   -26228.495   -976.44394    6684.4196    40.308114    36.469948    27.180332 
 3983200      220.016    -441.9724       229892   -24634.358    1564.1448   -26198.503   -1264.5904    6684.4243    40.307694    36.470491    27.170322 
 3983400    229.31783   -494.45403       229892   -24597.673    1630.2737   -26227.946   -1441.1875    6684.4403    40.307439    36.469839    27.161393 
 3983600    226.57361   -469.53576       229892   -24655.235    1610.7643   -26265.999   -1284.8954    6683.4542    40.307754    36.470382    27.169227 
 3983800    229.16156   -483.23689       229892   -24648.989    1629.1627   -26278.152   -1382.0025    6684.9993    40.307632    36.469384    27.157822 
 3984000    224.23467    -540.7886       229892   -24681.206    1594.1362   -26275.342   -1580.1005     6685.069    40.306523     36.46936    27.160453 
 3984200    221.39616   -495.62175       229892   -24662.947    1573.9567   -26236.904   -1407.1744    6684.2559    40.304933    36.470009    27.156115 
 3984400    227.55047    -403.6747       229892   -24690.065    1617.7091   -26307.774   -1065.9168    6684.1654    40.304145    36.470276     27.14892 
 3984600    223.93981   -471.61284       229892   -24692.837    1592.0401   -26284.877   -1350.0083    6683.2614    40.301869     36.47015    27.155483 
 3984800    221.44123   -570.94643       229892   -24669.613     1574.277    -26243.89   -1677.3354    6685.3962    40.301959    36.470853    27.159985 
 3985000    226.66237   -466.77708       229892   -24694.838    1611.3953   -26306.234   -1291.0168    6683.9506     40.30177    36.471585    27.157344 
 3985200     227.4749   -461.83874       229892   -24657.023    1617.1719   -26274.195   -1297.8643     6686.925    40.301232    36.472216    27.161264 
 3985400    223.24709   -539.37287       229892   -24672.895    1587.1154    -26260.01   -1608.4098    6683.7855    40.300097    36.471123    27.163502 
 3985600    224.17859   -569.59894       229892   -24625.077    1593.7376   -26218.815    -1685.506    6684.5289     40.30073    36.471115    27.162266 
 3985800    223.85923   -366.95596       229892   -24673.957    1591.4672   -26265.424   -943.19884    6683.1333    40.300421    36.470946    27.176103 
 3986000    232.65565   -405.32726       229892   -24578.529     1654.003   -26232.532   -1033.7427    6684.6103    40.298702    36.470996    27.166541 
 3986200    229.78392   -453.78547       229892   -24605.142    1633.5872   -26238.729   -1237.0134    6684.5873    40.297501    36.471694     27.15204 
 3986400     219.1647   -536.94986       229892   -24717.625    1558.0927   -26275.718   -1627.1261     6683.546    40.296508    36.471859    27.160935 
 3986600    222.10158   -468.96014       229892   -24682.344    1578.9716   -26261.315   -1359.4519    6686.6246    40.295372    36.472919    27.163958 
 3986800    226.31635   -496.07725       229892   -24667.881    1608.9354   -26276.816   -1433.2335     6685.003    40.295284    36.472857    27.172036 
 3987000     223.5294   -532.39075       229892   -24635.178    1589.1224     -26224.3   -1542.1113    6686.6928    40.293977    36.474052    27.168297 
 3987200    222.82305   -406.34013       229892   -24748.689    1584.1007   -26332.789   -1091.3393    6685.1623    40.294433    36.474711    27.176079 
 3987400    220.88372   -382.88255       229892   -24680.101    1570.3136   -26250.414   -985.64222    6685.1719    40.295686    36.475913    27.171658 
 3987600    225.27711   -502.33263       229892   -24630.414    1601.5472   -26231.961   -1431.5801    6684.4259     40.29541    36.475337    27.175099 
 3987800    223.80615   -403.58198       229892   -24667.243    1591.0899   -26258.333   -1080.0221    6684.6514    40.295216    36.474103    27.175305 
 3988000    223.82496   -613.64895       229892    -24635.55    1591.2236   -26226.773   -1876.9931    6685.5615    40.295132    36.474842    27.163485 
 3988200    229.20068    -431.5341       229892   -24644.752    1629.4408   -26274.192   -1171.3627    6683.5137    40.294928    36.474101    27.165742 
 3988400    229.50054   -394.48255       229892   -24650.561    1631.5726   -26282.133   -990.04352    6684.3807     40.29584    36.474071    27.171709 
 3988600    218.84508   -441.74046       229892   -24689.134    1555.8204   -26244.954   -1212.3559    6684.4548      40.2957    36.473909    27.155625 
 3988800    225.93746   -546.49114       229892   -24674.692    1606.2418   -26280.934   -1637.7301    6686.6824    40.295673    36.472895    27.149492 
 3989000    235.74423   -415.85154       229892   -24612.677    1675.9604   -26288.637   -1100.7187    6685.2694    40.296597    36.473222    27.157526 
 3989200    221.30894   -463.82765       229892   -24672.125    1573.3366   -26245.462   -1274.0044    6687.1623    40.297417    36.472394    27.152538 
 3989400    222.81392   -422.80452       229892   -24687.456    1584.0358   -26271.492   -1154.3047     6685.081    40.296679    36.472484    27.145548 
 3989600     234.4343   -467.38608       229892   -24610.875    1666.6478   -26277.523   -1272.9811    6686.0989    40.297423     36.47215    27.153208 
 3989800    227.20879   -416.69349       229892   -24642.657      1615.28   -26257.937    -1127.956     6686.152    40.298028    36.471705    27.147635 
 3990000      228.768   -404.80074       229892    -24677.73    1626.3648   -26304.094   -1075.0558    6686.3152    40.299856    36.471502    27.147729 
 3990200    223.11848   -548.56564       229892   -24702.888    1586.2011   -26289.089   -1625.4637     6688.058     40.29916    36.471203    27.128867 
 3990400    224.32595   -586.01805       229892   -24650.859    1594.7852   -26245.644   -1787.5144    6683.7857    40.299902    36.471422    27.145732 
 3990600    228.01737   -389.97095       229892   -24675.866    1621.0284   -26296.894   -1003.2013    6684.1203     40.30047    36.471915    27.141505 
 3990800    229.41502   -471.65609       229892   -24617.738    1630.9646   -26248.702   -1296.7277    6685.8246    40.301423    36.471466    27.145682 
 3991000    224.54594   -492.05133       229892   -24634.521    1596.3492    -26230.87   -1406.4238    6683.4194    40.302684    36.471545    27.151605 
 3991200    226.61104   -422.14683       229892   -24610.554    1611.0305   -26221.585   -1109.2172    6684.3518    40.302268    36.471144    27.149308 
 3991400    230.86963   -415.87091       229892    -24593.48    1641.3057   -26234.786   -1083.1191    6686.7561     40.30193    36.472032    27.133626 
 3991600    224.34649   -485.75171       229892   -24650.858    1594.9313   -26245.789   -1390.3848    6685.8817    40.302382     36.47513    27.142429 
 3991800    224.67889   -501.08133       229892   -24719.521    1597.2944   -26316.816   -1458.9995    6685.9751    40.303251    36.475236     27.14846 
 3992000    225.48205   -429.85122       229892   -24638.685    1603.0042    -26241.69    -1154.461    6686.0011    40.302888    36.474409    27.143475 
 3992200    223.89298   -527.24713       229892   -24638.763    1591.7072    -26230.47   -1512.9369    6686.8857    40.302021    36.471973    27.152917 
 3992400    231.67225   -502.63972       229892   -24653.904    1647.0118   -26300.915    -1447.689    6686.7864    40.301708    36.470177    27.158034 
 3992600    227.93248   -487.08246       229892   -24653.151    1620.4249   -26273.576   -1373.4361    6684.1216    40.300491    36.470504    27.148811 
 3992800    221.94819   -467.39132       229892   -24649.884    1577.8811   -26227.765    -1339.531    6685.9434    40.298979    36.471172    27.148672 
 3993000    220.73524   -525.17701       229892   -24755.226     1569.258   -26324.484   -1513.1169    6684.8038    40.298447    36.469419    27.145447 
 3993200    227.49954   -490.65984       229892    -24639.28     1617.347   -26256.627   -1385.0448    6686.5916     40.29695     36.46788     27.14586 
 3993400     225.0887   -441.69941       229892   -24617.754    1600.2078   -26217.962    -1225.379     6684.445    40.296354    36.467898    27.151983 
 3993600    225.55295   -466.58596       229892   -24639.077    1603.5083   -26242.585   -1306.3634    6685.0457    40.296246    36.466108     27.15208 
 3993800    227.70125   -374.30217       229892   -24635.714     1618.781   -26254.495    -921.5511    6684.8628    40.299098    36.466192    27.146332 
 3994000    223.43695   -431.10805       229892   -24658.423    1588.4651   -26246.888   -1151.8336    6682.5744    40.299885    36.466071    27.151626 
 3994200    217.15704   -513.08658       229892   -24694.255    1543.8198   -26238.075   -1510.2515    6685.8041    40.301821    36.467497    27.163506 
 3994400    226.86485   -438.73552       229892   -24649.522    1612.8348   -26262.356   -1183.6271    6683.7471    40.302333    36.467501    27.154712 
 3994600    223.58891   -365.04647       229892   -24709.368    1589.5454   -26298.914   -890.31029    6684.0931    40.303389    36.467822     27.14881 
 3994800    227.02872   -459.52858       229892   -24658.898    1613.9999   -26272.898   -1288.9935    6685.5044    40.303153    36.467041    27.156048 
 3995000    229.00426   -419.05029       229892   -24626.318    1628.0444   -26254.363    -1147.123    6683.9626    40.302383    36.467026    27.143179 
 3995200    222.58169   -418.79889       229892   -24724.105    1582.3849    -26306.49   -1128.4976    6684.0514    40.302165    36.468169    27.133648 
 3995400    227.43357   -314.22474       229892   -24635.353     1616.878   -26252.231   -715.84548    6685.5434    40.300363    36.468101    27.133736 
 3995600    230.09333   -427.84699       229892   -24581.887    1635.7868   -26217.674   -1151.6233    6684.8805    40.300404    36.468136    27.141122 
 3995800     222.5106   -618.99428       229892   -24598.621    1581.8795     -26180.5   -1879.7373    6685.4361    40.300454    36.467867    27.151222 
 3996000    234.77779   -468.11508       229892   -24534.699    1669.0898   -26203.789   -1323.8989    6686.9937    40.300222    36.467317    27.146015 
 3996200    231.04415   -303.38552       229892   -24590.441    1642.5465   -26232.988    -633.9995    6684.4658    40.300206    36.466693    27.151254 
 3996400    225.16769   -425.50031       229892   -24660.807    1600.7693   -26261.576   -1159.6374    6685.9295    40.299616    36.465906    27.150595 
 3996600    222.71543   -534.43479       229892   -24627.711    1583.3356   -26211.046   -1615.5725    6688.4841    40.299748    36.465406    27.156227 
 3996800    222.49754   -368.79711       229892   -24686.785    1581.7866   -26268.571    -940.9057     6683.993    40.298379    36.466534    27.153528 
 3997000     234.8048   -302.66808       229892   -24551.938    1669.2818    -26221.22   -694.56486    6684.8471    40.297876     36.46599    27.159594 
 3997200    223.19608   -501.43886       229892   -24611.405    1586.7527   -26198.158   -1451.3653    6686.3276    40.296966    36.464971    27.167594 
 3997400    218.08938   -488.11072       229892   -24682.524     1550.448   -26232.972   -1399.6701    6687.0895    40.296482    36.464512    27.171442 
 3997600    228.20898   -478.53937       229892   -24641.538    1622.3906   -26263.929   -1357.0623    6686.6893    40.296573    36.462886    27.167397 
 3997800    220.01705   -455.71448       229892   -24745.563    1564.1522   -26309.715   -1257.5316    6686.4448    40.295681    36.461467    27.162619 
 3998000    227.42359   -589.27985       229892   -24661.569    1616.8071   -26278.376   -1762.2647    6688.2694    40.294538    36.460773    27.148433 
 3998200    221.36461   -461.42699       229892    -24666.69    1573.7323   -26240.422   -1310.7281    6687.8445     40.29388    36.460389    27.154191 
 3998400    226.33143   -484.54489       229892   -24560.606    1609.0426   -26169.649   -1345.6066    6686.4644    40.294356    36.459531    27.155211 
 3998600    222.05413   -420.76212       229892   -24659.368    1578.6343   -26238.003    -1097.357     6687.806     40.29276    36.458574    27.153359 
 3998800    225.54391   -492.51075       229892   -24623.247     1603.444   -26226.691   -1405.3135     6686.822    40.291928    36.458144    27.139992 
 3999000    229.04774   -398.73985       229892   -24584.419    1628.3535   -26212.772   -1053.6768     6684.855     40.29184    36.458538    27.158132 
 3999200    222.76813    -460.4315       229892   -24654.521    1583.7103   -26238.232   -1290.0432    6684.1637    40.289903    36.459545    27.163394 
 3999400    218.18784   -329.94207       229892    -24683.22     1551.148   -26234.368   -801.75792    6685.6442    40.290604    36.460549    27.162626 
 3999600    223.25593   -456.25421       229892   -24684.722    1587.1782   -26271.901   -1250.5143    6684.5226    40.289355    36.461337    27.149501 
 3999800     228.3233   -510.18235       229892   -24614.274    1623.2033   -26237.478   -1527.1189    6688.3902    40.289539    36.461662    27.155523 
 4000000    232.58553   -342.12429       229892    -24570.67    1653.5045   -26224.175   -808.71509    6686.6095    40.288553    36.460345    27.152845 
Loop time of 7455.25 on 64 procs for 4000000 steps with 9010 atoms

Performance: 463.566 ns/day, 0.052 hours/ns, 536.534 timesteps/s
99.1% CPU use with 64 MPI tasks x no OpenMP threads

MPI task timing breakdown:
Section |  min time  |  avg time  |  max time  |%varavg| %total
---------------------------------------------------------------
Pair    | 0.51375    | 1886.5     | 5389.7     |4723.0 | 25.30
Neigh   | 1.1139     | 222.38     | 813.46     |1834.9 |  2.98
Comm    | 422.52     | 2964.5     | 5562.2     |3094.2 | 39.76
Output  | 196.98     | 197.27     | 197.7      |   1.2 |  2.65
Modify  | 207.18     | 2063.8     | 6715.4     |4936.8 | 27.68
Other   |            | 120.8      |            |       |  1.62

Nlocal:        140.781 ave         426 max           0 min
Histogram: 24 5 19 0 0 0 0 0 0 16
Nghost:        812.531 ave        1157 max          35 min
Histogram: 8 0 0 6 2 0 0 24 0 24
Neighs:         0.00000 ave           0 max           0 min
Histogram: 64 0 0 0 0 0 0 0 0 0
FullNghs:      13897.8 ave       52093 max           0 min
Histogram: 38 10 0 0 0 0 0 0 3 13

Total # of neighbors = 889456
Ave neighs/atom = 98.718757
Neighbor list builds = 436436
Dangerous builds = 0
write_data 		${DIR}/data.${NAME}_run
write_data 		run_5/data.${NAME}_run
write_data 		run_5/data.ibeam_cooling_5_run
System init for write_data ...
Total wall time: 2:04:33
