
### Dimensions ###


### IMPORT ATOMS ###
read_data ../Box_Setup/data.Ibeam_240K
Reading data file ...
  orthogonal box = (0.0000000 0.0000000 0.0000000) to (157.50400 36.487659 45.872046)
  10 by 2 by 4 MPI processor grid
  reading atoms ...
  9436 atoms
  reading velocities ...
  9436 velocities
  read_data CPU = 0.027 seconds
group water type 2
2716 atoms in group water
group graphite type 1
6720 atoms in group graphite


# Define potential
#
pair_style          sw
pair_coeff * * MLC_e.sw C mW

# Add velocity/set timestep
#

fix		1 graphite setforce 0.0 0.0 0.0
velocity 	graphite set 0.0 0.0 0.0
velocity            water create ${START_TEMP} ${SEED} rot yes dist gaussian
velocity            water create 240 ${SEED} rot yes dist gaussian
velocity            water create 240 2773 rot yes dist gaussian
timestep            5.0

# Define output
#
compute 1 water msd
compute 2 water temp


thermo	            100
thermo_style custom step c_2 press vol etotal ke pe c_1[4] density

# Neighbor lists
#
neigh_modify        delay 0 every 1 check yes


# Set fixes
#
fix                 2 water momentum 10 linear 1 1 1 rescale
fix                 3 all nve
fix                 4 water temp/csvr ${START_TEMP} ${START_TEMP} 500.0 928347
fix                 4 water temp/csvr 240 ${START_TEMP} 500.0 928347
fix                 4 water temp/csvr 240 240 500.0 928347

# Run 0.05 ns equilibration
#
dump                1 all custom 100 ${DIR}/eq.${NAME}.dump id type x y z vx vy vz
dump                1 all custom 100 run_14/eq.${NAME}.dump id type x y z vx vy vz
dump                1 all custom 100 run_14/eq.ibeam_cooling_14.dump id type x y z vx vy vz
run                 10000
Neighbor list info ...
  update every 1 steps, delay 0 steps, check yes
  max neighbors/atom: 2000, page size: 100000
  master list distance cutoff = 6.6747184
  ghost atom cutoff = 6.6747184
  binsize = 3.3373592, bins = 48 11 14
  1 neighbor lists, perpetual/occasional/extra = 1 0 0
  (1) pair sw, perpetual
      attributes: full, newton on
      pair build: full/bin/atomonly
      stencil: full/bin/3d
      bin: standard
Per MPI rank memory allocation (min/avg/max) = 3.597 | 4.372 | 4.790 Mbytes
Step c_2 Press Volume TotEng KinEng PotEng c_1[4] Density 
       0          240   -384.81349    263624.46   -25860.227    1942.2958   -27802.523            0   0.81656126 
     100    238.68186   -264.56619    263624.46    -25859.77    1931.6282   -27791.399   0.87667068   0.81656126 
     200    232.79894   -338.91735    263624.46   -25860.172    1884.0184    -27744.19    1.4014601   0.81656126 
     300    237.09518    -238.5769    263624.46   -25827.078    1918.7874   -27745.865    1.8408875   0.81656126 
     400    240.98201   -441.80065    263624.46   -25804.236    1950.2431   -27754.479    2.3188495   0.81656126 
     500    238.01535   -206.64891    263624.46   -25771.592    1926.2343   -27697.826    2.7409297   0.81656126 
     600    246.12694   -57.623776    263624.46   -25710.594    1991.8805   -27702.474     3.119328   0.81656126 
     700     240.6014   -137.69106    263624.46   -25717.989    1947.1629   -27665.152    3.6133297   0.81656126 
     800    237.68883   -342.30387    263624.46   -25686.895    1923.5918   -27610.487    3.9914487   0.81656126 
     900    243.60364   -266.16261    263624.46    -25712.28    1971.4598    -27683.74    4.3342032   0.81656126 
    1000    241.37722    -326.2482    263624.46   -25765.713    1953.4415   -27719.155    4.6877347   0.81656126 
    1100     238.2008   -345.58871    263624.46   -25770.613    1927.7351   -27698.348    5.0776962   0.81656126 
    1200    238.79848   -191.99989    263624.46   -25771.395     1932.572   -27703.967    5.4062716   0.81656126 
    1300    243.72621   -165.09093    263624.46   -25717.065    1972.4517   -27689.516    5.8170286   0.81656126 
    1400    242.61824   -265.61226    263624.46   -25766.453     1963.485   -27729.938    6.0962599   0.81656126 
    1500     236.8619   -250.70056    263624.46   -25808.923    1916.8995   -27725.823     6.471064   0.81656126 
    1600    242.46853   -190.15443    263624.46    -25794.94    1962.2734   -27757.214    6.9104983   0.81656126 
    1700    243.89943   -346.32106    263624.46   -25811.988    1973.8535   -27785.841    7.3546532   0.81656126 
    1800    242.60314   -336.49679    263624.46   -25767.355    1963.3628   -27730.717     7.648094   0.81656126 
    1900    245.89925   -341.25539    263624.46   -25717.057    1990.0379   -27707.095    8.1087647   0.81656126 
    2000    246.19413   -182.58134    263624.46   -25706.003    1992.4243   -27698.427    8.4698136   0.81656126 
    2100    240.62211   -255.35045    263624.46   -25807.358    1947.3305   -27754.688    8.7307755   0.81656126 
    2200    238.63946   -240.09246    263624.46   -25785.082    1931.2851   -27716.367    9.1819774   0.81656126 
    2300    240.56458   -289.91474    263624.46   -25758.216    1946.8649   -27705.081    9.6726155   0.81656126 
    2400    243.65609   -400.65144    263624.46   -25750.141    1971.8842   -27722.025    9.8390574   0.81656126 
    2500    235.87383   -255.98659    263624.46   -25765.485    1908.9032   -27674.388    9.9776856   0.81656126 
    2600    242.33223    -292.3957    263624.46   -25773.069    1961.1703    -27734.24    10.433583   0.81656126 
    2700    241.74119   -340.99868    263624.46   -25761.208    1956.3871   -27717.595    10.893459   0.81656126 
    2800    243.43718    -264.4059    263624.46   -25705.368    1970.1126   -27675.481    11.391622   0.81656126 
    2900    242.10161   -267.43295    263624.46    -25713.64    1959.3039   -27672.944     11.76385   0.81656126 
    3000    243.90612   -411.76047    263624.46   -25703.529    1973.9077   -27677.437    12.371904   0.81656126 
    3100    245.73378   -356.12835    263624.46   -25689.649    1988.6987   -27678.348    12.770372   0.81656126 
    3200    240.48521   -416.18972    263624.46   -25760.064    1946.2226   -27706.287    13.098564   0.81656126 
    3300    233.12405   -250.14709    263624.46   -25853.211    1886.6495    -27739.86    13.388831   0.81656126 
    3400    239.49058   -289.01063    263624.46   -25805.059    1938.1731   -27743.232    13.701667   0.81656126 
    3500    236.43023   -234.88472    263624.46    -25807.57     1913.406   -27720.976    14.006964   0.81656126 
    3600    239.36021   -202.94229    263624.46   -25796.291    1937.1181   -27733.409    14.373206   0.81656126 
    3700    242.49195   -336.18255    263624.46   -25774.123    1962.4629   -27736.586    14.775609   0.81656126 
    3800    241.02512   -235.38916    263624.46   -25756.153     1950.592   -27706.745    14.906946   0.81656126 
    3900    240.77499   -145.31983    263624.46   -25764.474    1948.5677   -27713.042     15.08256   0.81656126 
    4000    236.15241   -297.01545    263624.46   -25800.097    1911.1577   -27711.255    15.416619   0.81656126 
    4100    239.88868   -253.78744    263624.46   -25793.506    1941.3949   -27734.901    15.780833   0.81656126 
    4200      243.063   -304.96511    263624.46   -25768.861    1967.0844   -27735.945    16.179612   0.81656126 
    4300    234.38647   -189.42161    263624.46   -25845.689    1896.8661   -27742.555    16.212131   0.81656126 
    4400    243.31105   -241.64133    263624.46   -25787.218    1969.0918    -27756.31    16.402159   0.81656126 
    4500    234.18808   -356.32458    263624.46   -25812.738    1895.2605   -27707.998    16.908692   0.81656126 
    4600     233.9055   -264.04976    263624.46   -25856.033    1892.9736   -27749.006    17.173947   0.81656126 
    4700    240.81095   -186.73762    263624.46    -25786.42    1948.8588   -27735.279    17.692665   0.81656126 
    4800    242.48181   -79.243849    263624.46   -25750.296    1962.3809   -27712.677    18.198272   0.81656126 
    4900    241.67117   -242.40624    263624.46    -25664.78    1955.8205     -27620.6    18.860707   0.81656126 
    5000    238.19537   -366.31131    263624.46   -25722.514    1927.6911   -27650.205    19.193592   0.81656126 
    5100    240.97065   -333.06812    263624.46   -25680.314    1950.1512   -27630.466    19.235097   0.81656126 
    5200    237.89205   -278.26511    263624.46   -25712.051    1925.2364   -27637.287    19.524985   0.81656126 
    5300    237.37421   -261.40864    263624.46   -25784.616    1921.0455   -27705.662    19.828829   0.81656126 
    5400     239.7132   -134.61125    263624.46   -25777.663    1939.9748   -27717.637    20.224315   0.81656126 
    5500    235.88664   -196.79694    263624.46   -25770.473    1909.0068    -27679.48    20.574848   0.81656126 
    5600    237.62657   -252.87402    263624.46   -25788.063    1923.0879   -27711.151    20.802986   0.81656126 
    5700    238.33852   -147.32333    263624.46   -25762.096    1928.8496   -27690.946    21.150151   0.81656126 
    5800     236.2155   -189.08554    263624.46   -25722.505    1911.6682   -27634.173    21.659062   0.81656126 
    5900    235.72651    -242.9328    263624.46   -25745.904    1907.7109   -27653.615    21.953078   0.81656126 
    6000    240.70942   -86.388744    263624.46   -25766.824    1948.0371   -27714.861    22.474061   0.81656126 
    6100    237.94726   -328.00313    263624.46   -25786.182    1925.6832   -27711.865    22.717281   0.81656126 
    6200    238.34084   -317.89351    263624.46   -25793.391    1928.8684   -27722.259    23.248215   0.81656126 
    6300    236.35981   -341.20886    263624.46   -25723.851    1912.8361   -27636.687    23.529672   0.81656126 
    6400     240.7819   -326.56325    263624.46   -25782.105    1948.6236   -27730.729    24.161068   0.81656126 
    6500    245.10648   -95.490222    263624.46   -25812.196     1983.622   -27795.818    24.590834   0.81656126 
    6600    239.28361   -185.44282    263624.46   -25820.143    1936.4982   -27756.642    24.999551   0.81656126 
    6700    239.38929   -329.20193    263624.46    -25859.78    1937.3534   -27797.134    25.531638   0.81656126 
    6800     241.8347   -324.25984    263624.46   -25855.791    1957.1439   -27812.935    25.757056   0.81656126 
    6900    237.82468   -358.69367    263624.46   -25795.984    1924.6912   -27720.676    25.950664   0.81656126 
    7000    238.22691   -250.13938    263624.46   -25787.644    1927.9464   -27715.591    26.349629   0.81656126 
    7100    243.52868   -150.89124    263624.46    -25792.93    1970.8531   -27763.783    26.836964   0.81656126 
    7200    237.64731   -361.91914    263624.46   -25862.645    1923.2557   -27785.901    26.987599   0.81656126 
    7300    229.53369   -304.69733    263624.46   -25902.411    1857.5931   -27760.004    27.164827   0.81656126 
    7400    241.43057   -312.63314    263624.46   -25841.532    1953.8733   -27795.405    27.629716   0.81656126 
    7500    238.54025   -323.40708    263624.46   -25797.874    1930.4822   -27728.356    27.910281   0.81656126 
    7600    244.63913   -369.50964    263624.46   -25748.799    1979.8399   -27728.639    28.634613   0.81656126 
    7700    235.81626   -332.89429    263624.46   -25788.367    1908.4372   -27696.805    29.155345   0.81656126 
    7800    238.08287   -332.92365    263624.46   -25870.115    1926.7807   -27796.896    29.556453   0.81656126 
    7900     232.8671   -210.01428    263624.46    -25835.45      1884.57    -27720.02    29.998584   0.81656126 
    8000    237.38719   -361.80741    263624.46   -25767.103    1921.1506   -27688.254    30.133696   0.81656126 
    8100    244.14854   -301.42946    263624.46   -25726.894    1975.8695   -27702.764    30.451812   0.81656126 
    8200    245.11382   -220.26866    263624.46   -25733.848    1983.6815   -27717.529    30.789658   0.81656126 
    8300    242.76189   -286.11193    263624.46   -25714.968    1964.6475   -27679.615    31.134008   0.81656126 
    8400    244.19284   -245.31227    263624.46   -25714.814    1976.2281   -27691.042    31.496224   0.81656126 
    8500    238.95647   -236.86137    263624.46   -25773.724    1933.8507   -27707.575    31.985297   0.81656126 
    8600    243.05404   -231.64351    263624.46   -25790.599    1967.0119   -27757.611    32.237237   0.81656126 
    8700    236.63914    -301.9164    263624.46   -25814.469    1915.0967   -27729.566    32.695751   0.81656126 
    8800    240.61481   -228.35343    263624.46    -25814.45    1947.2715   -27761.722    33.083339   0.81656126 
    8900    240.20885   -241.57102    263624.46   -25844.314    1943.9861     -27788.3    33.484279   0.81656126 
    9000    241.32279    -189.7201    263624.46   -25829.344     1953.001   -27782.345    34.108845   0.81656126 
    9100    244.58564   -160.91085    263624.46   -25851.782    1979.4069   -27831.189    34.448096   0.81656126 
    9200    245.02404   -405.68689    263624.46   -25809.513    1982.9549   -27792.468    34.761675   0.81656126 
    9300    240.17468   -313.31369    263624.46   -25879.524    1943.7095   -27823.233    35.062864   0.81656126 
    9400    241.72728   -328.21303    263624.46    -25859.35    1956.2745   -27815.625    35.069454   0.81656126 
    9500    237.77011   -173.28663    263624.46   -25882.082    1924.2496   -27806.332    35.537381   0.81656126 
    9600    240.03508   -231.40067    263624.46   -25892.726    1942.5797   -27835.306    35.687486   0.81656126 
    9700    238.48489   -269.87449    263624.46   -25850.432    1930.0342   -27780.466    36.161598   0.81656126 
    9800    236.92559   -311.87272    263624.46    -25776.86    1917.4149   -27694.275    36.612632   0.81656126 
    9900     242.0981   -413.92399    263624.46   -25794.847    1959.2755   -27754.123    37.115495   0.81656126 
   10000     239.9094   -189.60067    263624.46    -25789.37    1941.5626   -27730.933    37.524685   0.81656126 
Loop time of 33.87 on 80 procs for 10000 steps with 9436 atoms

Performance: 127.547 ns/day, 0.188 hours/ns, 295.247 timesteps/s
97.9% CPU use with 80 MPI tasks x no OpenMP threads

MPI task timing breakdown:
Section |  min time  |  avg time  |  max time  |%varavg| %total
---------------------------------------------------------------
Pair    | 0.00053835 | 7.9031     | 29.586     | 374.7 | 23.33
Neigh   | 0.00053167 | 0.24778    | 0.9126     |  62.6 |  0.73
Comm    | 0.013355   | 10.305     | 31.273     | 351.6 | 30.43
Output  | 0.1806     | 0.18083    | 0.18787    |   0.2 |  0.53
Modify  | 0.62384    | 15.072     | 33.536     | 386.8 | 44.50
Other   |            | 0.1611     |            |       |  0.48

Nlocal:        117.950 ave         370 max           0 min
Histogram: 36 1 17 6 0 0 0 0 2 18
Nghost:        755.375 ave        1252 max           0 min
Histogram: 12 0 0 4 0 20 20 0 8 16
Neighs:         0.00000 ave           0 max           0 min
Histogram: 80 0 0 0 0 0 0 0 0 0
FullNghs:      11549.0 ave       44906 max           0 min
Histogram: 51 9 0 0 0 0 0 2 10 8

Total # of neighbors = 923920
Ave neighs/atom = 97.914370
Neighbor list builds = 583
Dangerous builds = 0
write_data 	    ${DIR}/data.${NAME}_eq
write_data 	    run_14/data.${NAME}_eq
write_data 	    run_14/data.ibeam_cooling_14_eq
System init for write_data ...

undump              1
unfix               4



################################################
#######         Run Simulation         #########
################################################

reset_timestep      0
timestep	    10.0
log                 ${DIR}/log.run_${NAME}
log                 run_14/log.run_${NAME}
log                 run_14/log.run_ibeam_cooling_14
