
# Set production fixes - Nose/Hoover
#
fix                 4 water temp/csvr ${START_TEMP} ${END_TEMP} 500.0 928347
fix                 4 water temp/csvr 240 ${END_TEMP} 500.0 928347
fix                 4 water temp/csvr 240 227 500.0 928347


## divide "droplet" into core and surface
#region		core_reg cylinder z 135 135 44.6 20 INF units box
#region		surface_reg cylinder z 135 135 44.6 20 INF units box side out
#group		core dynamic all region core_reg
#group		surface dynamic all region surface_reg

## compute pressure core
#compute        peratom_core core stress/atom NULL
#compute        p_core core reduce sum c_peratom_core[1] c_peratom_core[2] c_peratom_core[3]
#variable       press_core equal -(c_p_core[1]+c_p_core[2]+c_p_core[3])/(3*1249982.5)


## compute pressure surface
#compute        peratom_surf surface stress/atom NULL
#compute        p_surf surface reduce sum c_peratom_surf[1] c_peratom_surf[2] #c_peratom_surf[3]
#variable       press_surf equal -(c_p_surf[1]+c_p_surf[2]+c_p_surf[3])/(3*42395)

## compute total pressure of drop
compute        peratom water stress/atom NULL
compute        p water reduce sum c_peratom[1] c_peratom[2] c_peratom[3]
variable       press equal -(c_p[1]+c_p[2]+c_p[3])/(3*58301)


# compute order parameter
compute        3 all orientorder/atom nnn NULL cutoff 3.5

# compute center of mass of bridge
compute 	4 water com

# Run simulation
thermo_style        custom step c_2 press vol etotal ke pe v_press c_1[4] c_4[*]
thermo              200
dump		     1 water custom 400 ${DIR}/prod.${NAME}.dump id type x y z vx vy vz c_3[*] c_peratom[*]
dump		     1 water custom 400 run_14/prod.${NAME}.dump id type x y z vx vy vz c_3[*] c_peratom[*]
dump		     1 water custom 400 run_14/prod.ibeam_cooling_14.dump id type x y z vx vy vz c_3[*] c_peratom[*]
run                 ${STEPS}
run                 5200000
Neighbor list info ...
  update every 1 steps, delay 0 steps, check yes
  max neighbors/atom: 2000, page size: 100000
  master list distance cutoff = 6.6747184
  ghost atom cutoff = 6.6747184
  binsize = 3.3373592, bins = 48 11 14
  2 neighbor lists, perpetual/occasional/extra = 1 1 0
  (1) pair sw, perpetual
      attributes: full, newton on
      pair build: full/bin/atomonly
      stencil: full/bin/3d
      bin: standard
  (2) compute orientorder/atom, occasional, copy from (1)
      attributes: full, newton on
      pair build: copy
      stencil: none
      bin: none
Per MPI rank memory allocation (min/avg/max) = 6.106 | 6.802 | 7.324 Mbytes
Step c_2 Press Volume TotEng KinEng PotEng v_press c_1[4] c_4[1] c_4[2] c_4[3] 
       0     239.9094   -189.60067    263624.46    -25789.37    1941.5626   -27730.933   -318.67171    37.524685    78.603417    18.376604    27.434405 
     200    244.85057   -302.79888    263624.46   -25813.659     1981.551    -27795.21   -858.78096    39.097682    78.602952    18.374677    27.453731 
     400    238.69117   -237.06807    263624.46   -25803.668    1931.7036   -27735.372   -560.53461    40.995477    78.604291    18.373087    27.466986 
     600    240.96739   -182.87715    263624.46   -25653.913    1950.1248   -27604.038   -281.09606    42.766143    78.602995    18.373666    27.491407 
     800    245.45242   -365.87634    263624.46   -25625.726    1986.4217   -27612.148   -1129.7659    44.414194    78.604106    18.376019    27.480199 
    1000    241.74915   -29.732433    263624.46   -25707.705    1956.4515   -27664.156    455.80159     46.63852    78.603868    18.376938    27.478162 
    1200    240.01014   -296.71676    263624.46   -25696.276    1942.3779   -27638.654   -838.01973     47.90693    78.603753    18.379088    27.485739 
    1400    246.85276   -303.84921    263624.46   -25688.137    1997.7545   -27685.892   -815.27517    48.685451    78.604228    18.379979    27.491389 
    1600     242.8584   -292.33387    263624.46   -25723.426    1965.4286   -27688.855   -772.70714    49.700463    78.605813    18.381364    27.492633 
    1800    243.38894   -51.300694    263624.46   -25685.064    1969.7221   -27654.786    307.93426    50.010819    78.605872    18.384149    27.502168 
    2000    247.89409   -181.62303    263624.46   -25597.444    2006.1819   -27603.626    -291.3034    51.949509    78.605472    18.385425    27.502354 
    2200    241.61369   -192.17841    263624.46   -25657.812    1955.3552   -27613.168   -322.94415    52.898417    78.605778    18.386672    27.500187 
    2400    240.99679   -317.37681    263624.46    -25663.33    1950.3628   -27613.693   -910.54884    54.827587    78.605347    18.388065    27.508125 
    2600    236.23852   -300.51518    263624.46   -25718.362    1911.8545   -27630.216   -832.25287     56.73714    78.604466    18.389806    27.509667 
    2800    239.04295   -252.88624    263624.46   -25608.888    1934.5505   -27543.439   -618.03165    58.825667    78.604295    18.390632    27.522433 
    3000    241.22356   -84.650189    263624.46   -25656.351     1952.198   -27608.549    114.61958    60.730686    78.602657    18.391744     27.52092 
    3200    241.21514   -171.69469    263624.46   -25728.098    1952.1298   -27680.227     -255.318    62.397523    78.601511    18.390554    27.515068 
    3400    236.47038   -436.32721    263624.46   -25752.425     1913.731   -27666.156   -1426.2921    64.192177    78.602271    18.388824    27.514514 
    3600    239.11509   -370.65665    263624.46    -25768.52    1935.1343   -27703.655   -1169.4561    65.701084     78.60284    18.389194    27.508346 
    3800    243.73972   -240.61038    263624.46   -25725.894     1972.561   -27698.455   -536.85394    67.156138    78.603492    18.389083    27.509079 
    4000     236.3151   -381.13385    263624.46   -25760.358    1912.4743   -27672.832   -1229.3619    67.909247    78.603205    18.389849    27.504009 
    4200    239.18706   -210.79533    263624.46   -25717.494    1935.7168   -27653.211   -466.88631     68.88236    78.604525    18.391211    27.513698 
    4400    235.45101   -46.338634    263624.46   -25726.838    1905.4813    -27632.32    269.28744    69.967772    78.605768    18.390187    27.511079 
    4600    236.22778   -278.95252    263624.46   -25821.269    1911.7677   -27733.037   -760.85316     71.01803     78.60634    18.391057     27.50746 
    4800    240.84022   -339.65428    263624.46   -25710.314    1949.0957   -27659.409   -1015.6136    72.154087    78.605485    18.390861    27.498582 
    5000    241.16021   -315.94194    263624.46   -25734.558    1951.6853   -27686.243   -888.83502    73.266231    78.605579    18.391251    27.490184 
    5200    239.19988   -394.01081    263624.46   -25733.088    1935.8205   -27668.909   -1250.6326    74.535503    78.606295    18.391122     27.48811 
    5400    239.36239   -217.77245    263624.46   -25741.607    1937.1357   -27678.743   -464.94611    76.501938    78.606687    18.391557    27.493828 
    5600    234.06718   -236.27559    263624.46   -25757.989    1894.2821   -27652.271   -555.32742    77.138296    78.607175    18.389521    27.521142 
    5800    242.96273   -159.41503    263624.46   -25727.801    1966.2729   -27694.073   -206.50292    78.818998    78.607283    18.390586    27.531615 
    6000    239.30648   -312.81776    263624.46   -25754.376    1936.6832   -27691.059   -904.96223    80.104489    78.608768    18.392792    27.532471 
    6200    236.58165   -327.43259    263624.46   -25752.355    1914.6314   -27666.987   -945.67706    81.593801    78.607464    18.392886    27.526157 
    6400     238.8834   -218.23056    263624.46   -25757.347    1933.2593   -27690.606   -470.25322    83.348449    78.606201    18.393906    27.506134 
    6600    237.23352   -319.41455    263624.46   -25761.257     1919.907   -27681.164   -916.60257    84.176279    78.605335    18.394439    27.508466 
    6800    238.61319   -322.79367    263624.46   -25755.745    1931.0725   -27686.818   -959.05967    86.312767    78.605459    18.395155    27.509591 
    7000     241.1166   -288.78246    263624.46    -25744.72    1951.3324   -27696.052   -792.71017    87.501748    78.607257    18.394924    27.496265 
    7200    234.69296   -257.67148    263624.46   -25866.796    1899.3465   -27766.143   -629.11953    88.942982    78.609027    18.392282    27.471941 
    7400    238.17067   -279.78108    263624.46   -25795.931    1927.4913   -27723.422   -748.44481    89.575423    78.611949    18.391711    27.474035 
    7600    244.77439   -220.62036    263624.46   -25670.225    1980.9345   -27651.159    -481.5071    90.435209    78.613205    18.388538    27.478654 
    7800    232.39216    -239.6839    263624.46   -25820.919    1880.7264   -27701.646   -589.29952    91.349282    78.613981    18.388955    27.478347 
    8000    243.00405   -307.77975    263624.46   -25689.031    1966.6073   -27655.638   -894.91785    93.336692    78.612974    18.393049    27.468331 
    8200    242.59863   -185.05015    263624.46   -25701.752    1963.3263   -27665.078   -323.96844     94.83402    78.612659    18.398065    27.471216 
    8400    246.78447   -444.09764    263624.46   -25662.587    1997.2019   -27659.789   -1476.1725    97.408664    78.611739    18.400831    27.475971 
    8600    239.16832   -236.51769    263624.46   -25723.008    1935.5651   -27658.573   -576.80625    99.219229    78.609938    18.403542    27.484653 
    8800    238.18237   -101.08091    263624.46    -25743.35     1927.586   -27670.936    71.710253    101.59855    78.608429     18.40579    27.477034 
    9000     245.8956   -400.11467    263624.46   -25720.227    1990.0084   -27710.236   -1284.1243    103.32422     78.60845    18.405909     27.46776 
    9200    240.00501   -288.49523    263624.46    -25650.16    1942.3364   -27592.496   -872.77635    105.53433    78.609344    18.404573    27.492367 
    9400    235.28949   -236.30331    263624.46   -25699.705    1904.1742   -27603.879   -582.37629    106.15655    78.609954    18.406445    27.512865 
    9600    244.16461   -187.32439    263624.46   -25741.898    1975.9996   -27717.897    -341.6335    107.76031    78.608948    18.407845     27.52092 
    9800    244.06704   -218.77565    263624.46     -25655.6      1975.21    -27630.81   -477.73724    109.53056    78.608708    18.409083    27.504471 
   10000    242.64002   -253.01715    263624.46   -25722.493    1963.6613   -27686.154   -605.08641    111.45188     78.60879    18.407485    27.476606 
   10200    244.03923   -224.71976    263624.46    -25656.36    1974.9849   -27631.345    -501.9203    114.44181    78.609238    18.406447    27.470151 
   10400    244.87799   -311.36478    263624.46   -25651.399    1981.7729   -27633.172   -853.80784    115.25594    78.609523    18.406633    27.479575 
   10600    239.81798   -144.76125    263624.46   -25691.861    1940.8228   -27632.684   -128.39526    115.42413    78.610569    18.407948    27.478311 
   10800    236.79891   -231.27049    263624.46   -25760.414    1916.3897   -27676.804    -514.5528    117.96702    78.611673     18.40956    27.486323 
   11000    239.56313   -109.65948    263624.46   -25742.682    1938.7603   -27681.443    40.402823    119.61247    78.611914    18.407007    27.482552 
   11200     233.1464   -281.95849    263624.46   -25752.338    1886.8303   -27639.168   -736.59317    121.20006    78.612009    18.406291    27.486045 
   11400    242.83393   -203.81525    263624.46   -25734.201    1965.2305   -27699.431   -396.89042    123.45767    78.613298    18.406691    27.479463 
   11600    245.99806   -300.95315    263624.46   -25660.357    1990.8376   -27651.195   -861.90189    125.22646    78.612832    18.405475    27.475397 
   11800     241.4425   -234.55354    263624.46   -25687.833    1953.9698   -27641.802   -522.79596     125.9317    78.612336    18.407203    27.471226 
   12000    242.03568   -203.82341    263624.46   -25705.038    1958.7704   -27663.809   -382.41508    127.51754    78.612178    18.408276    27.452595 
   12200     242.3549   -373.61896    263624.46   -25715.683    1961.3538   -27677.037   -1176.6689    130.03114    78.613917     18.40892    27.445696 
   12400    236.55993   -350.11436    263624.46   -25779.528    1914.4557   -27693.984   -1076.2348    131.92465    78.614236    18.408804    27.451166 
   12600    240.95534   -171.33503    263624.46   -25719.511    1950.0273   -27669.539   -252.02511    134.31179     78.61293    18.405821    27.447942 
   12800    242.85704   -308.85405    263624.46   -25753.889    1965.4176   -27719.306   -866.65612    136.31789    78.610569    18.404465    27.452607 
   13000    235.62194     -345.704    263624.46   -25775.026    1906.8646   -27681.891   -1084.0812    137.43225    78.609895     18.40663    27.453066 
   13200    240.81935   -304.30453    263624.46    -25789.23    1948.9268   -27738.157   -840.21459    137.63592    78.611425    18.407151    27.465905 
   13400    237.34525   -266.61973    263624.46    -25823.68    1920.8112   -27744.491    -700.1276    138.89984    78.611571    18.408329    27.489513 
   13600      237.115   -373.99121    263624.46   -25770.503    1918.9478   -27689.451   -1169.0329     140.6294    78.612015    18.409528    27.524039 
   13800    241.05358   -214.80631    263624.46    -25700.79    1950.8223   -27651.612   -482.59451     141.6781    78.611317    18.409942    27.515271 
   14000    235.68512   -266.99136    263624.46   -25617.863    1907.3759   -27525.239   -684.04572    143.37048    78.610797    18.410951    27.512094 
   14200    236.77733   -345.68246    263624.46   -25735.796    1916.2151   -27652.011   -1070.4955    144.13944    78.611072    18.410202    27.514179 
   14400    239.81228   -280.49774    263624.46   -25781.333    1940.7766   -27722.109   -738.45431    145.38918    78.610058     18.41133    27.528624 
   14600    236.68912   -100.21713    263624.46   -25784.766    1915.5012   -27700.267    77.827247    146.51733     78.61135    18.412425    27.544169 
   14800    243.78525   -358.19915    263624.46   -25708.898    1972.9295   -27681.827   -1086.9112    148.30906     78.61236    18.413276    27.551937 
   15000    237.76978   -181.07796    263624.46   -25694.645    1924.2469   -27618.892   -356.49809    149.83793    78.612689     18.41109    27.550522 
   15200    238.53166   -227.17658    263624.46   -25657.461    1930.4127   -27587.874   -517.18902    150.51546    78.612699     18.41153    27.531884 
   15400    235.77096   -302.71632    263624.46   -25728.242    1908.0706   -27636.313   -869.44438    152.81456    78.613831    18.412823    27.531668 
   15600    250.56829   -397.67946    263624.46    -25597.08    2027.8239   -27624.904   -1300.1083    154.62896    78.613155     18.41272    27.533769 
   15800    245.79532   -297.46639    263624.46   -25636.955    1989.1968   -27626.152   -866.69507    154.58187    78.613534    18.414266    27.527246 
   16000    240.04332   -164.71374    263624.46   -25728.773    1942.6465   -27671.419   -254.79869    155.28642    78.614515    18.415534    27.531991 
   16200    241.25154   -88.550886    263624.46   -25707.246    1952.4244   -27659.671    110.19685    156.54599    78.613417    18.414285    27.522885 
   16400    238.27024   -429.62681    263624.46   -25762.625    1928.2971   -27690.922   -1413.5962    157.48193    78.614148    18.411856    27.519342 
   16600    242.62514   -196.58365    263624.46   -25711.548    1963.5408   -27675.088   -390.88557    158.82283    78.613971    18.409691    27.509692 
   16800    244.09691   -263.67381    263624.46   -25706.321    1975.4517   -27681.773   -652.06698    160.41411    78.614022     18.40888    27.486239 
   17000    237.17166   -385.04838    263624.46   -25779.063    1919.4064    -27698.47   -1223.6547    161.53439    78.613647     18.40785    27.482801 
   17200    239.61295   -161.44995    263624.46   -25786.679    1939.1635   -27725.843   -244.98082    162.95461     78.61362    18.405616    27.484209 
   17400    237.49153   -244.72479    263624.46   -25840.642    1921.9951   -27762.637   -583.25118    165.62022    78.614696    18.403791    27.487034 
   17600    238.05024   -55.463867    263624.46   -25751.936    1926.5166   -27678.453    241.53428     167.6549    78.614942    18.401934    27.510321 
   17800    238.07069   -242.63629    263624.46   -25766.571    1926.6821   -27693.254   -575.05995    167.92346     78.61573    18.402295    27.524358 
   18000    239.74659   -160.05478    263624.46   -25704.717     1940.245   -27644.962   -191.06208    170.39569    78.617652    18.402096    27.529362 
   18200    232.55185   -332.77552    263624.46   -25705.748    1882.0187   -27587.767   -1021.0559    172.61705    78.616848    18.401284    27.525637 
   18400    241.76606   -322.96537    263624.46    -25684.93    1956.5884   -27641.518   -949.96013    176.98694    78.615481    18.399789    27.533909 
   18600    239.92631   -267.23198    263624.46    -25643.98    1941.6994    -27585.68   -682.94434    177.70724    78.613969    18.398778     27.53506 
   18800     239.7751   -411.34779    263624.46   -25731.298    1940.4757   -27671.774   -1318.0632    177.80119    78.615114    18.396984    27.539666 
   19000    245.74614   -146.99664    263624.46   -25639.398    1988.7988   -27628.197   -160.10243    180.55889     78.61521    18.396836    27.551231 
   19200    236.09865   -190.52635    263624.46     -25696.5    1910.7226   -27607.222   -342.11733    183.43671    78.615529    18.397769    27.542834 
   19400    247.52137   -367.96237    263624.46   -25667.868    2003.1655   -27671.034   -1139.7369    184.28159    78.617383    18.396684    27.538353 
   19600    234.39778   -244.25521    263624.46   -25677.304    1896.9576   -27574.262   -589.13313    184.32733    78.618891    18.395116    27.536904 
   19800     234.5516   -175.29801    263624.46   -25696.826    1898.2025   -27595.029   -286.91239    183.73254    78.618675    18.396554    27.539152 
   20000    241.73813   -173.92763    263624.46   -25698.207    1956.3624    -27654.57   -295.08592    185.71036    78.619538     18.39906    27.514918 
   20200    232.09196   -230.00254    263624.46   -25738.097    1878.2968   -27616.394   -530.75614    186.10137    78.618298    18.399539    27.526822 
   20400    241.37213   -374.63094    263624.46    -25612.63    1953.4003   -27566.031   -1192.7901    187.72944    78.617638    18.399332    27.511393 
   20600    234.72864   -340.42709    263624.46   -25707.836    1899.6352   -27607.471   -985.88736    190.67602    78.618024    18.400159    27.508137 
   20800    238.97712   -261.29669    263624.46   -25634.048    1934.0178   -27568.066   -668.97607    192.65031    78.619097    18.403617    27.491203 
   21000    245.36108   -292.86785    263624.46    -25673.78    1985.6825   -27659.463   -819.51432    193.31108    78.617901    18.405038    27.493829 
   21200    246.92292   -259.51307    263624.46   -25665.672    1998.3223   -27663.994   -660.69207    195.11797    78.618447    18.405009     27.49808 
   21400     236.5125   -237.12027    263624.46   -25720.806    1914.0718   -27634.877   -539.85798    195.79141    78.619792    18.404638    27.520311 
   21600    242.09346   -264.14178    263624.46    -25617.71     1959.238   -27576.948   -645.68118    196.89202    78.618909     18.40449     27.54171 
   21800    244.05016   -293.67142    263624.46   -25729.742    1975.0733   -27704.815   -815.60514    197.32669    78.618722     18.40567     27.52628 
   22000     236.7269   -258.64221    263624.46   -25779.357    1915.8069   -27695.164   -626.99978    198.20683    78.619014    18.403824    27.533694 
   22200     230.4953   -195.74833    263624.46   -25829.771    1865.3753   -27695.146   -375.19326    199.78868    78.618291    18.402955    27.548022 
   22400    237.78267   -260.94727    263624.46   -25687.494    1924.3512   -27611.846   -698.53795    201.98912    78.617469    18.403634    27.539713 
   22600    239.13088   -341.58613    263624.46    -25708.37    1935.2621   -27643.632   -1034.4286    204.33097    78.618223     18.40471    27.533237 
   22800    243.71673   -184.31338    263624.46   -25700.913     1972.375   -27673.288   -297.75423    205.41261    78.616236    18.402921    27.520164 
   23000    243.10641   -470.11336    263624.46   -25760.752    1967.4357   -27728.188   -1610.6505     206.8238    78.616505    18.403219    27.520165 
   23200    236.69862   -237.78485    263624.46   -25660.934    1915.5781   -27576.512   -562.05497    209.05639    78.616391    18.405624    27.500085 
   23400    242.73479   -182.35645    263624.46   -25663.712    1964.4282    -27628.14   -374.92127    210.08945     78.61645    18.406798    27.495312 
   23600    238.23394   -301.71763    263624.46   -25580.624    1928.0033   -27508.627   -837.00911    210.72928      78.6146    18.408276     27.47897 
   23800    238.01072   -283.67194    263624.46    -25635.63    1926.1968   -27561.827   -789.30348    210.64225    78.613339     18.41098    27.461788 
   24000    235.22264    -264.3841    263624.46   -25706.659    1903.6332   -27610.292   -703.58698    211.99063    78.614234     18.41187    27.456919 
   24200    242.60902   -221.12061    263624.46   -25700.597    1963.4104   -27664.007    -468.8681    213.87637    78.614323    18.411754    27.441845 
   24400    241.87515   -327.12881    263624.46    -25743.47    1957.4712   -27700.942   -959.33039     216.7862     78.61459    18.411392    27.430952 
   24600     237.6931   -377.01029    263624.46   -25790.095    1923.6263   -27713.721   -1183.5846    217.64608    78.614389    18.412953    27.435481 
   24800    241.22608    2.2931233    263624.46   -25743.927    1952.2184   -27696.145    524.63463    218.17421    78.615257    18.412581     27.43275 
   25000    241.01837   -357.02182    263624.46   -25726.649    1950.5374   -27677.186    -1071.715    219.57462    78.616108     18.41095    27.444773 
   25200    233.12165   -489.26922    263624.46     -25847.3    1886.6301    -27733.93   -1643.3388    220.54051    78.616043    18.407661    27.430259 
   25400    241.90999   -279.99635    263624.46   -25739.205    1957.7532   -27696.959   -710.83863     222.7236    78.615021    18.405374    27.417458 
   25600    249.07116   -203.43102    263624.46   -25640.549    2015.7078   -27656.257   -402.17947    224.07279    78.613903    18.405474     27.42505 
   25800    244.03361   -251.05322    263624.46   -25621.032    1974.9395   -27595.972   -557.10825    224.55272    78.613224    18.404964    27.429964 
   26000    242.52493   -289.57498    263624.46   -25705.034    1962.7298   -27667.764   -750.13933     226.1119    78.613061    18.405826     27.45123 
   26200    236.41239   -267.71893    263624.46   -25745.406    1913.2617   -27658.668   -706.77641    228.53596    78.614725    18.404633    27.434943 
   26400    238.70267   -369.21348    263624.46    -25766.48    1931.7966   -27698.276   -1118.8159    229.61308    78.612894    18.406201    27.434791 
   26600    247.79685   -347.61087    263624.46   -25646.619    2005.3949   -27652.014   -1061.5283    231.29461    78.613484    18.405299    27.429394 
   26800    243.76002   -166.51589    263624.46   -25692.571    1972.7253   -27665.296   -229.85039    232.96729    78.612586    18.401936    27.423465 
   27000    241.23856   -332.61174    263624.46   -25665.533    1952.3194   -27617.852   -998.11299    233.18784    78.612793    18.401124    27.408941 
   27200    235.04228   -138.83953    263624.46   -25667.107    1902.1735   -27569.281   -141.21081    234.10292    78.612308    18.400703    27.389965 
   27400    248.31948   -181.29735    263624.46   -25631.868    2009.6246   -27641.493   -311.96833    235.60417    78.613478    18.401653    27.371413 
   27600    229.92939   -335.35476    263624.46   -25790.827    1860.7954   -27651.623   -977.41822    237.87148    78.613692    18.399492    27.378978 
   27800    247.84532   -265.59325    263624.46   -25660.039    2005.7872   -27665.826   -663.69307    237.31315    78.613782    18.399615     27.38204 
   28000    240.47008   -305.96204    263624.46   -25818.932    1946.1001   -27765.032   -821.91595    238.59256    78.613441    18.398749    27.387723 
   28200    242.80587   -81.275115    263624.46   -25773.253    1965.0035   -27738.257    160.61861    239.31942    78.613854    18.395354    27.396977 
   28400    237.14697   -432.75325    263624.46   -25753.585    1919.2065   -27672.791   -1421.8572    241.27993    78.615029    18.393733    27.399018 
   28600    235.07997   -199.48504    263624.46   -25808.297    1902.4785   -27710.776   -351.69585    241.70895    78.616284    18.393515     27.39594 
   28800    241.88789   -297.81019    263624.46   -25805.709    1957.5743   -27763.284   -781.13656    241.85294    78.616577    18.391767    27.391657 
   29000     247.0037   -81.693331    263624.46   -25760.051     1998.976   -27759.027    156.43129    241.45152     78.61711    18.390575    27.398457 
   29200    243.64501   -175.12117    263624.46   -25718.269    1971.7945   -27690.064   -253.54809    243.80261    78.615777    18.391427    27.388452 
   29400    238.45805   -323.49202    263624.46   -25766.591     1929.817   -27696.408   -902.71762    247.33172    78.614833    18.390041    27.389568 
   29600    242.72288   -108.15604    263624.46   -25729.986    1964.3319   -27694.318    4.9220234    248.44465    78.613824    18.386724    27.413202 
   29800      232.058   -322.18521    263624.46   -25838.797    1878.0221   -27716.819   -938.87989    251.08664    78.614372    18.385478    27.412206 
   30000    236.44564   -239.63751    263624.46   -25825.185    1913.5307   -27738.716   -535.29707    251.89677    78.614845    18.383971    27.405326 
   30200    236.81348   -193.84977    263624.46   -25752.339    1916.5077   -27668.846   -343.63434    253.99292    78.616951    18.382571    27.414438 
   30400    243.81955   -222.84855    263624.46    -25714.31    1973.2071   -27687.517   -466.30903    255.82743     78.61729    18.380648    27.417401 
   30600    240.33131   -234.43088    263624.46   -25769.536    1944.9771   -27714.514   -521.55841     257.0966    78.616977    18.378919    27.406564 
   30800    238.31351    -228.1845    263624.46   -25715.281    1928.6472   -27643.929   -509.93282    258.41774    78.617246    18.378007    27.406084 
   31000    240.96978    -383.0112    263624.46   -25710.433    1950.1441   -27660.577   -1176.2883    259.80489    78.617118     18.37689    27.391047 
   31200       242.02   -262.29243    263624.46   -25692.627    1958.6435    -27651.27   -634.21076    260.44567    78.618677    18.376014    27.394615 
   31400    239.88582   -355.36956    263624.46   -25668.955    1941.3718   -27610.326   -1081.6578    261.24778    78.617136    18.374969    27.385406 
   31600    239.18122   -226.92195    263624.46   -25684.114    1935.6695   -27619.783   -486.27637     261.5488    78.616467    18.373381    27.383946 
   31800    244.14082   -189.39543    263624.46   -25638.391    1975.8071   -27614.198    -340.7461    262.14875    78.616085    18.374288    27.393487 
   32000    240.86544   -327.34688    263624.46   -25739.131    1949.2998   -27688.431   -975.95577    265.43336    78.616488    18.376067    27.410841 
   32200    236.85366   -186.92162    263624.46   -25820.018    1916.8328   -27736.851    -358.4655    269.12744    78.615511    18.377373    27.394292 
   32400    238.84876   -486.96119    263624.46   -25773.587     1932.979   -27706.566   -1656.3188    270.39702    78.616111    18.377586    27.383756 
   32600    236.81515   -232.82876    263624.46   -25632.984    1916.5212   -27549.505   -551.74177     272.5716    78.617654    18.379428    27.393155 
   32800    235.87755   -356.47123    263624.46   -25613.789    1908.9332   -27522.723   -1092.8003    273.45723    78.616192    18.380515    27.406973 
   33000    235.78051   -321.69224    263624.46   -25625.916     1908.148   -27534.064    -919.1567    274.28309    78.617108    18.381514    27.403699 
   33200    237.40993   -81.290521    263624.46   -25664.283    1921.3346   -27585.617    151.88199    274.98829    78.617049    18.381827    27.414807 
   33400    237.15742    -257.2896    263624.46   -25646.902    1919.2911   -27566.193   -640.37695    277.77251    78.618124    18.379871    27.419409 
   33600    236.29323   -360.47019    263624.46   -25737.694    1912.2974   -27649.992   -1115.9408    279.85005    78.618598    18.378289    27.421353 
   33800    244.05678   -303.76376    263624.46   -25624.016    1975.1269   -27599.143   -858.04737    280.96429    78.619071    18.373097    27.430066 
   34000    241.38653   -322.20903    263624.46   -25735.612    1953.5169   -27689.129   -921.27198    284.23886    78.618137    18.370585    27.439258 
   34200    240.22688    -451.6504    263624.46   -25743.813     1944.132   -27687.945   -1553.4938    283.83816    78.616598     18.37119    27.442499 
   34400     234.8583   -325.24202    263624.46   -25721.635    1900.6845   -27622.319   -926.88389     287.5439    78.615613    18.370345    27.453993 
   34600    242.11566   -328.91141    263624.46   -25577.111    1959.4176   -27536.529    -966.6598    289.34925    78.614478    18.370611    27.452663 
   34800    241.49394   -271.71955    263624.46   -25690.918    1954.3861   -27645.304   -696.77641     291.0187    78.613314    18.369117    27.448509 
   35000    243.94089   -315.71076    263624.46   -25744.797     1974.189   -27718.986     -889.807    293.22188    78.614545    18.369226    27.457667 
   35200    240.59457   -190.29961    263624.46   -25732.351    1947.1076   -27679.458   -346.03427    294.53432    78.614524    18.371599    27.472337 
   35400    238.95745   -283.37559    263624.46   -25782.222    1933.8585   -27716.081   -715.91792    294.85578    78.614935    18.372673     27.48939 
   35600    239.99593   -259.57761    263624.46   -25758.035    1942.2629   -27700.298   -616.74776    295.19789    78.615377    18.374737      27.4948 
   35800    253.01364   -276.64347    263624.46   -25630.058    2047.6139   -27677.672   -709.17245    298.35327    78.612757    18.375828    27.488373 
   36000    236.20865   -255.07808    263624.46   -25717.236    1911.6128   -27628.849   -637.40476    300.83023    78.610049     18.37889    27.473066 
   36200    236.87944   -252.31595    263624.46   -25717.308    1917.0415   -27634.349   -580.95126    302.04111    78.609245    18.378087    27.463866 
   36400    242.49447   -250.82247    263624.46   -25700.053    1962.4833   -27662.536   -603.10344    304.60948    78.609284    18.376672    27.452532 
   36600    235.86896   -175.26837    263624.46   -25675.806    1908.8637    -27584.67   -255.89775    305.36086    78.608071    18.377746    27.458818 
   36800    238.38546   -206.55094    263624.46    -25809.03    1929.2295   -27738.259   -395.99157    305.21964    78.607753    18.378435    27.476191 
   37000    240.46182   -192.48688    263624.46   -25759.364    1946.0333   -27705.398   -351.81668    307.39791    78.608123    18.379131    27.475938 
   37200    236.42305   -452.21523    263624.46   -25806.682     1913.348    -27720.03   -1489.0066    309.14571    78.607749    18.380437    27.467695 
   37400    234.73285   -143.22818    263624.46   -25814.136    1899.6693   -27713.806    -128.2198     310.2083    78.606336    18.381402    27.463809 
   37600    236.93742   -137.77038    263624.46   -25787.071    1917.5107   -27704.582   -113.14547    311.41366    78.606209    18.381295    27.477492 
   37800    230.63625    -326.7123    263624.46   -25888.342    1866.5159   -27754.858   -941.47714     312.1223     78.60704    18.381279    27.479454 
   38000    237.09596   -240.48835    263624.46   -25771.678    1918.7937   -27690.471    -595.8423    312.26239    78.607281    18.381347    27.483356 
   38200    242.16535   -239.02978    263624.46    -25738.16    1959.8198    -27697.98   -534.15528    312.12349    78.606905    18.378399    27.488409 
   38400    239.01147   -235.11082    263624.46   -25701.141    1934.2957   -27635.437   -520.65749    311.37446    78.608162     18.37332    27.474892 
   38600    240.27417   -280.25553    263624.46    -25679.81    1944.5147   -27624.325   -717.54774    310.85024    78.606246    18.372042    27.477804 
   38800    237.05065   -252.17872    263624.46   -25759.154     1918.427   -27677.581   -642.26931    313.42286    78.604105    18.371624    27.472334 
   39000    237.14465   -254.36769    263624.46   -25652.428    1919.1878   -27571.616   -637.71437    317.00857     78.60333    18.369559    27.490175 
   39200    239.33625   -206.31566    263624.46   -25756.821    1936.9242   -27693.746    -434.5063    318.39618    78.602815    18.369013    27.476013 
   39400    243.94857   -263.74389    263624.46   -25693.769    1974.2512    -27668.02     -649.314    323.30231    78.603486     18.36949     27.49432 
   39600    243.67004   -441.03169    263624.46    -25713.82    1971.9971   -27685.817   -1491.3032    325.15414    78.602584    18.368959    27.506142 
   39800    239.29129   -238.99403    263624.46   -25751.788    1936.5603   -27688.348   -538.49609    327.07996    78.603173    18.369077    27.514646 
   40000    237.17215   -319.80309    263624.46   -25739.795    1919.4104   -27659.206   -903.77602    328.58984    78.602812    18.369198    27.511491 
   40200    240.53546   -166.76626    263624.46   -25713.174    1946.6292   -27659.803   -222.46518    327.45728    78.602238    18.369256    27.505781 
   40400     234.9956   -215.34248    263624.46   -25777.189    1901.7957   -27678.985   -464.83443     330.2935    78.601412    18.370639    27.523115 
   40600    240.84287   -184.77489    263624.46   -25710.515    1949.1171   -27659.632   -296.86741    331.24935    78.601602    18.370658    27.537345 
   40800    234.55701    -440.7032    263624.46   -25676.122    1898.2463   -27574.369   -1438.1149    330.56895    78.601455    18.372579    27.547218 
   41000    239.01212   -355.29898    263624.46   -25745.976     1934.301   -27680.277   -1035.1979    332.59104     78.60179    18.373268    27.559704 
   41200    244.57748   -356.69111    263624.46   -25654.175     1979.341   -27633.516   -1054.2696    332.88577    78.602925    18.373336    27.564607 
   41400    238.82781   -280.68052    263624.46   -25720.132    1932.8094   -27652.942   -728.83395    335.43094    78.604143    18.376181    27.568839 
   41600    240.39138   -201.45912    263624.46   -25692.039    1945.4632   -27637.502   -383.25886    336.79488    78.603558    18.375871    27.584765 
   41800    237.05769   -419.44974    263624.46   -25699.282     1918.484   -27617.766   -1379.2201    338.66143    78.602868    18.374142    27.580343 
   42000    233.27883   -300.58552    263624.46   -25723.432    1887.9021   -27611.334   -839.87887    341.29102     78.60244     18.37267    27.582317 
   42200    238.42991   -130.76654    263624.46    -25725.49    1929.5892    -27655.08   -100.49765    341.85888    78.602027    18.372906    27.587307 
   42400    237.05815   -442.38427    263624.46   -25686.854    1918.4877   -27605.341    -1493.717    343.22981    78.601432    18.372338    27.581655 
   42600    240.01485    -398.5379    263624.46   -25686.441     1942.416   -27628.857     -1295.16    343.63725    78.602287    18.373192    27.581917 
   42800    244.05196   -230.93202    263624.46   -25668.026    1975.0879   -27643.114   -531.82074    345.21005    78.604424    18.373013    27.580498 
   43000    234.25622   -196.39122    263624.46   -25666.596     1895.812   -27562.408   -413.07396    346.80092    78.603615    18.373567    27.585681 
   43200    243.97435   -251.17749    263624.46   -25675.566    1974.4599   -27650.026   -582.69353    348.51647    78.603113     18.37419    27.582255 
   43400    238.88037   -303.37898    263624.46   -25697.936    1933.2347    -27631.17   -842.38169    348.88295    78.600645    18.374906    27.579795 
   43600    237.28175    -270.3665    263624.46   -25697.598    1920.2973   -27617.895   -706.98393    351.39788    78.600033    18.376144    27.562692 
   43800    240.20288   -112.29998    263624.46   -25734.902    1943.9377    -27678.84   -27.970731    352.42332    78.599618    18.375239    27.573948 
   44000    237.74086   -345.62159    263624.46   -25777.861    1924.0129   -27701.874    -1021.635    355.21923    78.598945    18.374916    27.566459 
   44200    240.71343   -178.21632    263624.46   -25721.816    1948.0695   -27669.886   -287.21335    355.85121    78.599328    18.374673    27.569974 
   44400    239.88987   -196.35917    263624.46   -25708.779    1941.4045   -27650.183   -324.43869    356.73945    78.597245     18.37399     27.57431 
   44600    237.00241   -271.24489    263624.46   -25758.505    1918.0366   -27676.542   -687.75675    357.93291    78.596804    18.372832    27.582722 
   44800    242.07955   -156.37413    263624.46   -25744.132    1959.1254   -27703.257   -188.03458    359.36855    78.596122    18.371187    27.567546 
   45000    239.09081   -353.65052    263624.46   -25746.253    1934.9379   -27681.191   -1036.8741    359.42991    78.598793    18.370376    27.550596 
   45200    241.78362   -198.62048    263624.46   -25697.079    1956.7305   -27653.809   -346.37391    362.43279    78.598101     18.36944     27.52837 
   45400    231.19299    -289.8306    263624.46    -25759.78    1871.0216   -27630.801   -788.68449    363.25021    78.600792    18.369408    27.499101 
   45600    238.36439   -251.65545    263624.46   -25697.911     1929.059    -27626.97   -635.89925    362.47773     78.60149    18.370197     27.49911 
   45800    245.63912   -289.02546    263624.46    -25687.43    1987.9327   -27675.363   -781.93417    364.72633    78.602168    18.373055    27.516753 
   46000    238.09424   -264.20684    263624.46   -25649.934    1926.8727   -27576.806   -664.08163    366.12874    78.600905    18.370968    27.504144 
   46200    241.26304   -368.34138    263624.46   -25606.656    1952.5175   -27559.173   -1144.2599    366.91578    78.601387    18.371365    27.502321 
   46400    241.59071    -288.2538    263624.46   -25725.557    1955.1693   -27680.726   -754.79857    369.14777    78.601572    18.371514    27.488172 
   46600    241.83446   -254.92783    263624.46   -25707.326     1957.142   -27664.468   -629.95826    372.46551    78.601251    18.373451    27.480525 
   46800    242.14702   -327.26825    263624.46   -25694.359    1959.6715    -27654.03   -950.17718     374.0421    78.599373    18.375684    27.478898 
   47000    236.44121    -262.3588    263624.46   -25745.934    1913.4949   -27659.429   -658.54503    374.70732    78.597547    18.375181    27.482953 
   47200     244.7468   -269.63019    263624.46   -25790.479    1980.7112   -27771.191   -691.25003    375.42941    78.597878    18.374221    27.468969 
   47400    241.59564   -310.94182    263624.46   -25774.325    1955.2092   -27729.534   -876.66575      377.646    78.597829    18.372032    27.477356 
   47600     234.1777   -207.21005    263624.46   -25757.578    1895.1765   -27652.755   -439.95827    378.02698    78.596924    18.371013    27.475643 
   47800    234.71874   -248.22654    263624.46   -25780.242    1899.5551   -27679.797   -557.74299    380.43602    78.597499    18.372951    27.493535 
   48000    237.50885   -120.66528    263624.46    -25787.01    1922.1352   -27709.145     27.10452    382.06927    78.599743    18.372957    27.470347 
   48200    235.94388   -358.83989    263624.46   -25784.444      1909.47   -27693.914   -1110.9705    384.69511    78.601336    18.373572    27.460718 
   48400    239.14768   -289.27872    263624.46   -25758.791    1935.3981   -27694.189   -754.60386    385.68192    78.600799    18.374299     27.45525 
   48600    240.50773   -347.00531    263624.46   -25834.285    1946.4049    -27780.69   -1094.3997     387.7194    78.601647    18.373801     27.46614 
   48800    233.38368    -340.5934    263624.46   -25773.155    1888.7506   -27661.906   -1050.7713    389.63053    78.602644    18.376634    27.467821 
   49000    239.00531   -183.97182    263624.46   -25793.403    1934.2459   -27727.649   -327.82697    389.89061    78.601673    18.375792    27.461109 
   49200    242.52049   -334.14994    263624.46   -25723.859    1962.6939   -27686.553   -994.83182    388.49479    78.599786    18.373647    27.445016 
   49400    235.05938   -352.82254    263624.46   -25780.676    1902.3119   -27682.988   -1060.7973    389.87211    78.599022    18.371869    27.447111 
   49600    239.96809   -255.57738    263624.46   -25761.269    1942.0376   -27703.307   -657.20993    390.93332    78.599575    18.372356    27.435811 
   49800    237.35409   -359.85698    263624.46   -25766.677    1920.8827    -27687.56   -1102.7518    392.81839    78.600975    18.371761    27.449115 
   50000    236.81863   -393.64516    263624.46   -25762.029    1916.5494   -27678.578   -1273.6417    395.68587    78.598709    18.369676    27.461757 
   50200    239.13428   -373.67946    263624.46   -25696.307    1935.2896   -27631.596    -1168.253    396.84196    78.597599    18.370317    27.483645 
   50400    234.46523   -284.79228    263624.46   -25704.305    1897.5035   -27601.808   -811.52797    398.18976    78.596942    18.369143    27.491819 
   50600    241.81408   -363.61685    263624.46   -25556.664     1956.977   -27513.641   -1131.1434    401.17428     78.59668     18.36735    27.497789 
   50800    234.24412   -351.44138    263624.46   -25726.471    1895.7141   -27622.185   -1023.7461     404.1389    78.596571    18.366591     27.48325 
   51000    239.86965   -320.76308    263624.46   -25744.949    1941.2409    -27686.19   -880.31918    405.70619    78.597482    18.364382    27.497746 
   51200    235.26962   -270.66167    263624.46    -25760.59    1904.0134   -27664.604   -705.21849     407.9885    78.598179    18.362019    27.511424 
   51400    239.66084   -238.52712    263624.46    -25720.12     1939.551   -27659.671   -543.01816    410.02123     78.59832     18.36187    27.503231 
   51600    241.39955   -287.23091    263624.46   -25685.752    1953.6222   -27639.375   -750.75136    411.10335    78.598322    18.363075    27.501668 
   51800    235.02964   -353.94506    263624.46   -25646.303    1902.0712   -27548.374    -1047.951     410.9875    78.598042    18.362872    27.491734 
   52000     241.2421   -175.14548    263624.46   -25722.209     1952.348   -27674.557   -291.88013     411.0781    78.598217    18.361811    27.487077 
   52200      232.931   -321.20171    263624.46   -25790.104    1885.0871   -27675.191   -922.28982    411.28937    78.597461    18.362113    27.511819 
   52400    227.79578   -298.05345    263624.46   -25803.541    1843.5283    -27647.07   -839.48403    412.86545    78.597009    18.363201     27.51267 
   52600    238.39363   -313.18998    263624.46    -25660.81    1929.2957   -27590.106   -900.71297    411.29863    78.596041    18.364371    27.515353 
   52800       241.02   -284.52436    263624.46   -25587.088    1950.5506   -27537.639    -739.7794    412.02996    78.594016    18.365034    27.514534 
   53000    243.96024   -150.20813    263624.46   -25608.557    1974.3457   -27582.903   -146.82024    411.88014    78.593451    18.366067    27.519808 
   53200    235.02547   -356.99171    263624.46    -25752.61    1902.0375   -27654.647   -1070.6302    414.45155    78.591333    18.367724    27.534895 
   53400    240.82348   -333.66494    263624.46   -25686.618    1948.9602   -27635.578    -990.8686    416.71307    78.591419    18.368231     27.54493 
   53600    237.05272   -302.88007    263624.46   -25759.766    1918.4438    -27678.21   -810.61988    418.72546    78.591935    18.367993    27.537229 
   53800    237.99122   -363.50611    263624.46   -25739.507     1926.039   -27665.546   -1121.0971    420.76038    78.590737    18.369016    27.542843 
   54000    239.38064   -496.90592    263624.46   -25770.415    1937.2834   -27707.698   -1717.6869    422.18072    78.590616    18.368317    27.539364 
   54200    242.25124    -218.8604    263624.46   -25664.234    1960.5149   -27624.749   -477.10792     422.4529    78.590717    18.366912     27.54406 
   54400    242.70416   -234.96911    263624.46    -25677.24    1964.1803   -27641.421   -528.67725    422.16644    78.589569    18.367111    27.527318 
   54600    239.46369    -232.9941    263624.46   -25672.995    1937.9555    -27610.95   -553.19253    424.45457    78.589115    18.367732     27.54557 
   54800    239.76433   -338.18829    263624.46   -25653.521    1940.3886   -27593.909   -980.65594    426.13982    78.586773    18.368346    27.543486 
   55000    241.61822   -276.52746    263624.46   -25622.198    1955.3919    -27577.59   -716.43575    427.40764    78.585521    18.368705    27.525089 
   55200    233.56362   -233.88319    263624.46   -25770.251    1890.2068   -27660.458   -554.08524    426.55633    78.584393    18.367801    27.513875 
   55400     239.9127    -319.8999    263624.46   -25703.681    1941.5893   -27645.271   -910.89965    427.73976     78.58486    18.367235    27.510169 
   55600    247.08469   -128.14786    263624.46   -25669.065    1999.6315   -27668.696   -50.752029    428.45677    78.583663    18.369023    27.510543 
   55800    241.57924   -359.58136    263624.46   -25649.342    1955.0765   -27604.418   -1063.9293    430.21648    78.581061    18.371268     27.51056 
   56000    239.77424   -265.65618    263624.46   -25655.016    1940.4688   -27595.485    -685.7219     430.0536    78.582216    18.375348    27.502435 
   56200    245.05421   -177.62077    263624.46    -25691.22    1983.1991   -27674.419   -266.90496    431.51759    78.581904    18.376041    27.518505 
   56400    237.45501   -305.27397    263624.46     -25783.5    1921.6995   -27705.199   -868.50232      433.893    78.582082    18.376046    27.521678 
   56600    230.15506   -333.72796    263624.46   -25819.665    1862.6217   -27682.286   -1037.8658    433.96366    78.580206    18.379144    27.508875 
   56800     240.5297   -186.86525    263624.46   -25714.042    1946.5826   -27660.625   -330.86016    432.73417    78.580653    18.381772    27.499447 
   57000     232.2646    -285.5023    263624.46    -25828.95     1879.694   -27708.644   -773.59848    433.14404    78.581142    18.385317    27.510865 
   57200    242.09291   -393.12679    263624.46   -25706.419    1959.2335   -27665.652   -1220.1298    433.01536    78.582157    18.386403    27.513903 
   57400    238.02417   -202.29668    263624.46   -25748.277    1926.3056   -27674.583   -385.69579    432.93216    78.581027    18.388757    27.513903 
   57600    233.89659   -384.43139    263624.46   -25804.638    1892.9015    -27697.54   -1184.9018    435.34021    78.577823    18.391075    27.505256 
   57800    244.41635   -288.46008    263624.46   -25699.263    1978.0369     -27677.3   -788.13833     438.4889    78.576968    18.391944    27.517564 
   58000     239.9591   -379.09855    263624.46   -25703.151    1941.9648   -27645.115   -1163.2072     441.8657     78.57863    18.392882    27.507865 
   58200    243.38839   -242.81669    263624.46   -25700.196    1969.7177   -27669.914   -588.34655    443.40632    78.580655    18.391748    27.506354 
   58400    240.53619   -127.90852    263624.46   -25751.106    1946.6352   -27697.742   -34.783681    445.98374    78.580625    18.392134     27.50261 
   58600    238.02045   -287.94402    263624.46   -25765.805    1926.2755   -27692.081   -763.71569    448.38204    78.581952    18.392302    27.495513 
   58800    240.44758   -239.44013    263624.46   -25774.908     1945.918   -27720.826   -566.57848    450.16587    78.584774    18.394181    27.494237 
   59000    245.26523   -163.85521    263624.46   -25694.551    1984.9068   -27679.458   -263.57478    448.43049    78.585796    18.393487    27.483062 
   59200    243.12466   -349.23381    263624.46   -25697.017    1967.5834   -27664.601   -1040.6109    449.84247    78.584873    18.394466    27.462219 
   59400    242.69112   -169.84275    263624.46    -25696.39    1964.0748   -27660.465    -241.0853    450.64854    78.583967     18.39688    27.435778 
   59600    240.11676   -344.87522    263624.46   -25724.035    1943.2408   -27667.276   -1008.4416    451.62906    78.584328    18.396891    27.440832 
   59800    230.73924   -322.45227    263624.46   -25820.622    1867.3494   -27687.972   -901.45113    453.59255    78.583632    18.394735    27.443635 
   60000    238.36591   -304.05537    263624.46    -25757.53    1929.0713   -27686.601   -862.56221    454.82066    78.581472    18.393427    27.438578 
   60200    243.04579   -240.27313    263624.46   -25803.238    1966.9451   -27770.183   -566.45557    454.67157     78.58156    18.390377    27.440152 
   60400    244.31786   -300.29098    263624.46   -25678.714    1977.2398   -27655.954   -837.46888    452.04299    78.583887    18.391067     27.43572 
   60600    240.83815   -183.91306    263624.46   -25744.901    1949.0789   -27693.979   -316.36173    453.48885    78.584232    18.394438    27.425326 
   60800     238.4968    -333.0798    263624.46   -25615.732    1930.1305   -27545.863   -971.77919    455.07956    78.583699    18.395145    27.441243 
   61000    241.80053     -197.241    263624.46   -25663.301    1956.8673   -27620.168   -344.67772    455.96283    78.582867    18.395322    27.455002 
   61200    243.49102   -166.05599    263624.46   -25689.583    1970.5483   -27660.132   -249.42486    456.41245     78.58433    18.397482    27.457227 
   61400    238.13742   -257.20258    263624.46   -25738.117    1927.2222   -27665.339   -614.21118    458.91506    78.583911     18.40005    27.439288 
   61600    243.31503   -187.67305    263624.46   -25759.713    1969.1241   -27728.837   -316.38541    459.19964    78.583559    18.401605    27.441255 
   61800     239.4248   -175.67546    263624.46   -25786.887    1937.6408   -27724.528   -294.74625    460.46239    78.585195    18.401348    27.426796 
   62000    241.72239   -169.37059    263624.46   -25741.512     1956.235   -27697.747   -232.45106    461.17615    78.586516    18.401155    27.412585 
   62200    239.61561   -197.99258    263624.46   -25710.873     1939.185   -27650.058   -367.77597     461.6513    78.585239     18.40181    27.409044 
   62400    237.52294    -269.1653    263624.46   -25710.927    1922.2492   -27633.176   -673.11483    463.02101    78.584598     18.40195    27.411296 
   62600    237.20386   -185.30261    263624.46   -25731.708    1919.6669   -27651.375   -342.75091    463.53087    78.585445    18.403649    27.401371 
   62800    242.94795   -238.29777    263624.46   -25752.834    1966.1533   -27718.988   -546.99569     464.0579    78.585301    18.402589    27.388751 
   63000    236.58465   -387.32962    263624.46    -25823.28    1914.6558   -27737.936    -1185.772    466.23797    78.585097    18.402305    27.373016 
   63200    242.96649    -295.6419    263624.46   -25740.099    1966.3033   -27706.403   -793.21879    467.38947    78.585078    18.399089    27.380003 
   63400    231.72958   -245.21326    263624.46   -25849.578    1875.3642   -27724.942    -592.0753    468.79711    78.584939    18.398609    27.380487 
   63600    233.61601   -456.93245    263624.46   -25812.591    1890.6309   -27703.222   -1558.1517    469.93297    78.585052    18.397017    27.402263 
   63800    234.13582   -194.70785    263624.46    -25881.95    1894.8376   -27776.787   -388.19202    471.76984    78.584641    18.395464    27.415208 
   64000    241.62501   -230.32097    263624.46   -25705.106    1955.4469   -27660.553   -530.69896    470.95222    78.586227     18.39746    27.424444 
   64200    244.19061   -275.99744    263624.46   -25721.454      1976.21   -27697.664   -739.06209    472.98571    78.587382    18.396909    27.448433 
   64400    239.59134   -329.88285    263624.46   -25769.194    1938.9886   -27708.182   -977.29077    472.15028    78.586984    18.395358    27.444935 
   64600    233.76337   -262.92056    263624.46   -25802.726    1891.8234    -27694.55   -633.73151    475.06861    78.585848    18.396307    27.432227 
   64800     242.2775    -263.5946    263624.46   -25736.587    1960.7274   -27697.315   -669.03036    477.66371     78.58641    18.396725    27.430505 
   65000    237.11518   -210.80896    263624.46   -25683.968    1918.9493   -27602.917   -413.81649    479.39859    78.586708    18.398516    27.438314 
   65200    238.99623   -337.59544    263624.46   -25702.962    1934.1724   -27637.135    -1010.026     481.4274    78.586733    18.399659    27.438718 
   65400    247.55891   -338.17451    263624.46   -25674.847    2003.4693   -27678.317   -970.69748    481.73499     78.58622    18.399892    27.426912 
   65600    238.27441   -160.12383    263624.46   -25634.958    1928.3308   -27563.289   -213.03291    480.73142    78.587461    18.399463    27.434884 
   65800    237.61148    13.962496    263624.46   -25696.983    1922.9658   -27619.949    621.83625      480.443    78.586264    18.399633    27.440314 
   66000    241.71288   -370.27643    263624.46   -25737.962     1956.158    -27694.12   -1116.8545    482.17421    78.586139     18.40238    27.458161 
   66200     238.8039   -226.83264    263624.46   -25788.282    1932.6159   -27720.898   -490.52504    485.88516    78.588994    18.401556    27.471761 
   66400    235.95652   -307.85132    263624.46   -25722.923    1909.5723   -27632.495   -849.92378    487.45062    78.590425    18.401596    27.480538 
   66600    236.72335   -390.61644    263624.46   -25709.182    1915.7782    -27624.96   -1233.1844    490.17099    78.591514    18.402263    27.469866 
   66800    235.87187   -317.63705    263624.46   -25749.963    1908.8873    -27658.85   -889.50362    491.60357    78.592129    18.400584    27.458292 
   67000    235.84925   -243.61933    263624.46   -25798.226    1908.7042    -27706.93   -552.26445    493.40238    78.594112    18.399412    27.468011 
   67200    241.30198   -199.46036    263624.46   -25754.417    1952.8327    -27707.25   -397.97284     495.0047    78.596657     18.39893    27.464576 
   67400    243.17501   -226.55588    263624.46   -25708.412    1967.9908   -27676.403   -534.18785    497.40889    78.594601     18.39945    27.472832 
   67600    243.31453   -380.94343    263624.46   -25624.476      1969.12   -27593.596    -1215.017    499.84404    78.595906    18.401513    27.463626 
   67800    237.27112   -385.45337    263624.46   -25742.232    1920.2113   -27662.443   -1168.6497    499.05176    78.598885    18.400951    27.457516 
   68000    233.45661   -294.65208    263624.46   -25736.458    1889.3408   -27625.799   -790.45221    500.46059    78.599019    18.398066     27.45412 
   68200    236.99428   -434.97781    263624.46    -25722.18    1917.9709   -27640.151    -1435.581    501.93746    78.600017    18.394982    27.466065 
   68400    239.13254   -220.51732    263624.46   -25669.957    1935.2756   -27605.233   -462.35031    502.38402    78.600086    18.395559    27.471242 
   68600    232.28277    -353.4572    263624.46   -25719.831    1879.8411   -27599.672   -1066.6416    505.36752    78.600296    18.392088    27.469904 
   68800    240.16036   -77.562322    263624.46   -25688.288    1943.5936   -27631.882    193.79033    505.66449    78.600189    18.390858    27.459272 
   69000    239.95102   -184.80961    263624.46   -25673.982    1941.8995   -27615.882   -303.81988    506.58608    78.599847      18.3907    27.433013 
   69200    242.51078   -177.36948    263624.46   -25703.203    1962.6153   -27665.818   -259.71211     505.6121    78.599963    18.390447    27.419939 
   69400    234.00226    -312.1612    263624.46   -25777.804    1893.7567    -27671.56   -895.55077    505.61771    78.599658     18.38812    27.420904 
   69600    248.24091   -297.80868    263624.46   -25617.296    2008.9887   -27626.285   -802.14123    506.02759    78.599593    18.386965    27.425829 
   69800     238.4403    -141.2313    263624.46   -25770.988    1929.6733   -27700.662   -74.371798    507.13877     78.59919     18.38429    27.417652 
   70000    238.40619   -271.35246    263624.46   -25733.532    1929.3973   -27662.929   -682.81787    507.04625    78.600196    18.384489    27.404863 
   70200    238.51736   -313.23293    263624.46   -25688.029     1930.297   -27618.326   -868.08635    507.17506    78.602399    18.385871    27.402751 
   70400    239.19044   -318.26972    263624.46   -25643.963    1935.7441   -27579.707   -875.18185    511.26069    78.604567    18.383716    27.398319 
   70600    239.05099   -244.26031    263624.46   -25714.043    1934.6156   -27648.658   -559.88001    513.27815    78.605919    18.383438    27.403371 
   70800    236.65355   -253.70937    263624.46   -25702.137    1915.2133    -27617.35   -574.39453    513.67042    78.605675    18.382274    27.382352 
   71000    240.44072   -320.93746    263624.46   -25776.274    1945.8626   -27722.136   -944.67398     516.7433    78.607478    18.381954    27.396521 
   71200    235.70989   -370.30282    263624.46   -25745.862    1907.5764   -27653.438   -1157.9796     520.2267    78.607314    18.381839     27.39952 
   71400    239.71604   -67.631834    263624.46   -25782.989    1939.9978   -27722.986    197.98099    519.52665    78.606578    18.382408    27.395999 
   71600    236.97777   -572.32642    263624.46   -25747.404    1917.8372   -27665.241   -2050.0746    521.62462     78.60673    18.381396    27.385432 
   71800    230.74987   -262.11409    263624.46   -25856.116    1867.4354   -27723.551   -676.67011    521.73034    78.606055    18.382422    27.386756 
   72000     241.5119   -213.37276    263624.46   -25828.542    1954.5315   -27783.074   -440.79211    522.63866    78.605589    18.381957    27.388221 
   72200    243.62825   -230.92018    263624.46   -25660.928    1971.6589   -27632.587   -479.55592    523.91215    78.607622    18.378673    27.389167 
   72400    237.17407   -197.23044    263624.46   -25787.608    1919.4258   -27707.034   -347.19189    521.45017    78.607916    18.378359    27.387378 
   72600     243.2197   -257.96884    263624.46   -25663.102    1968.3526   -27631.455    -666.0151    521.30957    78.607911    18.376184    27.378771 
   72800    241.68544     -335.388    263624.46    -25705.53    1955.9359   -27661.466   -951.06845    521.17702     78.60905    18.374689     27.37724 
   73000    239.13455   -315.96854    263624.46   -25698.845    1935.2919   -27634.137   -888.83557    521.29983    78.607957    18.375458     27.38496 
   73200    242.32649   -249.91224    263624.46   -25615.119    1961.1239   -27576.243   -615.51182    523.93584    78.607813    18.377083    27.366331 
   73400    238.91843   -235.94485    263624.46    -25608.08    1933.5428   -27541.623   -544.76077    526.15347    78.606961    18.378136    27.370702 
   73600    244.64005   -194.64911    263624.46   -25657.388    1979.8473   -27637.235   -333.61262    528.06706    78.606596    18.378086    27.368338 
   73800    238.77714   -170.49182    263624.46   -25819.446    1932.3994   -27751.846   -266.84338    529.92619    78.606476    18.377036    27.388565 
   74000    235.87377   -251.77998    263624.46   -25834.174    1908.9027   -27743.077   -620.07563     529.3434    78.606852    18.376777    27.371981 
   74200    232.40484   -391.82311    263624.46   -25794.371     1880.829     -27675.2   -1254.2418    530.15508    78.609175    18.377181    27.377544 
   74400    244.99339    -258.9495    263624.46   -25726.784    1982.7069    -27709.49   -654.54199     530.3333    78.608612    18.375984    27.362589 
   74600    238.55873   -389.80424    263624.46   -25816.014    1930.6317   -27746.646   -1230.6529    532.65721    78.606174    18.376097     27.35839 
   74800    237.98555   -334.17535    263624.46   -25772.259    1925.9931   -27698.252   -995.08849    532.73596    78.605892    18.375021    27.358898 
   75000    239.29539   -296.45434    263624.46   -25754.028    1936.5935   -27690.621     -761.954     532.2743    78.605923    18.372785    27.350365 
   75200    242.64646   -289.13667    263624.46    -25684.43    1963.7133   -27648.143   -773.83931     533.5619    78.605232    18.373583    27.359996 
   75400       237.77   -388.28096    263624.46    -25757.69    1924.2487   -27681.938   -1241.2127    534.36339    78.606014    18.372815    27.369552 
   75600    240.18929   -268.99519    263624.46   -25705.603    1943.8278    -27649.43   -729.99915     536.4381    78.607078    18.372187    27.382614 
   75800    239.60477   -242.18775    263624.46   -25674.192    1939.0973   -27613.289   -571.19288    537.87129    78.604457     18.37197    27.395834 
   76000    240.03658   -316.05274    263624.46   -25688.269    1942.5919   -27630.861   -902.14555    536.24356    78.604232    18.370176    27.391152 
   76200    235.01779    -363.4631    263624.46    -25788.21    1901.9753   -27690.185   -1146.5768    537.87735    78.604896     18.36949    27.401657 
   76400    241.03947   -387.01494    263624.46   -25785.276    1950.7081   -27735.984    -1256.018    540.29838    78.606973    18.370159    27.393536 
   76600    238.53135   -114.29221    263624.46    -25731.62    1930.4102   -27662.031    13.207392    542.05132    78.608714    18.370208    27.400629 
   76800    231.76626   -83.290715    263624.46   -25743.851     1875.661   -27619.512    186.28175    542.47136    78.609016    18.370552    27.377991 
   77000    247.75773   -285.66288    263624.46   -25665.856    2005.0783   -27670.934   -778.92423     545.7591    78.609478     18.37352    27.381196 
   77200    244.83027     -169.734    263624.46   -25700.466    1981.3867   -27681.853   -258.14217    545.52276     78.60934    18.375871    27.390145 
   77400    240.64913   -440.68667    263624.46    -25701.98    1947.5491   -27649.529   -1456.4595    547.24445    78.609159    18.377502    27.387459 
   77600    236.96728   -201.20006    263624.46   -25768.815    1917.7523   -27686.567   -371.25338    547.72036    78.607767    18.377135    27.391767 
   77800    238.70369   -369.44318    263624.46   -25751.245    1931.8049    -27683.05   -1148.4081    548.80823    78.607825    18.377252    27.406513 
   78000    235.42121   -332.28472    263624.46   -25729.928    1905.2401   -27635.168    -945.7495    547.22679    78.607399     18.37511    27.405457 
   78200    242.14753   -290.46981    263624.46   -25751.596    1959.6756   -27711.271   -764.73669    547.22343    78.608936    18.374598    27.404837 
   78400    245.59336   -162.43938    263624.46   -25740.032    1987.5623   -27727.594   -227.77987     546.9769    78.607794    18.378841     27.42149 
   78600    243.52583    -288.9961    263624.46   -25689.494      1970.83   -27660.324   -773.65015    550.57623    78.608066    18.379496    27.425217 
   78800    241.05503   -201.47835    263624.46   -25693.539    1950.8341   -27644.373   -397.48119    548.94057    78.608421    18.377691    27.423886 
   79000    234.20181   -289.86611    263624.46   -25712.519    1895.3717   -27607.891   -831.00843     552.8146    78.609038    18.377277    27.426272 
   79200    237.07027   -238.35142    263624.46   -25658.157    1918.5858   -27576.743   -551.04737    554.05605    78.607698     18.37676    27.426034 
   79400    242.20965   -267.90186    263624.46   -25642.098    1960.1783   -27602.277   -644.15154    554.20948    78.606742    18.375416    27.427433 
   79600    240.90201   -245.68165    263624.46   -25741.884    1949.5957    -27691.48   -540.71181    555.99169    78.607286    18.374276    27.424578 
   79800    237.21321   -256.66159    263624.46   -25736.271    1919.7426   -27656.014   -631.04077    558.93531    78.608144    18.373146    27.401415 
   80000    237.92574   -217.88741    263624.46   -25790.085    1925.5091   -27715.594   -452.74786    561.53251    78.608783    18.375717    27.392796 
   80200    238.67305   -324.08628    263624.46   -25804.488     1931.557   -27736.045   -934.11895    560.37096    78.608289    18.376011     27.38733 
   80400    239.66457   -460.08061    263624.46    -25808.91    1939.5812   -27748.491   -1545.3504     560.1526    78.608841    18.375474    27.367442 
   80600    247.09562   -137.97635    263624.46   -25790.792      1999.72   -27790.512   -113.35539    560.63911    78.610225    18.373233    27.379402 
   80800    243.58575   -270.17093    263624.46   -25728.946    1971.3149   -27700.261   -694.49679    562.84149    78.611721    18.374985    27.371426 
   81000    243.04877   -215.61255    263624.46   -25717.112    1966.9692   -27684.081    -461.2833    563.26369    78.610266    18.373581    27.376922 
   81200    239.01363   -334.60042    263624.46   -25716.228    1934.3133   -27650.541   -1000.0387     563.0856    78.611422    18.369799    27.379694 
   81400    239.21339   -357.10879    263624.46   -25703.818    1935.9298   -27639.748   -1100.0664     564.4351    78.612268    18.368574    27.376246 
   81600    236.61971   -343.37771    263624.46   -25774.267    1914.9395   -27689.206   -1048.9042    567.32707     78.61265    18.365706    27.372379 
   81800    235.80798   -365.40672    263624.46   -25887.108    1908.3702   -27795.479   -1147.6413    566.76246    78.613043    18.362311      27.3724 
   82000    236.99241   -247.69228    263624.46   -25772.046    1917.9557   -27690.002   -636.92952    567.10673    78.612994    18.359839    27.382631 
   82200    241.30144   -279.39062    263624.46   -25730.015    1952.8283   -27682.843   -769.41189    566.31145    78.613952    18.357264    27.391273 
   82400    242.12311   -140.71885    263624.46   -25734.807    1959.4779   -27694.284   -90.019278    565.31319    78.613864    18.358011    27.386233 
   82600    244.89144     -163.904    263624.46   -25686.844    1981.8818   -27668.726   -234.50203    566.63711    78.612996    18.358035     27.38543 
   82800    240.26937   -246.14222    263624.46   -25770.104    1944.4758    -27714.58   -606.44732     568.6967    78.613785    18.359736    27.386456 
   83000    239.71142   -193.67545    263624.46     -25693.9    1939.9604   -27633.861   -340.92441    572.89786    78.612362    18.359777    27.378316 
   83200    237.70455   -204.99843    263624.46   -25730.181     1923.719     -27653.9   -445.90906     574.3801    78.612733    18.361115    27.392157 
   83400    240.07219     -365.903    263624.46   -25733.659      1942.88   -27676.539   -1126.0686    577.85312    78.612161    18.360521    27.385973 
   83600    234.96341   -207.25546    263624.46   -25803.314    1901.5352    -27704.85   -426.67435    576.85036     78.61276    18.362137    27.393255 
   83800    238.78889   -335.05473    263624.46   -25764.888    1932.4944   -27697.383   -967.06179    577.37003    78.610927    18.361649    27.388518 
   84000    237.84515   -140.10526    263624.46   -25733.627    1924.8568   -27658.484   -127.07923    578.58277    78.611136    18.360594    27.382657 
   84200    243.06572   -311.89262    263624.46   -25681.098    1967.1064   -27648.204   -908.61402    579.08798    78.609607    18.359448     27.37437 
   84400    238.77351    -327.7263    263624.46   -25785.332      1932.37   -27717.702   -948.40603    582.23848    78.609404    18.358387    27.374611 
   84600    239.92195   -373.75806    263624.46   -25701.787    1941.6641   -27643.452   -1171.6239     583.0649    78.609955    18.358841    27.371606 
   84800    236.72765   -358.13495    263624.46   -25757.144     1915.813   -27672.957   -1088.0732    583.97731    78.610026    18.356111     27.35652 
   85000    237.98335   -112.76634    263624.46   -25764.162    1925.9753   -27690.138   -20.483906    583.38969    78.610377    18.356646    27.346489 
   85200    237.79091   -283.75447    263624.46   -25761.734    1924.4179   -27686.152   -818.48787    584.73274     78.61153    18.356993    27.344257 
   85400    238.28713   -263.62263    263624.46   -25780.811    1928.4337   -27709.244   -682.61048    586.50059    78.611937     18.35883    27.363569 
   85600    236.71692   -403.51797    263624.46   -25777.152    1915.7262   -27692.878   -1295.4253    585.12756    78.612501    18.360534    27.366981 
   85800    236.63584   -388.69409    263624.46   -25715.686      1915.07   -27630.756   -1267.5084    587.16614    78.614794    18.360467    27.374019 
   86000    236.56093   -393.68812    263624.46   -25731.773    1914.4638   -27646.237   -1242.7248    588.15634    78.614977     18.35958    27.378765 
   86200    242.51395   -320.19743    263624.46   -25694.485     1962.641   -27657.126   -960.01399    586.92958    78.615456    18.358329    27.377843 
   86400    242.37723   -423.96076    263624.46   -25794.034    1961.5345   -27755.568   -1414.1766    588.14469     78.61359    18.357621    27.387349 
   86600    239.94725   -147.73854    263624.46   -25723.526    1941.8689   -27665.395   -193.07814    587.05542    78.613276    18.358592    27.391596 
   86800    234.99295   -373.14917    263624.46   -25791.151    1901.7743   -27692.926    -1174.302    588.83893    78.612707    18.358654    27.389632 
   87000    240.37856   -316.37511    263624.46     -25697.1    1945.3595    -27642.46   -907.51496    590.73503    78.613969    18.358485     27.39541 
   87200    243.47893   -199.33489    263624.46   -25715.151    1970.4505   -27685.601   -353.55971    593.98825    78.614153    18.356066    27.386536 
   87400    238.68149   -152.89842    263624.46   -25752.775    1931.6252     -27684.4   -150.68678    593.93325    78.614487    18.355771    27.375565 
   87600    238.70166   -266.63136    263624.46   -25707.177    1931.7885   -27638.965   -723.71919    597.38218    78.615067    18.356346    27.392222 
   87800    239.43346   -129.79865    263624.46   -25730.204    1937.7109   -27667.915   -97.145858    600.70091    78.614478    18.354945    27.396448 
   88000     240.2915   -314.95196    263624.46   -25767.628    1944.6549   -27712.283   -885.16022    603.49315    78.613712    18.354774    27.401402 
   88200    234.95726   -198.61835    263624.46   -25839.128    1901.4854   -27740.614   -410.04764    603.28588    78.614024    18.354845    27.407811 
   88400    238.64378   -350.34296    263624.46   -25757.377    1931.3201   -27688.697   -1085.5574    604.58721    78.613236    18.355601     27.39275 
   88600    242.96457   -308.11806    263624.46   -25810.083    1966.2878    -27776.37   -879.01392    604.89951    78.610206    18.356632     27.40089 
   88800    236.89052   -302.33228    263624.46   -25820.988    1917.1311   -27738.119    -873.0169    605.07941    78.610379    18.358184    27.412003 
   89000    240.91947   -227.49252    263624.46   -25774.426     1949.737   -27724.163   -483.18358    605.05966    78.609865    18.358717    27.431714 
   89200    243.85374   -274.31883    263624.46   -25759.058    1973.4837   -27732.542   -733.64753    604.41365    78.610786    18.357398    27.421392 
   89400       243.26   -392.75509    263624.46   -25777.223    1968.6787   -27745.901   -1253.6368    604.76294    78.609562    18.357477     27.42195 
   89600    234.63229   -171.80845    263624.46   -25899.519    1898.8555   -27798.374   -323.13472    605.12782    78.608941    18.358024    27.439309 
   89800    238.75933   -405.07392    263624.46   -25774.919    1932.2552   -27707.174   -1351.7559     606.9366    78.609035    18.358585    27.407127 
   90000     242.1299    -334.9402    263624.46   -25778.569    1959.5329   -27738.102   -1009.4135     608.1282    78.609775    18.359382    27.403194 
   90200    238.01801   -147.89541    263624.46   -25802.317    1926.2558   -27728.573   -165.93276     608.0135     78.61029    18.359089    27.405876 
   90400     240.3491    -276.4052    263624.46   -25802.893     1945.121   -27748.014   -736.08017    607.42149    78.608439    18.359029    27.409536 
   90600    240.98608   -545.68595    263624.46   -25749.202    1950.2761   -27699.478   -1941.9981    609.91379    78.607998    18.362408    27.400427 
   90800    237.39998   -339.80245    263624.46   -25760.835    1921.2541   -27682.089    -1023.579    609.18092    78.606446    18.361085    27.423476 
   91000    235.76668   -237.88881    263624.46   -25773.639     1908.036   -27681.675   -529.00103    610.53671    78.605556    18.359844    27.441176 
   91200    230.74041   -363.23763    263624.46   -25858.185    1867.3589   -27725.544   -1102.4604    610.13768    78.605368    18.360803    27.447601 
   91400    232.58626   -282.55266    263624.46   -25762.219    1882.2971   -27644.516   -753.67744     609.9962    78.606763    18.360726    27.447328 
   91600    242.67118   -262.24105    263624.46    -25624.71    1963.9134   -27588.623   -668.45531    611.03189    78.606682    18.359245    27.448511 
   91800    242.94396   -231.04822    263624.46   -25633.867     1966.121   -27599.988   -542.85249    612.46427    78.606056    18.359556    27.475723 
   92000     238.7378   -225.06364    263624.46   -25655.182     1932.081   -27587.263   -503.34137    612.83298     78.60597    18.359648    27.476538 
   92200    244.04539    -100.0315    263624.46   -25667.558    1975.0348   -27642.593    51.641259    611.74457     78.60561    18.360296    27.462918 
   92400    237.65175   -266.56707    263624.46   -25647.778    1923.2917   -27571.069    -680.1928    614.23992    78.605365    18.359972    27.463308 
   92600    243.53128   -216.01197    263624.46   -25591.236    1970.8741    -27562.11   -519.70467    615.39922    78.604227    18.360444    27.455698 
   92800    239.90853   -149.26761    263624.46   -25699.226    1941.5555   -27640.781   -154.76964    617.90844     78.60261    18.358603    27.457187 
   93000    231.97392   -274.08966    263624.46   -25765.386    1877.3415   -27642.727   -733.61012    619.91436     78.60201     18.35719    27.442139 
   93200    237.87697   -272.06396    263624.46   -25734.006    1925.1144   -27659.121   -734.20674    620.82526    78.602103     18.35642    27.442384 
   93400    231.56172   -416.54395    263624.46   -25829.831    1874.0057   -27703.837    -1398.872    622.96806    78.602048    18.357391    27.453774 
   93600    243.34992   -206.82663    263624.46   -25758.659    1969.4064   -27728.066   -410.19342    624.42525    78.603508    18.358083    27.439487 
   93800    238.34641   -217.36356    263624.46     -25764.7    1928.9135   -27693.613   -496.54985    625.51947    78.604379    18.356894    27.427408 
   94000    240.02744   -231.25735    263624.46   -25756.302    1942.5179    -27698.82   -535.05864    625.59506     78.60486    18.355757    27.443069 
   94200    242.97942   -279.58243    263624.46   -25686.064     1966.408   -27652.472   -762.91491    625.54196      78.6047    18.356198    27.444435 
   94400    241.08316   -259.33114    263624.46    -25740.29    1951.0617   -27691.352   -638.72576    625.73077    78.603914    18.354529    27.439181 
   94600    236.36735    -479.1331    263624.46   -25770.276    1912.8971   -27683.174   -1639.1137     628.9244    78.603016    18.356247    27.440352 
   94800    233.89712   -342.79443    263624.46   -25753.412    1892.9059   -27646.318   -1080.3183    628.52794    78.600999    18.357128    27.435177 
   95000    239.46855   -82.939044    263624.46    -25763.91    1937.9948   -27701.905    115.04124    627.71874    78.602366    18.356121    27.419984 
   95200    238.47761   -256.55316    263624.46   -25734.909    1929.9752   -27664.884   -666.46094    629.65347    78.602618    18.355954    27.405746 
   95400    237.98735   -164.31771    263624.46   -25757.268    1926.0077   -27683.276   -201.47403    633.20394    78.602959    18.358273    27.385387 
   95600    233.08233   -344.84721    263624.46   -25736.898    1886.3118    -27623.21   -1052.9746    635.33384    78.603242    18.358033    27.387155 
   95800    247.75135   -269.25378    263624.46   -25723.604    2005.0267    -27728.63   -709.63104    634.06242    78.603002    18.356268    27.356912 
   96000    241.03542   -404.62568    263624.46   -25679.884    1950.6753    -27630.56   -1343.3699    638.03131    78.605124    18.354866    27.395016 
   96200    244.98735   -302.97814    263624.46   -25611.659    1982.6579   -27594.317   -842.38476     639.4404    78.605668     18.35256    27.383537 
   96400    244.48683   -290.54063    263624.46   -25676.848    1978.6073   -27655.455   -802.58461    639.44555    78.606539    18.352781    27.379747 
   96600    237.78593   -259.31823    263624.46   -25738.225    1924.3776   -27662.603   -670.18212    639.61111    78.606887    18.354206    27.377363 
   96800    238.26197   -342.75677    263624.46    -25685.08    1928.2302    -27613.31   -1023.6242    639.51431    78.606267    18.354001    27.368697 
   97000    242.28355   -291.96043    263624.46    -25692.81    1960.7764   -27653.586   -784.66891    638.97796    78.604164    18.355141    27.377361 
   97200    242.51794   -300.98786    263624.46   -25696.046    1962.6733    -27658.72   -823.02261    638.52808    78.605266    18.352621    27.384573 
   97400    243.82028   -200.79501    263624.46   -25662.217     1973.213    -27635.43   -384.22747    637.54536    78.604117    18.351962    27.394064 
   97600    242.85598   -113.03619    263624.46   -25607.965     1965.409   -27573.374    16.570161    638.55893    78.605224    18.354106    27.397899 
   97800    236.94237    -373.2762    263624.46   -25643.066    1917.5507   -27560.616   -1150.4683    640.60863     78.60549    18.354136    27.396431 
   98000    241.71555   -232.51022    263624.46   -25703.721    1956.1796     -27659.9   -510.05906    641.49051    78.606428    18.354019    27.367902 
   98200    232.29115    -174.2828    263624.46   -25753.695    1879.9088   -27633.604   -239.55877    645.56253    78.606485    18.352679    27.375592 
   98400     236.9149   -368.79072    263624.46   -25740.505    1917.3284   -27657.834   -1151.8471     648.2394    78.605728    18.354348    27.356353 
   98600    238.16096   -168.69316    263624.46   -25742.071    1927.4127   -27669.484   -283.63071    649.64722    78.605563    18.354129     27.35886 
   98800     237.0534   -210.91406    263624.46   -25713.646    1918.4493   -27632.095   -426.38967    651.48835    78.605088    18.353147    27.359994 
   99000    240.77441   -204.50152    263624.46   -25759.385     1948.563   -27707.948   -417.42408    652.51824    78.603379    18.353382    27.365831 
   99200    240.20419   -281.92861    263624.46   -25705.025    1943.9483   -27648.974   -776.87308    652.25035    78.603776    18.351542    27.370502 
   99400    231.69734    -441.8099    263624.46   -25759.223    1875.1033   -27634.327   -1455.8361     650.6187    78.604439    18.350323    27.387413 
   99600    237.33065   -327.47808    263624.46   -25674.696    1920.6931   -27595.389   -923.90883    651.68147    78.603735     18.35021    27.393796 
   99800    239.80902   -205.62301    263624.46   -25743.629    1940.7502   -27684.379   -412.10604    652.89495    78.604199    18.351432    27.404243 
  100000    239.46868   -263.76122    263624.46    -25760.97    1937.9959   -27698.966   -647.05573    655.39338    78.604387    18.348494    27.398839 
  100200    235.53736   -242.30204    263624.46   -25836.785    1906.1801   -27742.965   -600.44433    657.47614     78.60557    18.347737    27.380397 
  100400    239.09005   -276.53595    263624.46   -25754.139    1934.9317   -27689.071   -764.19092    657.58669    78.606459    18.346273    27.366934 
  100600    236.74754   -347.27287    263624.46   -25714.729     1915.974   -27630.703   -1080.9392    660.45523    78.607532    18.346726      27.3701 
  100800    239.84184   -199.37259    263624.46   -25776.239    1941.0158   -27717.254   -356.16864    661.24402    78.606859    18.344161    27.370704 
[...]
 5176000    222.61555   -1098.3717    263624.46   -28558.398    1801.6053   -30360.003   -4254.6444    3080.9105    78.675081    19.858457    28.473213 
 5176200     225.7251   -1036.5975    263624.46   -28512.582    1826.7705   -30339.352   -3956.3345    3081.4684    78.675931    19.858689    28.475736 
 5176400    222.72625   -1075.6823    263624.46   -28532.036    1802.5011   -30334.537   -4198.4287    3082.9441    78.676812    19.858317    28.474294 
 5176600    230.02938   -1051.6021    263624.46   -28462.659    1861.6046   -30324.264   -4030.0436    3081.9774    78.677459    19.858953    28.471496 
 5176800    225.46427   -1104.5551    263624.46   -28491.522    1824.6596   -30316.182   -4274.8245    3082.0226    78.677988    19.858862    28.470921 
 5177000    229.58535   -983.07291    263624.46   -28489.839    1858.0111    -30347.85   -3750.7074     3080.559    78.678253    19.858722      28.4679 
 5177200    231.42599   -1093.0584    263624.46    -28458.94    1872.9073   -30331.847   -4233.0196    3083.9243    78.678902    19.858066    28.468619 
 5177400    228.45613    -987.0374    263624.46    -28418.94    1848.8724   -30267.812    -3772.913    3076.4336     78.67767    19.858957    28.474381 
 5177600    230.51893   -1057.5627    263624.46   -28423.005    1865.5665   -30288.571   -4064.5579    3082.4302    78.679402    19.859372    28.470171 
 5177800    232.07974   -1011.8716    263624.46   -28493.601    1878.1979   -30371.799   -3838.6124     3083.045    78.679665    19.860753    28.469082 
 5178000    226.00576   -987.01084    263624.46   -28525.113    1829.0419   -30354.155   -3731.3466    3079.1554    78.680497    19.859245    28.468353 
 5178200     227.4721     -1029.35    263624.46   -28491.747    1840.9088   -30332.656   -3948.9918    3083.2168    78.680922    19.859804    28.463553 
 5178400    223.57658    -1086.731    263624.46   -28471.858    1809.3827   -30281.241   -4214.6975    3082.1898    78.681041    19.859733    28.466351 
 5178600    227.18814    -1044.205    263624.46   -28492.641    1838.6107   -30331.252     -4022.82    3079.7929    78.681991    19.857678    28.466855 
 5178800    225.77078   -1108.6318    263624.46   -28457.528    1827.1402   -30284.668   -4302.7298    3083.0051    78.681966    19.857829    28.468965 
 5179000    225.57758   -1054.9375    263624.46   -28524.245    1825.5766   -30349.821   -4059.3073    3079.4473    78.682612    19.858214    28.467233 
 5179200    224.07427   -1069.6947    263624.46   -28540.546    1813.4105   -30353.956   -4147.2076    3082.7556    78.683515    19.858022    28.472414 
 5179400    234.51823   -1024.3446    263624.46   -28429.863    1897.9324   -30327.795   -3926.0083    3082.3292     78.68522    19.858798    28.471473 
 5179600     224.6122   -1043.1065    263624.46   -28512.163    1817.7639   -30329.927   -4009.8568    3079.7966    78.685344    19.857245    28.474899 
 5179800    222.01779   -1073.2668    263624.46   -28539.518    1796.7677   -30336.285   -4189.2694    3083.4633    78.686167    19.856065    28.472143 
 5180000    224.03973   -1071.6198    263624.46   -28621.715    1813.1309   -30434.846   -4120.2667    3080.8082    78.686901    19.856939    28.469776 
 5180200    229.66129   -1027.4974    263624.46   -28564.037    1858.6257   -30422.663   -3926.9829    3081.6607    78.687608    19.855474    28.471378 
 5180400    230.46317   -995.69728    263624.46   -28466.368    1865.1153   -30331.483    -3717.419    3079.9284     78.68736    19.855643    28.469896 
 5180600    228.90215   -1099.8106    263624.46   -28497.148     1852.482    -30349.63   -4230.2644    3083.3123    78.687398    19.856108    28.468985 
 5180800    228.53019   -998.83793    263624.46   -28559.633    1849.4718   -30409.105   -3807.3515    3078.1765    78.687153    19.854944    28.468335 
 5181000    228.05794   -1017.4654    263624.46   -28475.595    1845.6499   -30321.245    -3856.431    3083.8085    78.688478    19.856816    28.468357 
 5181200    223.72028   -1021.5849    263624.46   -28553.409    1810.5457   -30363.955   -3881.0935    3080.1161    78.689515    19.856198     28.46991 
 5181400    222.85747   -1051.5355    263624.46   -28510.474    1803.5631   -30314.037   -4029.5086    3081.6758    78.689629     19.85507    28.472601 
 5181600    217.30569   -1038.3023    263624.46   -28546.168    1758.6331   -30304.801   -3972.0898    3081.2497     78.69061    19.856054    28.472053 
 5181800     226.9598   -1032.7051    263624.46   -28476.565    1836.7628   -30313.328   -3916.5547    3079.5013    78.691482    19.855617    28.476229 
 5182000    227.26064   -1033.8536    263624.46   -28486.442    1839.1974   -30325.639   -3935.5556    3081.8475    78.691382    19.857103    28.471181 
 5182200    227.56088   -1034.6886    263624.46   -28447.987    1841.6273   -30289.614   -3950.9211    3082.4052    78.691048    19.857513    28.475859 
 5182400     231.9483    -1008.185    263624.46   -28527.872    1877.1343   -30405.006   -3846.0677    3081.5851    78.691332    19.855664    28.477479 
 5182600     227.9159   -1048.0373    263624.46   -28512.497    1844.5005   -30356.998    -4004.976    3083.1145    78.691864    19.855965    28.473581 
 5182800    232.42295   -1029.6775    263624.46   -28489.302    1880.9756   -30370.277   -3927.7273    3081.5807    78.691376    19.854506    28.470586 
 5183000    225.39949   -1039.8698    263624.46   -28430.959    1824.1353   -30255.094   -3965.4494    3081.5544    78.691617    19.854811    28.472246 
 5183200    229.32752   -1009.1723    263624.46   -28479.774    1855.9245   -30335.698   -3831.0887    3082.1183    78.692989    19.854242    28.468971 
 5183400       224.96   -1029.3164    263624.46   -28582.345    1820.5786   -30402.923   -3925.5895    3080.8253    78.692703    19.853629    28.476221 
 5183600    218.19319    -1004.407    263624.46   -28558.604    1765.8155    -30324.42   -3839.9394    3081.5695    78.692738    19.853769    28.474464 
 5183800    222.86407   -1065.5673    263624.46   -28533.419    1803.6165   -30337.035   -4080.0044    3081.8443    78.692512    19.852755    28.473002 
 5184000    224.32914   -1037.4416    263624.46   -28500.816    1815.4731   -30316.289   -3989.3351    3082.6481    78.692427    19.851883    28.476294 
 5184200    228.40381   -1024.0642    263624.46   -28499.678     1848.449   -30348.127   -3906.8126    3079.3365    78.692636    19.853251    28.472319 
 5184400    230.66539   -1083.4023    263624.46   -28504.976    1866.7518   -30371.728   -4191.2366    3084.0751    78.694955    19.852815    28.468381 
 5184600     228.2981   -1025.1011    263624.46   -28506.623    1847.5935   -30354.216   -3936.2412    3080.7361    78.696041    19.852973    28.472971 
 5184800    231.76019   -1040.2187    263624.46   -28502.353    1875.6119   -30377.965    -3970.433    3081.1227    78.695435    19.854621    28.476389 
 5185000    224.90404   -1033.4305    263624.46   -28493.436    1820.1258   -30313.561   -3934.7496    3081.3836    78.695685    19.855259     28.47918 
 5185200    223.39786   -998.94764    263624.46   -28525.038    1807.9364   -30332.974   -3776.4391      3081.83     78.69612    19.855852    28.475832 
 5185400     228.6068   -1013.5501    263624.46   -28500.366    1850.0918   -30350.458   -3859.1479    3080.4317    78.697047    19.856861    28.469018 
 5185600    223.30733    -1075.875    263624.46   -28513.084    1807.2038   -30320.287   -4143.0883    3083.2742    78.696401    19.858079    28.473519 
 5185800    230.46534   -938.22518    263624.46   -28467.209    1865.1328   -30332.342   -3507.9161    3080.5613    78.697749    19.858221    28.470003 
 5186000    230.47033   -1009.5662    263624.46   -28443.179    1865.1732   -30308.353    -3815.225    3082.9186    78.697693    19.857712    28.473203 
 5186200    232.41846    -959.9504    263624.46   -28488.003    1880.9392   -30368.942   -3628.1699    3080.2734    78.697077    19.859342    28.475449 
 5186400    223.86382   -961.43522    263624.46   -28501.716    1811.7073   -30313.423   -3637.5717    3082.1533    78.695839    19.859747    28.478715 
 5186600    223.65954   -1044.6979    263624.46    -28518.77    1810.0542   -30328.824    -3984.619    3082.9884    78.695558    19.858433    28.474831 
 5186800    228.06261   -976.34961    263624.46   -28426.856    1845.6878   -30272.544   -3682.0876    3079.6998    78.695194    19.858399    28.473555 
 5187000    229.59017   -1047.9329    263624.46    -28433.16    1858.0501    -30291.21    -4027.064    3083.5521    78.695401    19.858348    28.473508 
 5187200    221.46865   -965.95696    263624.46   -28584.507    1792.3234    -30376.83   -3638.7238    3082.0988    78.695592    19.858224    28.471386 
 5187400    225.45444   -1050.3442    263624.46   -28589.026    1824.5801   -30413.607   -4019.4153    3081.7697    78.695069    19.858012    28.473769 
 5187600    226.81894   -1036.8331    263624.46   -28490.465    1835.6228   -30326.088   -3989.0974     3080.423    78.693909    19.858803    28.473027 
 5187800    227.43501   -1073.1597    263624.46   -28531.049    1840.6087   -30371.658   -4156.0336    3084.1655    78.693403    19.858606    28.469903 
 5188000    231.33749   -1060.6684    263624.46   -28448.507     1872.191   -30320.698   -4090.1494    3080.6704    78.693095    19.858696    28.466684 
 5188200     229.9165   -959.91734    263624.46   -28463.599    1860.6911    -30324.29   -3626.9915    3081.7677    78.693891    19.859575    28.466262 
 5188400    226.39107   -984.90281    263624.46   -28516.827    1832.1601   -30348.987   -3741.2409    3081.9087    78.693867    19.859447    28.467956 
 5188600    224.03558   -1061.1407    263624.46   -28558.645    1813.0974   -30371.742    -4039.224    3082.5129    78.694431    19.857566    28.469238 
 5188800    227.06819   -1011.0648    263624.46   -28535.804      1837.64   -30373.444   -3842.7344    3081.8762    78.694376    19.859012    28.468595 
 5189000    225.31566   -1055.2872    263624.46   -28496.694    1823.4569   -30320.151   -4030.5495    3082.2975    78.694259    19.860031    28.472348 
 5189200    223.11365   -1113.4596    263624.46   -28588.934    1805.6363   -30394.571   -4318.5005    3083.3826    78.694027    19.859619    28.469482 
 5189400    226.92953   -1043.8248    263624.46   -28531.494    1836.5179   -30368.011   -4009.4142    3080.8518    78.695608    19.859996     28.47079 
 5189600    230.67811   -996.75301    263624.46   -28491.363    1866.8547   -30358.218   -3752.3892    3082.0626    78.694674    19.861312    28.472522 
 5189800    227.57044   -1049.7636    263624.46   -28528.279    1841.7047   -30369.983   -4019.2628    3082.3222    78.694393    19.860883    28.470009 
 5190000    224.18177   -1024.4826    263624.46    -28526.53    1814.2805    -30340.81    -3911.464    3081.8834    78.694516     19.85953    28.470199 
 5190200    224.83185   -984.74383    263624.46   -28552.124    1819.5415   -30371.665   -3742.6459    3081.5984    78.694643    19.859304    28.467335 
 5190400    234.78105   -969.64417    263624.46   -28394.027    1900.0594   -30294.086    -3648.319    3082.1134    78.694705    19.858452    28.469196 
 5190600    224.02267   -1036.5051    263624.46   -28517.041    1812.9929   -30330.033   -3982.5152     3084.347    78.693606    19.857375    28.469124 
 5190800     225.7434    -1105.786    263624.46   -28506.632    1826.9186   -30333.551   -4263.4773    3081.1157    78.693771    19.857547    28.461821 
 5191000    224.87764   -1060.4822    263624.46   -28543.429    1819.9121   -30363.341   -4101.4692    3082.1382    78.693328    19.857494    28.465752 
 5191200    226.28077   -1090.7604    263624.46   -28507.448    1831.2675   -30338.715   -4236.9892    3082.9498    78.695464    19.858209    28.465461 
 5191400    228.08005   -1072.6242    263624.46   -28513.298    1845.8289   -30359.127   -4131.6564    3081.4799    78.694721    19.856268    28.465019 
 5191600    218.92548   -1120.0289    263624.46   -28535.709    1771.7418   -30307.451   -4316.1467    3082.6499    78.694585    19.858644    28.468621 
 5191800    229.32597   -987.86132    263624.46   -28435.329     1855.912   -30291.241   -3721.1962    3080.5661      78.6952     19.85737    28.465913 
 5192000    235.54821   -1002.8106    263624.46    -28432.04     1906.268   -30338.308   -3810.8306    3084.8227    78.693679    19.857099    28.467688 
 5192200    230.18758   -1036.9242    263624.46   -28490.297    1862.8849   -30353.182   -3954.9477    3081.0852    78.693323    19.857929    28.469059 
 5192400    225.64691   -1035.3591    263624.46   -28484.022    1826.1377    -30310.16   -3978.6242    3082.2692    78.692709    19.856967    28.464696 
 5192600    223.99504   -1058.9605    263624.46   -28542.174    1812.7693   -30354.943   -4070.7008    3082.2609    78.692712    19.855986    28.467286 
 5192800    229.28107   -1048.2052    263624.46   -28476.521    1855.5486    -30332.07   -4022.2957    3081.8451    78.692629    19.856811    28.467623 
 5193000    225.45671   -1061.8361    263624.46   -28522.859    1824.5984   -30347.458   -4040.5355    3082.6955     78.69182    19.856509    28.467246 
 5193200      233.155   -1014.4653    263624.46   -28477.433    1886.8999   -30364.333   -3869.3082    3082.4101    78.693002    19.856187    28.464414 
 5193400    228.48871   -1068.1229    263624.46   -28539.211    1849.1362   -30388.348   -4105.9311    3080.9266     78.69243    19.856039    28.467744 
 5193600    226.91934   -1088.7703    263624.46   -28449.778    1836.4353   -30286.213   -4218.5678    3083.8361    78.693082    19.857189    28.470365 
 5193800    225.41554   -964.32378    263624.46   -28547.182    1824.2653   -30371.447   -3644.5288    3081.7299    78.692942    19.857024     28.47294 
 5194000    223.29011   -1022.5968    263624.46   -28615.764    1807.0644   -30422.828   -3883.6601    3082.4435    78.693536    19.856576    28.467797 
 5194200    220.36528   -1021.4802    263624.46   -28540.566     1783.394    -30323.96   -3902.9311    3081.7863    78.693705    19.857787    28.466329 
 5194400    228.73385    -1050.439    263624.46    -28473.39      1851.12    -30324.51   -4016.1783    3084.3801    78.693417    19.857452    28.469265 
 5194600    228.59062   -1026.7699    263624.46   -28457.362    1849.9609   -30307.323   -3918.8089    3082.2559    78.694213    19.855202    28.467047 
 5194800    228.35504   -1042.8656    263624.46   -28465.674    1848.0544   -30313.729   -4021.4999    3081.3504     78.69423    19.856447    28.470431 
 5195000    229.71282   -1090.2475    263624.46   -28484.871    1859.0427   -30343.914    -4232.431     3082.169     78.69492    19.856608    28.467398 
 5195200    226.18901    -1118.003    263624.46   -28471.911    1830.5249   -30302.436   -4340.8962    3084.4375    78.695724    19.855174    28.470789 
 5195400    232.48811   -961.52344    263624.46   -28459.365    1881.5028   -30340.868   -3607.3436    3079.7006    78.695555    19.856595    28.467237 
 5195600    225.33961   -1030.2081    263624.46   -28550.099    1823.6508    -30373.75   -3943.0985    3083.5285    78.695054    19.857348    28.472689 
 5195800    231.43079   -1038.9407    263624.46   -28409.624    1872.9461    -30282.57   -3978.2881    3085.1266    78.695226    19.856743    28.468455 
 5196000    223.61787   -999.18973    263624.46   -28491.676    1809.7169   -30301.393   -3820.6939    3080.6061    78.694953    19.854649    28.470068 
 5196200    231.61526   -1067.0507    263624.46   -28486.543     1874.439   -30360.982   -4116.1872    3082.0092    78.694852    19.856701    28.470062 
 5196400    229.14963   -1037.2878    263624.46   -28472.306    1854.4849   -30326.791   -3970.2765    3082.4786    78.693549    19.855649     28.46613 
 5196600    223.26806   -1093.8139    263624.46   -28515.447    1806.8859   -30322.333   -4238.7806    3083.6397    78.694464    19.854839    28.474562 
 5196800    227.47793   -999.12127    263624.46   -28487.652     1840.956   -30328.608   -3803.2412    3080.6213    78.693955    19.855818    28.471521 
 5197000    230.22765   -1049.8718    263624.46   -28439.351    1863.2092    -30302.56   -4036.7072    3081.3521    78.693566    19.856668    28.471149 
 5197200    228.81629   -1151.0603    263624.46   -28500.686    1851.7872   -30352.473   -4485.0793    3085.2705    78.694276    19.855017    28.467302 
 5197400     226.2475   -945.48041    263624.46   -28477.493    1830.9982   -30308.491   -3554.0918    3077.6847    78.694366    19.856357     28.46363 
 5197600    225.27467   -1086.0945    263624.46   -28531.876    1823.1252   -30355.001   -4218.0989    3085.5958    78.694746    19.857923    28.469365 
 5197800    223.42458   -1027.1987    263624.46    -28601.84    1808.1526   -30409.993   -3967.7693    3080.8937    78.695406    19.857228    28.466102 
 5198000    227.96307   -1136.1143    263624.46   -28474.311    1844.8822   -30319.194   -4444.2819    3083.4805    78.695505    19.856914    28.463775 
 5198200    227.10546   -991.54741    263624.46   -28467.573    1837.9416   -30305.514   -3791.5183    3080.1283    78.696127    19.858265    28.462174 
 5198400    229.11778   -1030.5029    263624.46   -28555.701    1854.2271   -30409.929   -3940.7246    3082.7077    78.695481    19.858184    28.467369 
 5198600    223.59717   -1131.1979    263624.46   -28582.414    1809.5494   -30391.963   -4383.8583    3083.6418    78.696415    19.856531     28.46535 
 5198800    226.27719   -1023.1348    263624.46   -28513.085    1831.2385   -30344.323   -3909.5522    3081.0377     78.69526    19.857476    28.468572 
 5199000    232.32829   -965.46536    263624.46   -28447.455    1880.2094   -30327.664   -3653.2277    3083.6908     78.69604    19.857828     28.46266 
 5199200    226.53813   -965.62715    263624.46   -28503.576    1833.3503   -30336.926   -3639.7222    3083.1257    78.694973    19.856928    28.470323 
 5199400    225.89876    -1034.404    263624.46   -28532.262    1828.1759   -30360.438   -3945.4868    3081.8389    78.695217    19.857074    28.463327 
 5199600    223.94689   -950.57988    263624.46   -28509.532    1812.3796   -30321.911   -3596.1056    3081.4822    78.696498    19.857799    28.462339 
 5199800    222.94837   -1008.6932    263624.46   -28492.144    1804.2987   -30296.442   -3828.7604    3083.1071    78.696607    19.855402    28.466014 
 5200000    224.68469   -1072.1364    263624.46   -28501.431    1818.3506   -30319.782   -4121.7127    3081.1957    78.696867    19.855733    28.467732 
Loop time of 14309.8 on 80 procs for 5200000 steps with 9436 atoms

Performance: 313.966 ns/day, 0.076 hours/ns, 363.387 timesteps/s
98.2% CPU use with 80 MPI tasks x no OpenMP threads

MPI task timing breakdown:
Section |  min time  |  avg time  |  max time  |%varavg| %total
---------------------------------------------------------------
Pair    | 0.28164    | 3575.8     | 12103      |7146.8 | 24.99
Neigh   | 0.45041    | 225.24     | 810.09     |1909.5 |  1.57
Comm    | 11.655     | 4758.5     | 12508      |6127.9 | 33.25
Output  | 169.76     | 169.86     | 171.79     |   1.7 |  1.19
Modify  | 263.7      | 5510.5     | 14073      |7690.6 | 38.51
Other   |            | 69.84      |            |       |  0.49

Nlocal:        117.950 ave         362 max           0 min
Histogram: 34 5 18 3 0 0 0 0 2 18
Nghost:        749.175 ave        1213 max           0 min
Histogram: 10 2 2 2 4 0 27 9 8 16
Neighs:         0.00000 ave           0 max           0 min
Histogram: 80 0 0 0 0 0 0 0 0 0
FullNghs:      11462.7 ave       43785 max           0 min
Histogram: 50 10 0 0 0 0 0 0 6 14

Total # of neighbors = 917018
Ave neighs/atom = 97.182916
Neighbor list builds = 544261
Dangerous builds = 0
write_data 		${DIR}/data.${NAME}_run
write_data 		run_14/data.${NAME}_run
write_data 		run_14/data.ibeam_cooling_14_run
System init for write_data ...
Total wall time: 3:59:03
