

### IMPORT ATOMS ###
read_data ../Box_Setup/data.Ibeam_240K
  orthogonal box = (0 0 0) to (157.504 42.9242 26.8557)
  16 by 4 by 2 MPI processor grid
  reading atoms ...
  9253 atoms
  reading velocities ...
  9253 velocities
group water type 2
1381 atoms in group water
group graphite type 1
7872 atoms in group graphite


# Define potential
#
pair_style          sw
pair_coeff * * MLC_e.sw C mW

# Add velocity/set timestep
#

fix		1 graphite setforce 0.0 0.0 0.0
velocity 	graphite set 0.0 0.0 0.0
velocity            water create ${START_TEMP} ${SEED} rot yes dist gaussian
velocity            water create 240 ${SEED} rot yes dist gaussian
velocity            water create 240 12976 rot yes dist gaussian
timestep            5.0

# Define output
#
compute 1 water msd
compute 2 water temp


thermo	            100
thermo_style custom step c_2 press vol etotal ke pe c_1[4] density

# Neighbor lists
#
neigh_modify        delay 0 every 1 check yes


# Set fixes
#
fix                 2 water momentum 10 linear 1 1 1 rescale
fix                 3 all nve
fix                 4 water temp/csvr ${START_TEMP} ${START_TEMP} 500.0 928347
fix                 4 water temp/csvr 240 ${START_TEMP} 500.0 928347
fix                 4 water temp/csvr 240 240 500.0 928347

# Run 0.05 ns equilibration
#
dump                1 all custom 100 ${DIR}/eq.${NAME}.dump id type x y z vx vy vz
dump                1 all custom 100 run_13/eq.${NAME}.dump id type x y z vx vy vz
dump                1 all custom 100 run_13/eq.ibeam_cooling_13.dump id type x y z vx vy vz
run                 10000
Neighbor list info ...
  update every 1 steps, delay 0 steps, check yes
  max neighbors/atom: 2000, page size: 100000
  master list distance cutoff = 6.67472
  ghost atom cutoff = 6.67472
  binsize = 3.33736, bins = 48 13 9
  1 neighbor lists, perpetual/occasional/extra = 1 0 0
  (1) pair sw, perpetual
      attributes: full, newton on
      pair build: full/bin/atomonly
      stencil: full/bin/3d
      bin: standard
Per MPI rank memory allocation (min/avg/max) = 3.359 | 4.246 | 4.732 Mbytes
Step c_2 Press Volume TotEng KinEng PotEng c_1[4] Density 
       0          240   -344.39513    181563.75    -13284.54    987.24429   -14271.784            0    1.0922001 
     100    233.42528   -297.92663    181563.75   -13248.717    960.19908   -14208.916   0.93908496    1.0922001 
     200    236.23425   -232.30401    181563.75   -13284.379     971.7538   -14256.132    1.3435236    1.0922001 
     300    242.70816   -400.33839    181563.75   -13273.797    998.38436   -14272.181    1.7904019    1.0922001 
     400    236.55899    -527.8976    181563.75   -13281.891    973.08964   -14254.981    2.1515017    1.0922001 
     500    247.38944   -446.89694    181563.75   -13282.458    1017.6409   -14300.099    2.5050005    1.0922001 
     600    225.25148   -231.95286    181563.75   -13365.284    926.57597    -14291.86    2.9050275    1.0922001 
     700    239.08925   -401.13273    181563.75   -13350.277    983.49792   -14333.775    3.1962946    1.0922001 
     800    228.99132   -365.42783    181563.75   -13386.035    941.95989   -14327.995    3.5107145    1.0922001 
     900    240.83826   -314.95762    181563.75   -13357.158    990.69248   -14347.851    3.8908717    1.0922001 
    1000    239.39669   -341.28461    181563.75    -13318.78    984.76255   -14303.543    4.5130538    1.0922001 
    1100    236.31629   -441.19244    181563.75   -13338.289    972.09128    -14310.38     4.726557    1.0922001 
    1200    233.56361   -328.14333    181563.75   -13374.377    960.76807   -14335.145    5.0069972    1.0922001 
    1300    237.50642   -550.52018    181563.75   -13331.584    976.98692   -14308.571    5.4131876    1.0922001 
    1400    239.21803   -433.71759    181563.75   -13274.578    984.02765   -14258.605    5.8643542    1.0922001 
    1500    236.33695   -287.83278    181563.75    -13291.68    972.17627   -14263.856      6.14182    1.0922001 
    1600    240.82135   -377.18991    181563.75   -13269.647    990.62292    -14260.27    6.6579178    1.0922001 
    1700      236.349   -388.22972    181563.75   -13287.217    972.22582   -14259.443    7.2355101    1.0922001 
    1800    240.10503   -392.41774    181563.75   -13287.514    987.67631    -14275.19    7.5672307    1.0922001 
    1900    250.22383   -422.39727    181563.75   -13219.874    1029.3002   -14249.175    7.9603373    1.0922001 
    2000    251.01112   -552.71035    181563.75   -13201.726    1032.5387   -14234.265    8.2100124    1.0922001 
    2100    243.64366   -426.17546    181563.75   -13212.004    1002.2326   -14214.236    8.3616411    1.0922001 
    2200    245.43244   -393.34875    181563.75   -13211.319    1009.5907    -14220.91    8.6065302    1.0922001 
    2300    247.65624   -475.95289    181563.75   -13260.991    1018.7384    -14279.73    8.8418386    1.0922001 
    2400    250.10427   -425.44308    181563.75    -13270.45    1028.8084   -14299.258    9.3168492    1.0922001 
    2500    246.10703   -490.71056    181563.75   -13273.052    1012.3657   -14285.418    9.9141709    1.0922001 
    2600    241.85107   -486.22652    181563.75   -13305.883    994.85871   -14300.741    10.078499    1.0922001 
    2700    242.04882   -398.11826    181563.75   -13287.097    995.67214   -14282.769    10.282439    1.0922001 
    2800    251.24015   -187.83655    181563.75   -13297.728    1033.4808   -14331.209    10.271095    1.0922001 
    2900     233.2285    -367.2283    181563.75   -13355.479    959.38959   -14314.868    10.464053    1.0922001 
    3000    238.88788   -412.90185    181563.75   -13364.533    982.66958   -14347.203    10.924255    1.0922001 
    3100    241.48164   -417.30823    181563.75   -13366.975    993.33904   -14360.314    11.068748    1.0922001 
    3200    233.74377    -359.2612    181563.75    -13378.45    961.50916   -14339.959    11.238597    1.0922001 
    3300    247.83432   -363.04063    181563.75   -13333.601    1019.4709   -14353.072    11.237467    1.0922001 
    3400     235.7373   -334.35084    181563.75    -13351.55    969.70961    -14321.26    11.522143    1.0922001 
    3500    234.38385   -478.19194    181563.75   -13355.798    964.14214    -14319.94    11.917995    1.0922001 
    3600    243.10463   -442.97319    181563.75   -13337.403    1000.0152   -14337.418    12.238611    1.0922001 
    3700    232.54276   -310.93457    181563.75   -13370.565    956.56882   -14327.134    12.692003    1.0922001 
    3800    237.94727   -327.27235    181563.75   -13361.277    978.80035   -14340.077    13.234231    1.0922001 
    3900    234.75085   -304.70199    181563.75   -13377.879    965.65181    -14343.53    13.320297    1.0922001 
    4000     235.3815   -229.05194    181563.75   -13379.539    968.24599   -14347.785    13.447231    1.0922001 
    4100    242.38134   -257.49905    181563.75   -13348.213    997.03996   -14345.253    13.718168    1.0922001 
    4200    235.90611     -328.514    181563.75   -13308.207    970.40401   -14278.611    14.114334    1.0922001 
    4300    236.80086   -436.06297    181563.75   -13234.916    974.08455       -14209    14.244721    1.0922001 
    4400    242.81173   -305.73066    181563.75   -13228.279    998.81041    -14227.09    14.745639    1.0922001 
    4500    244.59766   -452.93792    181563.75   -13274.632    1006.1568   -14280.789    14.986131    1.0922001 
    4600    231.47441   -453.54128    181563.75   -13288.712     952.1741   -14240.886    15.178008    1.0922001 
    4700     244.1464   -278.31089    181563.75   -13295.916    1004.3006   -14300.216    15.863142    1.0922001 
    4800    248.85291     -477.695    181563.75   -13290.186    1023.6609   -14313.846    15.839018    1.0922001 
    4900    240.72201   -311.80624    181563.75   -13319.319    990.21428   -14309.533    16.272239    1.0922001 
    5000    238.69018   -377.15785    181563.75   -13337.075    981.85632   -14318.932     16.50237    1.0922001 
    5100    238.71081   -436.53811    181563.75   -13352.237    981.94118   -14334.178    16.843872    1.0922001 
    5200    236.20816   -328.56961    181563.75   -13347.004     971.6465   -14318.651    17.041235    1.0922001 
    5300    228.76049   -526.52891    181563.75   -13383.151    941.01037   -14324.161    17.162363    1.0922001 
    5400    242.67135   -406.51409    181563.75   -13345.071    998.23295   -14343.304    17.184746    1.0922001 
    5500    234.71965   -232.53555    181563.75   -13372.942    965.52347   -14338.465    17.228363    1.0922001 
    5600    234.80889   -306.91634    181563.75   -13384.307    965.89057   -14350.197     17.59099    1.0922001 
    5700    249.27952   -341.72156    181563.75   -13347.158    1025.4158   -14372.573    17.996929    1.0922001 
    5800    242.79814   -446.35874    181563.75   -13291.334    998.75449   -14290.088    18.183537    1.0922001 
    5900    239.24621   -325.22933    181563.75   -13324.037    984.14357   -14308.181    18.244207    1.0922001 
    6000    232.41729   -586.74342    181563.75   -13393.836    956.05266   -14349.888    18.384221    1.0922001 
    6100    235.87846   -350.62324    181563.75    -13380.31    970.29027     -14350.6    18.421146    1.0922001 
    6200     233.6614    -335.5316    181563.75   -13347.196    961.17035   -14308.366    18.804266    1.0922001 
    6300    239.25278    -350.0342    181563.75   -13325.723    984.17058   -14309.893    19.102678    1.0922001 
    6400    239.82801   -274.12464    181563.75   -13327.472     986.5368   -14314.009    19.503732    1.0922001 
    6500    245.27497   -457.22186    181563.75   -13347.502     1008.943   -14356.444    19.514463    1.0922001 
    6600    231.38897   -514.70097    181563.75   -13386.324    951.82268   -14338.147    19.922357    1.0922001 
    6700    237.19995   -187.20607    181563.75   -13399.826    975.72623   -14375.552    19.961381    1.0922001 
    6800    239.51353   -403.80972    181563.75    -13375.99    985.24321   -14361.233    20.293291    1.0922001 
    6900    230.11182   -178.00741    181563.75    -13412.47     946.5691   -14359.039    20.757908    1.0922001 
    7000    227.60697   -361.93997    181563.75   -13402.113    936.26534   -14338.379    20.702332    1.0922001 
    7100    249.30421   -369.06406    181563.75     -13330.9    1025.5173   -14356.418    20.960116    1.0922001 
    7200    238.75258   -468.54612    181563.75   -13344.235    982.11302   -14326.348    21.439911    1.0922001 
    7300    232.53146   -348.50427    181563.75   -13402.765    956.52233   -14359.287    21.981864    1.0922001 
    7400    234.62987    -375.6833    181563.75   -13400.874    965.15418   -14366.028    22.334114    1.0922001 
    7500    229.32268   -220.16974    181563.75   -13411.639    943.32295   -14354.961    22.261923    1.0922001 
    7600    228.91764   -368.06455    181563.75   -13426.536     941.6568   -14368.193    22.178202    1.0922001 
    7700    229.43007   -432.03691    181563.75   -13410.626    943.76468   -14354.391    22.551622    1.0922001 
    7800    237.71098   -264.80407    181563.75    -13376.08    977.82838   -14353.908    22.945138    1.0922001 
    7900    246.46147   -184.04038    181563.75   -13375.276    1013.8237   -14389.099    23.094099    1.0922001 
    8000    230.65534   -338.60072    181563.75   -13373.296    948.80485   -14322.101    23.385346    1.0922001 
    8100    242.19349   -445.64732    181563.75   -13380.512    996.26726   -14376.779    23.576862    1.0922001 
    8200     234.9104   -398.72222    181563.75    -13403.51    966.30813   -14369.818    23.867882    1.0922001 
    8300    228.61609   -198.49829    181563.75    -13414.78    940.41636   -14355.197    24.050284    1.0922001 
    8400     231.7358    -396.0294    181563.75   -13409.952    953.24937   -14363.202    24.241167    1.0922001 
    8500    242.11442   -281.60624    181563.75    -13394.86    995.94201   -14390.802    24.326948    1.0922001 
    8600    242.25117   -459.39544    181563.75   -13360.733    996.50453   -14357.238    24.482494    1.0922001 
    8700    229.13924   -376.91531    181563.75   -13423.162    942.56834   -14365.731     24.94787    1.0922001 
    8800    242.90638   -286.20516    181563.75   -13370.026    999.19974   -14369.225    25.331778    1.0922001 
    8900     235.1019    -148.5607    181563.75   -13398.644    967.09588    -14365.74    25.489539    1.0922001 
    9000    244.91196   -545.97513    181563.75   -13367.923    1007.4497   -14375.373    25.660568    1.0922001 
    9100    240.18263   -374.72034    181563.75   -13359.596    987.99553   -14347.591    25.829344    1.0922001 
    9200     233.1144   -442.55169    181563.75    -13398.93    958.92023    -14357.85    25.898678    1.0922001 
    9300    236.89308   -303.87585    181563.75   -13399.466    974.46393    -14373.93    26.247271    1.0922001 
    9400    239.96771   -438.67374    181563.75   -13407.043    987.11146   -14394.154    26.650753    1.0922001 
    9500    237.84078   -486.30879    181563.75    -13389.85    978.36228   -14368.212    27.066333    1.0922001 
    9600    233.50743   -422.53492    181563.75   -13448.472    960.53697   -14409.009    27.192281    1.0922001 
    9700    242.01988   -240.33196    181563.75   -13384.548    995.55309   -14380.101    27.216793    1.0922001 
    9800    243.38179   -285.93557    181563.75   -13421.964    1001.1553   -14423.119    27.260375    1.0922001 
    9900    241.67186    -267.0687    181563.75   -13377.608    994.12153    -14371.73    27.757079    1.0922001 
   10000    242.35724   -332.10018    181563.75   -13329.837    996.94084   -14326.778    27.959928    1.0922001 
Loop time of 12.7585 on 128 procs for 10000 steps with 9253 atoms

Performance: 338.598 ns/day, 0.071 hours/ns, 783.792 timesteps/s
97.6% CPU use with 128 MPI tasks x no OpenMP threads

MPI task timing breakdown:
Section |  min time  |  avg time  |  max time  |%varavg| %total
---------------------------------------------------------------
Pair    | 0.00088191 | 3.4246     | 10.369     | 215.8 | 26.84
Neigh   | 0.0044665  | 0.11968    | 0.30588    |  27.9 |  0.94
Comm    | 0.17706    | 1.998      | 8.6052     | 161.3 | 15.66
Output  | 0.15001    | 0.15021    | 0.15732    |   0.2 |  1.18
Modify  | 0.38869    | 6.9325     | 12.321     | 198.5 | 54.34
Other   |            | 0.1335     |            |       |  1.05

Nlocal:    72.2891 ave 151 max 0 min
Histogram: 40 0 9 15 0 0 0 22 32 10
Nghost:    704.133 ave 966 max 516 min
Histogram: 26 12 2 32 12 4 6 16 2 16
Neighs:    0 ave 0 max 0 min
Histogram: 128 0 0 0 0 0 0 0 0 0
FullNghs:  7804.23 ave 18476 max 0 min
Histogram: 43 21 0 0 0 0 3 30 22 9

Total # of neighbors = 998942
Ave neighs/atom = 107.959
Neighbor list builds = 548
Dangerous builds = 0
write_data 	    ${DIR}/data.${NAME}_eq
write_data 	    run_13/data.${NAME}_eq
write_data 	    run_13/data.ibeam_cooling_13_eq

undump              1
unfix               4



################################################
#######         Run Simulation         #########
################################################

reset_timestep      0
timestep	    10.0
log                 ${DIR}/log.run_${NAME}
log                 run_13/log.run_${NAME}
log                 run_13/log.run_ibeam_cooling_13
