
# Set production fixes - Nose/Hoover
#
fix                 4 water temp/csvr ${START_TEMP} ${END_TEMP} 500.0 928347
fix                 4 water temp/csvr 240 ${END_TEMP} 500.0 928347
fix                 4 water temp/csvr 240 227 500.0 928347


## divide "droplet" into core and surface
#region		core_reg cylinder z 135 135 44.6 20 INF units box
#region		surface_reg cylinder z 135 135 44.6 20 INF units box side out
#group		core dynamic all region core_reg
#group		surface dynamic all region surface_reg

## compute pressure core
#compute        peratom_core core stress/atom NULL
#compute        p_core core reduce sum c_peratom_core[1] c_peratom_core[2] c_peratom_core[3]
#variable       press_core equal -(c_p_core[1]+c_p_core[2]+c_p_core[3])/(3*1249982.5)


## compute pressure surface
#compute        peratom_surf surface stress/atom NULL
#compute        p_surf surface reduce sum c_peratom_surf[1] c_peratom_surf[2] #c_peratom_surf[3]
#variable       press_surf equal -(c_p_surf[1]+c_p_surf[2]+c_p_surf[3])/(3*33365)

## compute total pressure of drop
compute        peratom water stress/atom NULL
compute        p water reduce sum c_peratom[1] c_peratom[2] c_peratom[3]
variable       press equal -(c_p[1]+c_p[2]+c_p[3])/(3*50320)


# compute order parameter
compute        3 all orientorder/atom nnn NULL cutoff 3.5

# compute center of mass of bridge
compute 	4 water com

# Run simulation
thermo_style        custom step c_2 press vol etotal ke pe v_press c_1[4] c_4[*]
thermo              200
dump		     1 water custom 400 ${DIR}/prod.${NAME}.dump id type x y z vx vy vz c_3[*] c_peratom[*]
dump		     1 water custom 400 run_13/prod.${NAME}.dump id type x y z vx vy vz c_3[*] c_peratom[*]
dump		     1 water custom 400 run_13/prod.ibeam_cooling_13.dump id type x y z vx vy vz c_3[*] c_peratom[*]
run                 ${STEPS}
run                 5200000
Neighbor list info ...
  update every 1 steps, delay 0 steps, check yes
  max neighbors/atom: 2000, page size: 100000
  master list distance cutoff = 6.67472
  ghost atom cutoff = 6.67472
  binsize = 3.33736, bins = 48 13 9
  2 neighbor lists, perpetual/occasional/extra = 1 1 0
  (1) pair sw, perpetual
      attributes: full, newton on
      pair build: full/bin/atomonly
      stencil: full/bin/3d
      bin: standard
  (2) compute orientorder/atom, occasional, copy from (1)
      attributes: full, newton on
      pair build: copy
      stencil: none
      bin: none
Per MPI rank memory allocation (min/avg/max) = 6.133 | 6.583 | 7.261 Mbytes
Step c_2 Press Volume TotEng KinEng PotEng v_press c_1[4] c_4[1] c_4[2] c_4[3] 
       0    242.35724   -332.10018    181563.75   -13329.837    996.94084   -14326.778   -630.29512    27.959928     78.72934    25.138479    16.461328 
     200    239.70237   -324.17192    181563.75   -13350.548    986.01998   -14336.568   -601.22244    29.148414    78.725664    25.138756    16.472014 
     400    240.41316   -261.33511    181563.75   -13350.281    988.94382   -14339.225   -322.56395    29.772147    78.727541    25.134738    16.452517 
     600     227.0111   -221.47136    181563.75   -13437.344    933.81421   -14371.158   -230.12841    30.354888    78.727647    25.136463    16.447881 
     800    234.50786   -168.18736    181563.75   -13426.171    964.65227   -14390.823   -44.589022     32.19024    78.730216    25.134657    16.440889 
    1000    240.21872   -163.11401    181563.75   -13318.449    988.14401   -14306.593   -11.965518    32.530903    78.732404    25.138311    16.423894 
    1200    225.30414   -271.43667    181563.75   -13404.035    926.79261   -14330.828   -395.64024    33.968221     78.72859    25.139442    16.424323 
    1400    248.47491   -520.55738    181563.75   -13278.113     1022.106   -14300.219    -1263.653    35.046629    78.725814     25.14182    16.435485 
    1600    243.53188   -432.16611    181563.75   -13285.875    1001.7727   -14287.648   -950.95684     35.91176    78.719783    25.142532     16.46036 
    1800    234.97897   -302.28042    181563.75   -13318.257    966.59019   -14284.847   -540.61888    36.863033    78.718412    25.143252      16.4717 
    2000    246.94842   -465.56043    181563.75   -13221.917    1015.8267   -14237.744   -1068.6752     38.00418    78.716598    25.146687    16.468067 
    2200    245.92321   -426.58319    181563.75   -13252.785    1011.6095   -14264.394    -995.1004    39.634939    78.712557    25.148568    16.500673 
    2400    243.66216   -349.66542    181563.75   -13282.359    1002.3087   -14284.668   -701.40175    41.095211    78.709568    25.150101    16.527481 
    2600    237.50595   -520.06346    181563.75   -13319.153    976.98495   -14296.138   -1259.9826    41.904558    78.709395    25.155223    16.536736 
    2800    240.59331   -349.72345    181563.75   -13304.827    989.68486   -14294.512   -665.15733      42.2008    78.708293    25.155889    16.515939 
    3000    233.76665   -426.89536    181563.75   -13385.386    961.60329   -14346.989    -907.3018    43.534617    78.711936    25.154969    16.504676 
    3200    233.27232   -429.50527    181563.75     -13381.9    959.56985   -14341.469   -969.47236    43.995446    78.712868    25.150512    16.489729 
    3400    228.31495   -363.27662    181563.75   -13328.147    939.17761   -14267.325   -717.18198     45.13096    78.714607    25.147108    16.469792 
    3600    243.65553   -318.81863    181563.75   -13300.446    1002.2814   -14302.727   -563.80492    46.428321    78.707714    25.146449    16.490955 
    3800      240.013   -474.44227    181563.75   -13308.983    987.29778   -14296.281    -1167.431    48.426862    78.705999    25.145214    16.458052 
    4000    245.44638   -322.09399    181563.75   -13339.948    1009.6481   -14349.596   -588.16751    50.241647    78.704688    25.148028    16.449382 
    4200    251.04376   -333.12215    181563.75    -13248.36     1032.673   -14281.033    -610.1478    52.055566    78.705004    25.155214    16.445943 
    4400    249.16413   -192.40393    181563.75   -13203.249    1024.9411    -14228.19    -123.6299    54.444692    78.708353    25.156694    16.467103 
    4600    248.64118   -391.91225    181563.75   -13273.732    1022.7899   -14296.522   -835.08703    55.226654    78.708284    25.155568    16.457879 
    4800    238.26811   -316.65241    181563.75   -13246.269    980.12013   -14226.389   -527.11504    56.380433    78.707154    25.154272    16.417655 
    5000     243.8461   -282.05222    181563.75   -13305.187    1003.0653   -14308.252   -454.19402    57.674762    78.708095    25.157311    16.396526 
    5200    239.54384   -502.13243    181563.75   -13297.133    985.36785     -14282.5    -1276.728    59.084838    78.710764     25.15606    16.409151 
    5400    237.89384   -340.54863    181563.75   -13305.123    978.58057   -14283.703   -669.94552    60.115487    78.710221    25.154377    16.388895 
    5600    231.35637   -441.35629    181563.75   -13342.842    951.68855    -14294.53    -1034.012    62.043575    78.712506    25.156324    16.388562 
    5800    253.85924   -158.14561    181563.75   -13215.479    1044.2545   -14259.734    -3.684451    62.151754    78.710174    25.157323    16.390563 
    6000    235.02268    -433.5575    181563.75   -13336.657    966.76999   -14303.427   -1003.4332    62.844364    78.711311    25.159864    16.435327 
    6200    229.84375    -384.5473    181563.75   -13263.047    945.46635   -14208.513   -839.71503    63.746055    78.711533    25.158887    16.413395 
    6400     242.5448   -474.98342    181563.75   -13248.429    997.71239   -14246.141    -1143.219    64.445983    78.712663    25.154851     16.37841 
    6600    240.81056   -339.04019    181563.75    -13328.23    990.57855   -14318.808   -578.90503    65.893763    78.712243    25.148365    16.362111 
    6800    234.93487    -246.4638    181563.75   -13326.549    966.40878   -14292.958   -362.41368    67.128566    78.711675    25.146154    16.377564 
    7000    233.06898   -345.94269    181563.75   -13363.568    958.73343   -14322.301   -670.08505    69.278028    78.712001    25.148683     16.39042 
    7200    250.47753   -340.75369    181563.75   -13311.424    1030.3438   -14341.768   -681.11185    69.572144    78.709949    25.146743    16.403838 
    7400    232.22213    -348.6056    181563.75   -13398.598    955.24987   -14353.848   -691.11662    70.427664    78.705059    25.152225    16.358695 
    7600    229.86403   -362.24624    181563.75   -13382.461    945.54979   -14328.011   -709.37287    71.896011    78.702583    25.153951      16.3614 
    7800     240.3211    -365.7776    181563.75    -13286.43    988.56512   -14274.996   -738.93271    73.478296    78.703143    25.154294    16.356621 
    8000    240.15344   -184.25497    181563.75   -13286.138    987.87545   -14274.014   -124.95036     74.69105    78.703145    25.155494    16.333289 
    8200    233.52065   -395.50477    181563.75   -13317.051    960.59135   -14277.642   -842.51137    75.838903    78.705089    25.154524    16.352868 
    8400    237.62979   -313.28701    181563.75   -13291.352    977.49441   -14268.846   -587.95783    77.256024    78.706233    25.156779    16.369312 
    8600    241.94507   -351.56608    181563.75   -13233.262    995.24537   -14228.507   -693.75934    79.166205    78.703573    25.159476    16.386583 
    8800    243.10848   -366.25728    181563.75   -13234.218    1000.0311   -14234.249   -742.71639    80.855185    78.704332    25.161485    16.364877 
    9000    241.08861   -179.29421    181563.75   -13244.631    991.72232   -14236.353   -67.278576     82.48497    78.702126    25.165788    16.372533 
    9200    231.82696   -423.27659    181563.75   -13260.983    953.62435   -14214.607   -979.26469    85.457878    78.704005     25.16511    16.342122 
    9400    243.07009   -279.53384    181563.75   -13264.415    999.87317   -14264.288   -425.67895    86.326095     78.70485    25.168659     16.37361 
    9600    228.48925   -252.59731    181563.75   -13323.571     939.8946   -14263.466   -355.41795     88.27186    78.703006    25.168913    16.344349 
    9800    235.57849   -360.57402    181563.75   -13318.588    969.05633   -14287.644   -743.87785      89.4457    78.699306    25.166777    16.351663 
   10000    242.53715   -442.29446    181563.75   -13175.893    997.68091   -14173.574   -989.44917    91.910725    78.700364    25.165052    16.358931 
   10200    248.51469   -493.38518    181563.75   -13202.563    1022.2696   -14224.832   -1182.9465    94.031798    78.698657    25.166924     16.33942 
   10400    239.07545   -311.12097    181563.75   -13223.182    983.44113   -14206.624   -566.32808    95.986533    78.702022    25.166308    16.322966 
   10600    246.38617   -449.38319    181563.75   -13197.115    1013.5139   -14210.629   -996.22853    96.415395    78.702727     25.16783    16.323489 
   10800      235.371   -414.48685    181563.75   -13240.829    968.20283   -14209.032   -933.51681    98.798731    78.702417    25.166731    16.334508 
   11000    236.02987   -256.80223    181563.75   -13265.164    970.91311   -14236.077   -351.97138    100.41788    78.705714    25.160596    16.330806 
   11200    240.01477   -208.92536    181563.75   -13270.994    987.30506   -14258.299   -165.75216    102.35236    78.705508    25.157757    16.360659 
   11400    246.46503   -399.78265    181563.75   -13229.817    1013.8383   -14243.656     -821.998    102.50142    78.704696    25.156255    16.361979 
   11600    240.94403   -471.10761    181563.75   -13239.219    991.12758   -14230.347   -1159.6395    104.15323    78.705581    25.159688    16.353442 
   11800     246.0452   -421.55381    181563.75   -13244.539    1012.1113    -14256.65   -953.74949     104.9113    78.708224    25.158926    16.367837 
   12000    249.89573   -262.63408    181563.75   -13219.999    1027.9505   -14247.949   -336.82785    105.74128    78.705196    25.160811    16.364368 
   12200    240.07822   -345.92309    181563.75   -13267.527    987.56603   -14255.093   -654.71012    106.97265    78.708953    25.156854    16.351444 
   12400    244.78346   -606.04772    181563.75   -13220.214    1006.9211   -14227.135   -1641.1736    108.72834     78.71089    25.158397    16.332139 
   12600    246.89912   -299.81786    181563.75   -13203.408    1015.6239   -14219.032   -495.83901      110.988    78.709268     25.15815    16.311796 
   12800    237.98292   -209.65867    181563.75   -13295.407    978.94699   -14274.354   -221.23614    112.01637    78.709364    25.157202    16.287087 
   13000    241.55854   -511.03761    181563.75   -13342.203    993.65537   -14335.859   -1236.1809    114.42777      78.7083    25.156296    16.296148 
   13200    246.27871   -212.60503    181563.75   -13297.292    1013.0719   -14310.364    -163.2735    114.39305    78.712275    25.158527    16.304154 
   13400     246.9055   -266.45956    181563.75   -13261.892    1015.6502   -14277.542    -357.6677    116.32792    78.709878    25.158573    16.295786 
   13600    243.80305   -561.05516    181563.75   -13297.632    1002.8882    -14300.52   -1432.1599    115.95308    78.707555    25.154293    16.297172 
   13800    232.31873   -254.43125    181563.75   -13354.855    955.64726   -14310.502   -343.62013    115.17131    78.701783    25.154467     16.30329 
   14000    235.16705   -401.94358    181563.75   -13327.489    967.36386   -14294.853   -869.36317    117.53301    78.700933    25.151678    16.280906 
   14200     229.5312   -331.67913    181563.75   -13368.342     944.1807   -14312.523   -607.61343    118.17433    78.698378    25.149051    16.288618 
   14400    228.35649   -325.74759    181563.75   -13409.206    939.34849   -14348.555   -571.76281    119.37517    78.698699    25.145316    16.294784 
   14600     239.8832   -492.89295    181563.75   -13371.998    986.76384   -14358.762   -1161.9497    120.46807    78.702059    25.142914    16.286802 
   14800    237.36315   -405.16842    181563.75   -13334.887    976.39757   -14311.284   -872.68945    120.77704    78.700349    25.142746    16.295958 
   15000    237.73091   -410.69514    181563.75   -13334.769    977.91033   -14312.679   -951.26329    122.70338    78.699086    25.138345    16.265898 
   15200    234.69739   -444.10392    181563.75   -13373.634    965.43191   -14339.066   -967.39283     125.9438    78.697049    25.136867    16.264303 
   15400    233.07939   -331.51061    181563.75   -13287.602    958.77624   -14246.379   -590.59081     126.5528    78.697562    25.130131    16.258644 
   15600    238.42997   -239.35345    181563.75   -13339.586    980.78593   -14320.372    -235.1031    127.31359    78.698288    25.127563     16.27922 
   15800    244.31801   -396.12664    181563.75   -13253.027    1005.0065   -14258.033    -849.2396    128.82189    78.700497    25.128926    16.287245 
   16000    234.33379   -251.15261    181563.75   -13316.233    963.93623   -14280.169   -319.66047    131.13984    78.702878    25.131349    16.281979 
   16200    251.08878   -314.65118    181563.75   -13223.667    1032.8582   -14256.525   -567.87088     131.4365    78.703772    25.129576    16.262231 
   16400    251.08005   -296.38054    181563.75   -13215.387    1032.8223   -14248.209    -529.8123    131.83443    78.704094    25.127321    16.245782 
   16600    244.57838    -372.6808    181563.75   -13272.068    1006.0775   -14278.146   -813.45567    133.77512     78.70335    25.128487    16.243731 
   16800    242.95222   -257.76295    181563.75   -13280.037    999.38828   -14279.425   -327.22433     134.1014    78.705149     25.12511     16.25511 
   17000    241.52443   -332.68532    181563.75   -13267.797    993.51506   -14261.312   -662.86515    136.55475    78.704799     25.12513    16.277564 
   17200    238.81982   -315.95781    181563.75   -13270.159    982.38959   -14252.548   -507.99347    138.43977    78.705227    25.125283    16.293139 
   17400    235.65917   -290.00861    181563.75   -13235.123     969.3882   -14204.511   -487.07438    139.26887    78.707193    25.125672    16.286008 
   17600    248.67045   -368.77451    181563.75   -13184.999    1022.9103   -14207.909   -743.19913     140.1937    78.709083    25.129234    16.304373 
   17800    240.52679   -404.50073    181563.75   -13206.284    989.41123   -14195.695   -872.48354    141.86181    78.709211    25.125498    16.257649 
   18000    242.19774   -284.62563    181563.75   -13234.823    996.28471   -14231.108   -458.87179    143.86502    78.709176     25.12281    16.269006 
   18200    236.07314   -396.07357    181563.75   -13238.369    971.09107    -14209.46    -835.3844     144.8437    78.712089    25.123574    16.282194 
   18400    239.06098   -487.77322    181563.75   -13262.741    983.38161   -14246.123   -1169.1832       147.51    78.712634    25.125089    16.275673 
   18600    242.49501   -317.41131    181563.75    -13230.08    997.50757   -14227.588    -587.1511    149.78981    78.709166    25.124999     16.26407 
   18800    235.07862    -213.1988    181563.75    -13235.52    967.00011    -14202.52   -178.17611    151.08139    78.710162    25.121658    16.276562 
   19000    238.67961   -384.12486    181563.75   -13264.543    981.81285   -14246.356   -830.57282    153.08607     78.71189    25.124464    16.281382 
   19200    238.21552   -387.49624    181563.75   -13258.432    979.90381   -14238.336   -844.45935    152.42053    78.713842    25.127622    16.269132 
   19400    245.19956   -391.64612    181563.75   -13244.978    1008.6328   -14253.611   -828.54007    153.58281    78.712202    25.127767    16.278031 
   19600    233.28237   -277.25391    181563.75   -13319.895     959.6112   -14279.506   -390.46416    153.54549    78.714104    25.127457    16.259151 
   19800    229.04462   -352.46818    181563.75   -13319.492    942.17914   -14261.671   -690.57917    154.03413    78.713936    25.122883    16.260784 
   20000    230.44461   -261.87277    181563.75   -13330.153    947.93801   -14278.091    -394.3094    157.34418    78.716746    25.116754     16.25403 
   20200    239.02647   -339.56159    181563.75   -13355.646    983.23964   -14338.885   -598.86157    160.62471     78.71677    25.115557    16.274641 
   20400    231.20012   -336.99062    181563.75    -13388.57    951.04582   -14339.616   -629.45823    162.36339    78.715877    25.112536    16.270096 
   20600    244.10367   -379.61827    181563.75   -13327.995    1004.1248    -14332.12   -763.08127    163.57527    78.717087    25.110834    16.265583 
   20800    234.81191   -251.90478    181563.75   -13348.929    965.90297   -14314.832   -365.47043    163.85095    78.720186    25.110947    16.265962 
   21000    247.99154   -440.80998    181563.75   -13316.669    1020.1176   -14336.787   -1039.2495    165.82451    78.719074    25.110759    16.275643 
   21200     239.2884   -352.59885    181563.75   -13332.594    984.31712   -14316.911   -662.98693    166.70487    78.718265    25.106993    16.269536 
   21400    234.84459   -247.19922    181563.75   -13400.177    966.03743   -14366.214   -256.48118    165.31099    78.717151    25.107554    16.288052 
   21600    234.73675   -389.68152    181563.75   -13330.501     965.5938   -14296.095   -810.66708    166.48635    78.719079    25.107223    16.311983 
   21800    239.46297   -297.93242    181563.75   -13312.142     985.0352   -14297.177   -489.66769    167.91848    78.722529    25.104214    16.309023 
   22000    240.28595   -406.73457    181563.75   -13318.591    988.42056   -14307.012   -899.79915    167.92297    78.720279    25.104854    16.306057 
   22200    245.16279   -518.50123    181563.75    -13300.76    1008.4815   -14309.241   -1289.3071    167.46126    78.715637    25.103353    16.300288 
   22400    248.05922   -338.23014    181563.75   -13331.314    1020.3961    -14351.71   -688.47977    166.92171     78.71951    25.105326    16.299779 
   22600    230.58565    -376.3911    181563.75   -13386.566     948.5182   -14335.084   -730.34261    168.32269    78.716572    25.107994     16.31372 
   22800    238.24612    -426.2854    181563.75   -13335.255    980.02967   -14315.285   -975.15409    168.10254    78.719971    25.105712     16.31555 
   23000    245.72225   -431.63634    181563.75   -13331.024    1010.7828   -14341.807   -1011.5866     169.4281    78.721071    25.103085    16.324498 
   23200    242.07614   -423.54735    181563.75   -13349.202    995.78453   -14344.987   -935.09478    169.99283    78.719262    25.102305    16.323343 
   23400    242.89975   -315.60657    181563.75   -13319.075    999.17247   -14318.248    -548.1677    169.63146    78.717741    25.101991    16.331482 
   23600    238.31497   -336.02892    181563.75   -13365.549    980.31289   -14345.862   -601.12539    170.92964    78.718847    25.102779    16.310246 
   23800    240.78632   -183.70316    181563.75   -13385.814    990.47882   -14376.293   -117.70526    172.07542      78.7162    25.105444    16.309795 
   24000    242.25173   -410.60308    181563.75   -13331.022    996.50681   -14327.528   -943.08501    171.45734    78.715146    25.108102    16.304398 
   24200    240.35823   -363.03533    181563.75   -13334.386    988.71787   -14323.104   -745.04609    171.99351    78.710186    25.106484    16.293295 
   24400    249.68511   -444.89455    181563.75   -13335.387    1027.0842   -14362.471   -1010.5051    172.86955     78.70914    25.105868    16.306703 
   24600    241.26821   -362.80742    181563.75   -13360.613    992.46111   -14353.074   -733.36266    173.59276    78.710798    25.105107    16.313429 
   24800    242.36789   -337.00832    181563.75   -13343.845    996.98464   -14340.829   -673.78088     174.9519    78.711958       25.103    16.326931 
   25000     243.4737    -316.5976    181563.75   -13354.957    1001.5334    -14356.49   -607.39787    176.01397    78.708035    25.097226    16.321197 
   25200    241.93866   -460.14969    181563.75   -13322.355    995.21899   -14317.574   -1090.8629    176.24491    78.707077    25.101508     16.33311 
   25400    237.88722    -368.4189    181563.75   -13317.195    978.55333   -14295.749   -704.06884    179.00752    78.712514    25.101613    16.311832 
   25600    239.26613   -174.91649    181563.75   -13279.792     984.2255   -14264.017   -37.003171    178.77326    78.712347    25.105042    16.291467 
   25800    242.28341   -270.67881    181563.75   -13321.218    996.63713   -14317.855   -380.02545     181.1344    78.714166    25.107085    16.298022 
   26000    232.52417   -336.95633    181563.75   -13351.259    956.49233   -14307.751   -635.76619    181.65857      78.7149    25.109903    16.307405 
   26200    236.60481   -329.79514    181563.75    -13321.69     973.2781   -14294.969   -656.23799    184.07909    78.713448    25.109251    16.297221 
   26400    231.95962   -236.19483    181563.75   -13374.604    954.17003   -14328.774   -297.64947    184.77932    78.712884    25.110215    16.288233 
   26600    239.70851   -432.17879    181563.75   -13360.499    986.04522   -14346.544   -1003.7319     184.6843    78.715148    25.109543    16.275345 
   26800     240.5698   -450.50892    181563.75   -13295.615    989.58818   -14285.203    -1071.093    184.97157    78.714237    25.111418    16.281351 
   27000    236.87534   -299.70573    181563.75   -13343.127    974.39094   -14317.518   -553.31827    186.28472    78.712687    25.116188    16.257106 
   27200    240.32501   -335.89802    181563.75   -13301.102    988.58121   -14289.683    -629.7903    184.95529    78.716306    25.118137    16.312224 
   27400    239.62536   -417.18702    181563.75   -13299.374    985.70321   -14285.077   -892.42192     186.5662     78.71441    25.121017    16.324621 
   27600    235.31442   -510.52792    181563.75   -13321.707    967.97006   -14289.677    -1259.336     187.5383    78.716004    25.122038    16.331045 
   27800    228.78466    -337.8526    181563.75   -13403.844     941.1098   -14344.953   -610.04901    187.76949    78.721129    25.124481    16.372428 
   28000     235.0234   -417.69889    181563.75   -13336.823    966.77295   -14303.596   -916.47206    188.43217    78.724617    25.125491    16.381257 
   28200    249.41872   -480.34526    181563.75   -13285.896    1025.9884   -14311.884   -1158.6741    189.71275    78.724966    25.125214    16.387412 
   28400    236.19534   -365.03542    181563.75   -13296.061    971.59376   -14267.655   -771.81381    190.60381    78.719971    25.124991    16.417028 
   28600    233.68726   -456.35484    181563.75   -13298.776     961.2767   -14260.053   -1052.1817    192.45276    78.719173    25.128991    16.429131 
   28800    233.46197   -270.90275    181563.75   -13381.072    960.34998   -14341.422    -351.0161    193.44419    78.722844      25.1303     16.42615 
   29000    242.37267   -258.38452    181563.75   -13353.606     997.0043    -14350.61   -351.52298    193.82566    78.724022    25.132129    16.394263 
   29200    237.38942   -487.39922    181563.75   -13345.272    976.50563   -14321.777   -1165.5255    194.13858    78.722001    25.131743    16.384255 
   29400    239.43506   -254.40392    181563.75   -13341.444    984.92039   -14326.364   -291.19341    195.45416    78.722059    25.135296     16.39678 
   29600    236.79941   -415.76699    181563.75   -13358.964     974.0786   -14333.043   -898.53816    196.21937    78.728978    25.135533     16.38145 
   29800      241.049   -388.24482    181563.75   -13338.625    991.55936   -14330.184   -806.77745    195.36538    78.733754    25.133663    16.398968 
   30000    234.50562   -309.17503    181563.75   -13324.539    964.64306   -14289.182   -531.74135    195.85452    78.734184    25.131621    16.391317 
   30200    229.69326    -425.8615    181563.75   -13347.055    944.84734   -14291.903   -941.69654    197.79515     78.73274    25.131458    16.405877 
   30400    233.65468   -228.39507    181563.75   -13372.763     961.1427   -14333.906   -195.20463    197.33831    78.732353    25.128471    16.405632 
   30600    237.21251   -465.31105    181563.75   -13364.486    975.77791   -14340.264   -1108.2953    198.95935     78.73381    25.129133    16.391167 
   30800    230.38022   -418.26806    181563.75   -13325.334    947.67315   -14273.007   -910.61888    200.19673     78.73108     25.13207     16.36377 
   31000    238.42706   -471.52874    181563.75   -13339.766    980.77397    -14320.54   -1118.7067    202.93696    78.728667    25.128317    16.353137 
   31200    237.21781   -564.82487    181563.75   -13274.723     975.7997   -14250.523   -1375.6194    205.35557    78.726552    25.126396    16.371026 
   31400    239.77384   -231.71917    181563.75   -13313.133    986.31399   -14299.447   -227.16149    207.05587    78.726364    25.123182    16.374685 
   31600     242.7691   -264.46227    181563.75   -13286.432    998.63503   -14285.068   -323.67923    207.42848    78.727943    25.120805    16.354491 
   31800    234.56781     -379.303    181563.75   -13352.537    964.89888   -14317.436   -736.92037    205.67521    78.723944    25.117556    16.376778 
   32000    237.36813   -394.16105    181563.75   -13314.946    976.41802   -14291.364   -786.18097    207.48973    78.723931    25.113158    16.390385 
   32200    239.91625   -320.75393    181563.75   -13357.861    986.89979   -14344.761   -570.44006    208.74456    78.725244    25.110095    16.430927 
   32400    237.32782   -451.12229    181563.75   -13315.871    976.25225   -14292.123   -1075.1784    210.87178    78.722601    25.107696    16.436828 
   32600    242.46119   -463.74579    181563.75   -13273.805    997.36843   -14271.174   -1143.7802    212.59888    78.721655    25.106795    16.458688 
   32800     233.6249   -466.03346    181563.75   -13304.578    961.02021   -14265.598   -1122.4404    212.44495    78.725677    25.107001    16.450775 
   33000    238.17665   -345.97041    181563.75   -13254.399    979.74392   -14234.143   -686.35978    214.47401    78.727829    25.105646     16.48608 
   33200    243.39763   -365.51443    181563.75    -13284.63    1001.2205   -14285.851   -751.04306    214.87228    78.728667    25.108941    16.506065 
   33400    239.53765   -453.64427    181563.75   -13313.071    985.34241   -14298.414   -1018.9523    216.21438    78.729602      25.1087    16.530948 
   33600    236.38043   -317.14927    181563.75   -13360.033     972.3551   -14332.389   -586.08308    215.52918    78.732908    25.108923    16.542463 
   33800    233.68851   -290.00674    181563.75   -13322.522    961.28187   -14283.804   -440.14467    217.31225    78.733667    25.111734    16.528525 
   34000    243.46669   -395.91435    181563.75   -13341.585    1001.5046    -14343.09   -847.33686    219.79766    78.734455     25.11117    16.533484 
   34200    238.59224    -400.3028    181563.75   -13396.964    981.45345   -14378.418   -846.38079    219.33902    78.734292    25.116462    16.552378 
   34400    233.59244   -440.30809    181563.75   -13402.008    960.88669   -14362.895   -994.66196    220.75087    78.733501    25.119727    16.542939 
   34600    236.53844   -451.07556    181563.75   -13374.573    973.00512   -14347.578   -1037.5379    222.13047    78.733997    25.122481     16.54633 
   34800      242.095   -392.68219    181563.75   -13374.666    995.86211   -14370.528   -832.78745    221.18339    78.734167    25.123658    16.516417 
   35000    238.28322   -206.56716    181563.75   -13368.057    980.18228   -14348.239   -166.28344    221.01685    78.732697     25.12211    16.513625 
   35200    245.33023   -561.08252    181563.75   -13322.594    1009.1703   -14331.764   -1434.2258    222.65793    78.734339    25.124376    16.491639 
   35400    241.45629   -311.87837    181563.75   -13283.637    993.23476   -14276.872   -537.28729    224.50972    78.736863    25.125733    16.493281 
   35600    239.77348   -355.57062    181563.75   -13343.705     986.3125   -14330.018   -643.30321    225.87946     78.73997    25.126337    16.474275 
   35800    239.32462   -232.32178    181563.75   -13300.604    984.46611    -14285.07   -236.37541     225.8158    78.739156    25.120805    16.473378 
   36000     233.8496   -231.49888    181563.75   -13360.672     961.9445   -14322.616   -248.36101    226.72424    78.737128     25.12259    16.460811 
   36200    233.97069   -544.78414    181563.75    -13362.73    962.44262   -14325.172   -1382.4508    227.60443    78.736915    25.127893    16.443615 
   36400     245.4845   -257.37694    181563.75   -13284.415    1009.8049   -14294.219   -386.45751    229.35722    78.738464    25.127212    16.436179 
   36600    238.79616   -248.84705    181563.75   -13332.843    982.29227   -14315.136   -315.35657    231.35813    78.741587    25.128598    16.430279 
   36800     237.3083   -307.73823    181563.75   -13352.736    976.17194   -14328.908   -498.88371    233.87431    78.743518    25.130842    16.418962 
   37000    244.35984   -292.32088    181563.75   -13300.611    1005.1785    -14305.79   -446.80158    234.46072    78.743916    25.134895    16.423669 
   37200    238.01187   -386.80706    181563.75    -13360.04     979.0661   -14339.106   -820.38109    236.44267    78.746106    25.134842    16.412177 
   37400    243.92404   -342.27894    181563.75   -13293.585    1003.3859   -14296.971   -645.37423    235.97154    78.747066    25.135025    16.426972 
   37600    243.56064   -259.46326    181563.75   -13266.419     1001.891    -14268.31   -304.01595    236.92497     78.75017    25.136015    16.436679 
   37800    236.84355   -488.08109    181563.75   -13288.457    974.26017   -14262.717   -1177.2708    238.62781    78.749222    25.136986    16.423901 
   38000    239.49837   -168.08189    181563.75   -13309.342    985.18081   -14294.522   -57.213742    241.20697    78.747084    25.138004    16.419598 
   38200    236.56868   -419.31445    181563.75   -13258.892    973.12948   -14232.022   -941.17131    242.43614    78.749066    25.136167    16.426115 
   38400     248.2467   -281.09053    181563.75   -13254.181    1021.1673   -14275.348   -415.85576    242.65004    78.747904    25.138454    16.411168 
   38600    237.88388   -475.46931    181563.75   -13266.289    978.53959   -14244.828   -1142.9538    243.38142    78.748189    25.141836    16.416548 
   38800    237.70935   -364.25546    181563.75   -13250.696    977.82164   -14228.518   -724.74156    242.77581    78.748273    25.143344    16.421605 
   39000    234.90777   -316.68919    181563.75   -13223.171     966.2973   -14189.469   -554.76054    244.92289    78.750839    25.146375    16.438655 
   39200    237.67316   -328.22943    181563.75   -13307.958    977.67278   -14285.631   -622.49058    245.92167    78.751142    25.151679    16.450665 
   39400     241.8145   -368.61365    181563.75   -13268.229    994.70825   -14262.937   -747.07286    247.86683    78.747503    25.149932     16.43513 
   39600    234.93553   -278.05452    181563.75   -13278.037    966.41149   -14244.448   -475.84184    249.72707    78.745025    25.147429    16.433877 
   39800    243.85276    -243.1695    181563.75   -13182.709    1003.0927   -14185.802   -290.15118    252.34896    78.744843    25.149282    16.395359 
   40000    241.26898   -331.19441    181563.75   -13291.995    992.46425   -14284.459   -620.62738    254.26584    78.743029    25.153533    16.418544 
   40200    236.02874   -345.62441    181563.75   -13343.906    970.90845   -14314.815   -640.43321    254.77558    78.746506    25.157254    16.424916 
   40400    251.81359   -328.11556    181563.75   -13263.913    1035.8397   -14299.752   -614.58964    259.72235    78.749462    25.161004    16.404373 
   40600    224.75514   -422.55472    181563.75   -13404.722    924.53427   -14329.256   -924.98115    262.10778    78.753567    25.165052    16.415282 
   40800    241.00588   -344.16329    181563.75   -13335.545      991.382   -14326.927   -711.26001    262.75301    78.752486    25.163183    16.419781 
   41000    240.85955   -348.73578    181563.75   -13296.294    990.78008   -14287.075   -669.29575    262.91799    78.750856    25.163759    16.385351 
   41200    240.63731   -517.11466    181563.75   -13295.244    989.86586    -14285.11   -1250.2873    259.85701    78.749243    25.167262    16.361896 
   41400    241.70089   -280.61367    181563.75   -13293.226    994.24091   -14287.467   -466.61379    259.80791    78.749412    25.167909    16.384219 
   41600    246.11272   -354.17121    181563.75   -13255.521    1012.3891    -14267.91   -676.68235    262.43403     78.74713    25.163554    16.361269 
   41800    231.22476   -433.53866    181563.75    -13305.14    951.14718   -14256.288   -1004.3691    263.75347    78.748425    25.160645    16.368001 
   42000    226.57428   -461.18881    181563.75   -13275.579    932.01736   -14207.597   -1065.9024    266.72256    78.746178    25.158131    16.395726 
   42200    241.12912   -326.82784    181563.75   -13269.921    991.88896    -14261.81   -615.41876    267.72524    78.744966    25.155962    16.406163 
   42400    241.08247   -239.79549    181563.75   -13261.276    991.69704   -14252.973   -235.96825     268.3409    78.749482    25.155843    16.384158 
   42600    241.14722   -391.37212    181563.75   -13244.933    991.96339   -14236.896   -859.69354    269.35287    78.747706    25.155896    16.377979 
   42800    245.92276   -452.80035    181563.75   -13209.586    1011.6077   -14221.194   -1053.7758    271.14359    78.746752    25.152726    16.356751 
   43000    239.81367   -561.19941    181563.75   -13215.221    986.47782   -14201.699    -1399.913    272.04606    78.745099    25.150653    16.347625 
   43200    241.92864   -469.42618    181563.75   -13259.432    995.17779    -14254.61   -1142.2883    270.51883    78.740737    25.152614    16.358374 
   43400    240.47481   -387.28778    181563.75   -13295.633    989.19742    -14284.83   -814.52097    269.85345    78.741477    25.153443    16.371953 
   43600    241.35226   -352.17567    181563.75   -13329.026    992.80683   -14321.833   -666.71398     273.8257    78.739323    25.150414    16.393624 
   43800    239.37357   -380.83923    181563.75   -13300.173    984.66747   -14284.841   -778.13603    276.11388      78.7394    25.151767    16.402243 
   44000    236.17837    -497.2951    181563.75   -13340.901    971.52394   -14312.425   -1192.1167    280.03506    78.737636    25.149722    16.387427 
   44200    238.71595   -501.41147    181563.75   -13300.569    981.96233   -14282.532   -1201.3684    281.85259    78.736813    25.149484     16.37249 
   44400    246.87367   -327.00805    181563.75   -13220.125    1015.5193   -14235.644   -598.12787    280.71388    78.737751    25.146599    16.348361 
   44600    236.84999   -244.10961    181563.75   -13265.131    974.28666   -14239.418   -274.22902    281.12363    78.739981    25.146116    16.360506 
   44800    241.36615   -508.41201    181563.75   -13280.772    992.86397   -14273.636   -1236.8103    283.71785     78.74048    25.147853    16.345941 
   45000    242.81381   -355.68188    181563.75   -13284.433    998.81895   -14283.252   -675.05886    286.44269     78.74237    25.146768     16.34039 
   45200    246.67018   -358.92595    181563.75   -13222.142    1014.6822   -14236.824   -692.52811    292.12676    78.744121    25.152069    16.335857 
   45400    242.08509   -326.24574    181563.75   -13214.929    995.82134    -14210.75   -617.26359    294.92456    78.743816    25.151223     16.32133 
   45600    245.46389   -474.61217    181563.75   -13235.668    1009.7201   -14245.388   -1121.2275    292.18846    78.745861    25.153492    16.320375 
   45800        234.6   -354.35184    181563.75   -13303.144    965.03128   -14268.175   -674.09428    292.97612     78.74639    25.156306    16.320772 
   46000    244.39457   -225.59588    181563.75   -13277.049    1005.3214    -14282.37   -202.35237    295.07315    78.748079    25.154908     16.31886 
   46200    237.63286   -400.18734    181563.75   -13253.736    977.50702   -14231.243   -801.94754    296.91155    78.748525    25.152457    16.329517 
   46400    244.27095   -361.13809    181563.75   -13219.847    1004.8129    -14224.66   -732.59108    294.74693    78.749594    25.153838    16.309782 
   46600    240.61441   -389.41464    181563.75   -13271.328    989.77169   -14261.099   -806.94537    297.02411    78.745335    25.154653    16.301508 
   46800    245.25149   -360.19923    181563.75   -13246.332    1008.8464   -14255.178   -718.43776    298.10878    78.742388    25.158812    16.297115 
   47000    246.33211   -373.83462    181563.75   -13201.722    1013.2915   -14215.014   -792.74367    297.67034    78.740852    25.158731    16.310375 
   47200    241.06132   -308.33803    181563.75   -13259.977    991.61003   -14251.587   -576.13616    297.44256    78.739288    25.154394    16.323502 
   47400    239.13084   -343.25916    181563.75   -13237.758    983.66899   -14221.427   -629.29065    296.89937    78.739006    25.152619    16.325305 
   47600    239.90331   -415.42584    181563.75   -13244.453    986.84656   -14231.299   -915.67547    296.67975    78.739591    25.152413      16.3414 
   47800      244.538   -474.75329    181563.75   -13254.293    1005.9114   -14260.204   -1118.7932    298.73435     78.73756     25.15063    16.344705 
   48000    241.14277   -363.09973    181563.75   -13270.004    991.94507   -14261.949    -723.2184    299.52019    78.738574    25.148094    16.346109 
   48200     246.8988   -328.10477    181563.75   -13262.052    1015.6226   -14277.675   -590.57376    300.27284    78.739706    25.146322    16.333096 
   48400    231.06729   -330.16309    181563.75   -13298.201    950.49944     -14248.7   -601.24391    300.11452    78.739615    25.146458    16.327913 
   48600    249.97182   -144.79867    181563.75   -13277.118    1028.2636   -14305.382    71.539156    298.59524    78.734269    25.149097     16.33558 
   48800    245.96766   -284.90728    181563.75   -13292.591    1011.7924   -14304.383   -460.44173    301.49068    78.734029    25.152382    16.350075 
   49000     243.5835   -418.76114    181563.75   -13279.464    1001.9851   -14281.449    -935.8571    302.43649    78.730406     25.15188    16.355132 
   49200     247.6718   -510.61529    181563.75   -13279.481    1018.8024   -14298.283   -1246.5856    303.60262    78.728811    25.151305    16.353832 
   49400    236.20491   -493.09001    181563.75   -13278.302    971.63313   -14249.935   -1194.1214     306.4648    78.730726    25.154505    16.359553 
   49600     242.5151   -379.51336    181563.75    -13305.24     997.5902   -14302.831   -741.01708    305.52738    78.730947    25.153858    16.336417 
   49800    235.88627   -407.37714    181563.75   -13334.988    970.32239    -14305.31   -907.93191     305.1146    78.731028    25.156355    16.304144 
   50000    229.54498   -575.33759    181563.75   -13358.013    944.23737   -14302.251   -1489.5892     305.1308    78.734988    25.153825    16.319552 
   50200    245.18535   -513.46803    181563.75   -13288.401    1008.5743   -14296.975   -1311.5718    306.57879    78.734238    25.151284    16.309893 
   50400    240.70769   -302.09662    181563.75   -13295.649    990.15537   -14285.805   -528.62426    306.31584    78.735161     25.14888    16.294353 
   50600    230.94251   -368.65091    181563.75    -13363.16    949.98613   -14313.146   -760.05824    309.66449    78.736937    25.150476    16.296409 
   50800    236.87398   -348.08627    181563.75   -13366.226    974.38537   -14340.611   -656.91363    311.57877      78.7379    25.152269    16.249638 
   51000    236.13987   -424.30232    181563.75     -13283.1    971.36557   -14254.466   -951.31244    312.12362    78.738124    25.153585    16.240197 
   51200    237.46478   -248.05259    181563.75   -13351.554     976.8156    -14328.37   -326.06664    313.52757    78.739386    25.154824    16.250387 
   51400    239.18716   -409.14868    181563.75   -13294.439    983.90066   -14278.339   -863.74484    314.88613    78.741304    25.158272    16.267978 
   51600    235.33237    -432.2254    181563.75   -13316.897    968.04391   -14284.941   -968.26579    316.18219    78.742108    25.152607    16.240028 
   51800    231.81895   -358.97389    181563.75   -13279.312    953.59139   -14232.904   -689.03952    319.79694    78.741474    25.147196    16.226754 
   52000    246.12689   -482.45078    181563.75   -13299.267    1012.4474   -14311.715   -1173.9968    322.16659    78.739459    25.148865    16.213292 
   52200    242.77515   -400.61718    181563.75    -13305.63    998.65993    -14304.29   -836.69982    323.73134    78.737022    25.146597    16.212087 
   52400    243.31351   -159.27307    181563.75   -13316.976    1000.8745    -14317.85   -29.246565     324.8404    78.738281     25.14394    16.220878 
   52600    238.03292    -487.3248    181563.75   -13308.739    979.15268   -14287.892   -1182.0869    324.99231    78.741688     25.14419    16.232452 
   52800    232.76781    -298.2322    181563.75   -13386.603    957.49453   -14344.098    -511.7416    326.54967    78.742355    25.141872     16.20734 
   53000    228.98816   -272.13108    181563.75   -13367.274    941.94687   -14309.221   -394.42851     328.2873    78.744764    25.145154    16.221701 
   53200    242.27829    -431.3435    181563.75   -13327.053    996.61608   -14323.669   -962.93847    330.13679    78.746601    25.144614    16.201056 
   53400    234.84766   -298.96466    181563.75    -13298.83    966.05004    -14264.88   -511.91276    333.19066    78.745974    25.144134    16.191581 
   53600    250.44535   -411.64528    181563.75   -13279.272    1030.2114   -14309.484   -919.88394    337.38474    78.744852    25.144041    16.185607 
   53800    242.50201   -324.59055    181563.75   -13312.631    997.53636   -14310.167   -632.34861    338.53355    78.747253    25.141071    16.212696 
   54000     238.5619   -296.21866    181563.75   -13246.755    981.32864   -14228.083   -495.22022    339.07702    78.748773     25.13237     16.21323 
   54200    226.86346   -478.38399    181563.75   -13397.323    933.20688    -14330.53   -1154.6021    336.57316    78.745532    25.130819    16.234215 
   54400    242.89643   -430.81856    181563.75   -13375.065     999.1588   -14374.224   -945.55056     334.0693    78.741697     25.13424    16.233036 
   54600    245.41087   -490.00297    181563.75   -13333.932     1009.502   -14343.434   -1175.7096    333.83519    78.739875    25.136062    16.203694 
   54800    244.67708   -459.86176    181563.75   -13280.001    1006.4835   -14286.485   -1117.9764    333.80783    78.736272    25.138986    16.214155 
   55000    232.56333   -273.74791    181563.75   -13308.231    956.65343   -14264.885   -441.05495    332.80815    78.730755    25.142986     16.20703 
   55200    245.72364   -274.91662    181563.75   -13305.267    1010.7886   -14316.056   -415.01912    332.11499    78.728374    25.144141    16.226581 
   55400    246.40291   -277.41962    181563.75   -13277.273    1013.5828   -14290.855   -392.35888    333.46103    78.723308    25.144088    16.238621 
   55600    242.80577   -468.47224    181563.75   -13293.554    998.78587    -14292.34   -1123.8964    339.48386      78.7216    25.141727    16.219397 
   55800    245.90093   -377.89956    181563.75   -13347.802    1011.5179    -14359.32   -772.97892    340.56254    78.715252    25.136943     16.22443 
   56000    232.67357   -520.72571    181563.75   -13377.117     957.1069   -14334.224   -1272.7576     341.6657     78.71366    25.136849    16.200349 
   56200    242.81886   -396.19026    181563.75   -13279.226    998.83972   -14278.065   -863.96477    343.45944    78.714354    25.132851    16.170254 
   56400    236.91053   -468.51554    181563.75   -13285.932    974.53571   -14260.468    -1173.117    342.55146    78.716104    25.131468    16.183065 
   56600    227.76225   -358.46767    181563.75   -13358.544     936.9041   -14295.448   -677.42483    342.28875    78.717471    25.132403    16.203553 
   56800    236.47519   -450.25877    181563.75   -13381.927    972.74494   -14354.672   -1043.2451    341.12193    78.716668    25.132053    16.220705 
   57000     230.2743   -348.92438    181563.75   -13373.008    947.23745   -14320.246   -698.50299    339.60824    78.718284    25.126515    16.223271 
   57200    231.37152   -352.71524    181563.75   -13362.556    951.75089   -14314.307   -723.02206    340.28803    78.723144    25.123633    16.189658 
   57400    237.72531   -397.08177    181563.75   -13323.551    977.88729   -14301.438   -885.28161     343.2442    78.721224     25.12312    16.185224 
   57600    239.94852   -348.59887    181563.75   -13249.942    987.03253   -14236.974   -637.37824    346.21047    78.722457    25.126865    16.170162 
   57800    246.65064   -360.18916    181563.75   -13284.405    1014.6018   -14299.006   -709.85649    348.05436    78.723767    25.124128    16.196586 
   58000     246.0447   -294.43661    181563.75   -13235.435    1012.1093   -14247.544   -483.96449     350.6711    78.727296    25.124895    16.205659 
   58200    231.78597     -474.154    181563.75   -13307.158    953.45573   -14260.614   -1116.8198    353.05316    78.728146    25.123529    16.180907 
   58400    246.61437   -357.27641    181563.75   -13312.944    1014.4526   -14327.397   -718.99468     355.8171    78.727021    25.121444    16.161761 
   58600    246.50908   -388.33431    181563.75   -13299.126    1014.0195   -14313.145   -805.13831    357.28718     78.72846    25.122734    16.151885 
   58800    239.10184   -408.36118    181563.75   -13294.683    983.54971   -14278.233   -877.32833    358.43436    78.726054    25.124779    16.153851 
   59000    243.52898   -306.02255    181563.75   -13323.583    1001.7608   -14325.344   -514.15425    357.35124    78.726404    25.125411    16.164194 
   59200    238.37782   -295.57474    181563.75   -13319.707    980.57143   -14300.278   -506.71263    355.46472    78.726832    25.127788    16.172979 
   59400     239.1312   -324.55463    181563.75   -13314.228    983.67046   -14297.899   -560.63553    356.52598    78.725334    25.131322     16.20469 
   59600     238.1401   -307.97712    181563.75   -13257.405    979.59357   -14236.999   -496.41196    357.92926    78.731238    25.135338    16.235451 
   59800    243.75676   -420.95021    181563.75   -13256.117    1002.6978   -14258.815   -905.33349    357.90531    78.725907    25.135821    16.222625 
   60000     238.3344   -398.12675    181563.75   -13255.864    980.39282   -14236.257   -847.85921    356.83247    78.727713    25.135162    16.223553 
   60200    238.23255   -433.84596    181563.75   -13221.828    979.97386   -14201.802   -982.44114    361.48776    78.727039    25.133659    16.230147 
   60400    244.53107   -320.55373    181563.75   -13304.837    1005.8829    -14310.72   -521.54743    364.80022    78.727959    25.133315    16.235086 
   60600    244.69943   -198.73967    181563.75   -13304.841    1006.5755   -14311.416   -188.03525    364.85998    78.729037    25.136569    16.224346 
   60800    232.46792   -369.60586    181563.75    -13322.54    956.26096   -14278.801   -769.19816    366.73412    78.728216     25.13539     16.22068 
   61000    231.89343   -457.03371    181563.75   -13346.212    953.89779    -14300.11   -1052.7385    372.88664    78.729181    25.134178    16.197534 
   61200    238.62513   -365.00389    181563.75   -13355.714    981.58875   -14337.302   -728.34572    378.21004    78.733587    25.137336    16.203299 
   61400    241.55217   -366.92143    181563.75   -13350.192    993.62916   -14343.822   -712.64582    384.37272    78.735132    25.140365    16.217787 
   61600    228.80379   -258.57214    181563.75   -13329.945    941.18849   -14271.134   -361.13912    386.45843    78.737386    25.140954    16.246771 
   61800    238.37606   -280.86186    181563.75   -13281.054    980.56418   -14261.619   -424.09023    387.67673     78.73915    25.142853    16.248786 
   62000    234.68156   -255.26914    181563.75   -13324.747    965.36679   -14290.114   -330.63154    386.75903    78.741698    25.143726    16.266949 
   62200     244.0346   -304.16035    181563.75   -13253.504    1003.8407   -14257.345   -523.36819    386.41448    78.742271    25.147169    16.261201 
   62400    249.44042   -475.50416    181563.75    -13244.56    1026.0776   -14270.638   -1130.1316    384.69088    78.742068    25.149908    16.278794 
   62600    232.97331   -394.31644    181563.75   -13348.141    958.33989   -14306.481   -831.98865    385.59997    78.743228    25.154551     16.29973 
   62800    238.58922   -378.11201    181563.75   -13359.207    981.44104   -14340.648   -784.94695    386.26686     78.74381     25.15738    16.302597 
   63000    235.04395   -462.96522    181563.75   -13309.721    966.85747   -14276.579   -1093.6745     389.6758    78.743599    25.157408    16.295912 
   63200    239.61719   -279.02404    181563.75   -13361.344    985.66959   -14347.014   -415.34997     392.9029    78.742957    25.155091    16.306286 
   63400    239.50221   -510.48103    181563.75   -13303.045    985.19661   -14288.241   -1246.6277    393.18312    78.744417    25.148054    16.340791 
   63600    248.96292   -175.11935    181563.75   -13253.442    1024.1134   -14277.555   -92.048484    392.45099    78.745465    25.147543    16.340457 
   63800    245.96582   -215.79408    181563.75   -13321.508    1011.7848   -14333.293   -183.40929    392.65565    78.747846    25.146914    16.350541 
   64000    237.54811   -329.44525    181563.75   -13335.075    977.15841   -14312.233   -642.43986    391.09171    78.749249    25.144174    16.325171 
   64200    241.77319   -407.45281    181563.75   -13322.058    994.53833   -14316.596   -866.50126    391.81222    78.753844    25.143757    16.301053 
   64400    242.61977   -265.16952    181563.75   -13302.171    998.02075   -14300.192   -362.50364    395.73763    78.754648    25.144115    16.292607 
   64600    244.04644   -456.60724    181563.75   -13309.976    1003.8894   -14313.866   -1035.4729    394.88464    78.753138    25.143349    16.287221 
   64800    235.15176   -352.21374    181563.75   -13306.493    967.30097   -14273.794   -655.72942    395.99869    78.752935    25.140594    16.286422 
   65000    236.10278   -279.81164    181563.75   -13361.346    971.21299   -14332.559   -390.03873    395.29176    78.756131     25.13766    16.302148 
   65200    235.40216   -510.10397    181563.75   -13349.562    968.33101   -14317.893   -1257.4717    395.64223    78.758531    25.137201    16.294787 
   65400     249.1472    -508.0014    181563.75   -13220.363    1024.8715   -14245.234   -1231.4204    394.51685    78.759814    25.138875    16.289368 
   65600    234.81305   -344.64532    181563.75   -13276.478    965.90767   -14242.385   -679.87382    390.50347    78.758697    25.139679     16.26826 
   65800    252.96215   -376.43351    181563.75   -13245.093    1040.5643   -14285.658   -769.12606    391.86523    78.759965    25.143409    16.260831 
   66000    241.36316   -383.91744    181563.75   -13288.563    992.85168   -14281.414   -852.98965    392.86677    78.757362    25.142588    16.242991 
   66200      244.887   -347.18891    181563.75   -13275.443     1007.347    -14282.79    -676.1246    393.70079    78.756199    25.144115    16.248094 
   66400    235.30751   -264.97499    181563.75   -13354.527    967.94166   -14322.469   -347.61486    392.65257    78.755718    25.143945    16.212194 
   66600    236.87896   -335.06719    181563.75   -13326.315    974.40582   -14300.721   -556.26173    394.13449    78.759511    25.140632    16.210637 
   66800    229.64272   -294.21542    181563.75   -13334.852    944.63943   -14279.491   -470.57639    393.97283     78.76259     25.14465     16.22879 
   67000    232.08571   -369.70245    181563.75   -13371.748    954.68872   -14326.437   -738.77838    392.47477     78.76195    25.145313    16.242182 
   67200    231.18682   -430.40267    181563.75   -13370.394     950.9911   -14321.385   -1017.2833    395.60882    78.761226    25.147317    16.260316 
   67400    243.82759   -253.21873    181563.75   -13311.805    1002.9892   -14314.795   -312.02003    395.19353    78.762924    25.150268    16.261556 
   67600    230.39808   -321.17391    181563.75    -13343.72    947.74661   -14291.467   -586.66999    394.82604    78.764705    25.150443     16.24007 
   67800    237.73228   -419.09174    181563.75   -13315.783    977.91599   -14293.699   -914.38052    395.72559    78.768186    25.149643    16.226626 
   68000    241.50293   -379.17234    181563.75   -13289.309    993.42661   -14282.736   -771.33394    398.16109    78.767621    25.154504    16.223222 
   68200    240.48258   -191.58112    181563.75    -13313.14    989.22941   -14302.369   -102.15845    400.46742    78.767639    25.150161    16.248648 
   68400    251.01515   -252.63922    181563.75    -13253.89    1032.5553   -14286.445   -358.45945    399.63642    78.767589    25.153586    16.252794 
   68600    232.27235   -272.97134    181563.75   -13317.181    955.45646   -14272.637   -446.21735    400.68136    78.767488    25.154225    16.267643 
   68800    233.54876   -263.91169    181563.75   -13264.672    960.70699   -14225.379   -354.02587    403.38038    78.765737    25.149861    16.272032 
   69000    242.36578   -367.46639    181563.75   -13245.382    996.97596   -14242.358   -751.11576    405.70882    78.765866    25.155149    16.284791 
   69200    240.27018   -340.69425    181563.75    -13290.47    988.35568   -14278.826   -683.55589    406.13964    78.761347    25.158897     16.30261 
   69400    236.30266   -447.81989    181563.75   -13358.098    972.03523   -14330.133   -1040.3568    409.80074    78.756019     25.16935    16.298512 
   69600    238.70324   -435.90391    181563.75   -13318.654    981.91003   -14300.564   -963.89882    409.63813    78.754008    25.173867    16.273585 
   69800    243.36629   -432.16608    181563.75   -13334.622    1001.0916   -14335.713   -987.40893    407.11093    78.748342    25.175177    16.266614 
   70000    233.03602   -391.64582    181563.75   -13379.178    958.59782   -14337.775   -832.97951     406.5831    78.749547    25.171417    16.282601 
   70200    236.88922   -133.04459    181563.75   -13320.393    974.44804   -14294.841     47.86238    408.19916    78.750033    25.167836    16.270704 
   70400    232.33672   -388.70569    181563.75   -13261.817    955.72127   -14217.538   -821.57518    411.31224    78.753018    25.169095     16.26559 
   70600    247.94552    -283.1455    181563.75   -13257.289    1019.9283   -14277.217   -480.32481    408.82025    78.752043     25.16613    16.269459 
   70800    236.55938   -545.39598    181563.75   -13285.539    973.09123    -14258.63   -1385.9872    410.40026    78.750479    25.165908    16.250554 
   71000    238.82767   -495.12791    181563.75   -13228.653    982.42189   -14211.075    -1207.896    412.29624     78.75207    25.163337    16.242844 
   71200    254.73813   -313.43703    181563.75    -13131.95    1047.8698    -14179.82   -538.07308    412.06224    78.754487     25.15836    16.226968 
   71400    233.33759   -191.81983    181563.75   -13255.256    959.83834   -14215.094   -82.082284    412.87608    78.753879    25.158839    16.254714 
   71600    245.91103   -318.64634    181563.75   -13274.802    1011.5594   -14286.361    -564.3409    414.63548    78.753331    25.156634    16.281756 
   71800     237.1283   -324.73254    181563.75   -13283.269    975.43149   -14258.701   -565.89722    416.75669    78.756056     25.16142    16.275072 
   72000     241.6305   -436.05627    181563.75   -13239.386    993.95139   -14233.337   -999.56385    421.58155     78.75579    25.163476    16.279703 
   72200    241.32519   -451.40538    181563.75   -13273.028    992.69548   -14265.723   -1039.6251    421.01537    78.753534    25.165068    16.288493 
   72400    241.67415   -355.52149    181563.75   -13273.324    994.13092   -14267.455   -673.28091    421.88708    78.753806    25.165958    16.313816 
   72600    235.06313   -334.90093    181563.75   -13253.332    966.93637   -14220.268   -638.89287    426.01284     78.75255    25.169484    16.318369 
   72800    239.15462   -259.09981    181563.75    -13321.84    983.76679   -14305.607    -375.0242    427.36425    78.755397    25.167693    16.320754 
   73000    249.91574   -380.53491    181563.75   -13281.745    1028.0328   -14309.778   -802.78839    428.31634    78.752835    25.164206    16.350771 
   73200    242.25839   -357.36204    181563.75   -13228.419    996.53423   -14224.953   -685.59131    427.69646     78.75536    25.166108    16.354598 
   73400    238.34034   -360.79579    181563.75   -13262.266    980.41726   -14242.683   -734.82692    424.21969    78.753382    25.164018    16.367591 
   73600    239.86948   -333.75895    181563.75   -13253.195    986.70737   -14239.903   -625.45575    426.78498    78.754074    25.162674    16.360685 
   73800    245.27964   -303.15421    181563.75   -13204.971    1008.9622   -14213.934   -524.54859    429.52034    78.754736    25.165436    16.341408 
   74000    243.91236   -460.85871    181563.75   -13228.312    1003.3379    -14231.65   -1063.1483    426.81783    78.755781    25.166681    16.330202 
   74200    251.06905   -355.32226    181563.75    -13230.95     1032.777   -14263.727   -727.51045    429.96918    78.755111    25.168956    16.337525 
   74400    238.45517   -295.16578    181563.75   -13280.684    980.88961   -14261.574   -506.37289    428.41478    78.755658    25.164823    16.346391 
   74600    232.06288   -307.39975    181563.75   -13302.137    954.59482   -14256.731   -539.06776    429.87179    78.752287    25.167442    16.370065 
   74800    242.81747   -257.65647    181563.75   -13257.461    998.83399   -14256.295   -358.17634    428.04594    78.755193    25.169963    16.348877 
   75000    239.89229   -457.92037    181563.75   -13256.784    986.80124   -14243.586   -1051.0583    428.39699    78.755095    25.169401    16.371491 
   75200    241.00462   -343.44082    181563.75    -13256.98    991.37681   -14248.356   -656.06561     425.4428    78.756542     25.16838    16.365679 
   75400    248.30929   -364.99763    181563.75   -13187.132    1021.4247   -14208.556    -714.1775    425.27357    78.754986     25.16556    16.363131 
   75600    238.47075   -298.47396    181563.75   -13264.188     980.9537   -14245.142   -487.14332    422.64151     78.75303    25.164741    16.366939 
   75800    248.74512   -313.29209    181563.75   -13259.799    1023.2175   -14283.016   -555.07758    421.70402    78.749214    25.165649    16.377073 
   76000     238.4025    -328.3316    181563.75    -13303.61    980.67294   -14284.283   -588.49816     421.8502     78.74635    25.165054    16.373762 
   76200    236.06506    -477.0821    181563.75    -13351.66    971.05785   -14322.718    -1086.265    421.87418    78.744148    25.166436    16.361537 
   76400    230.72823   -157.99487    181563.75   -13350.924    949.10469   -14300.029   -8.5247628    423.56435    78.745237     25.17041    16.362125 
   76600    239.99226   -337.99743    181563.75   -13304.637    987.21244   -14291.849   -605.83299    425.74792    78.746177    25.168129    16.343688 
   76800    237.66326   -462.33098    181563.75   -13247.999    977.63205   -14225.632   -1082.8363    426.75924    78.748977    25.172879    16.336823 
   77000    244.26277   -258.36064    181563.75   -13278.774    1004.7792   -14283.553   -355.09578    426.65696    78.748489    25.178902    16.326531 
   77200    243.10584   -354.51582    181563.75   -13260.883    1000.0202   -14260.903   -705.12686    427.27852    78.747178    25.180517    16.334371 
   77400     246.6698   -235.79215    181563.75   -13254.246    1014.6806   -14268.926   -281.27522    428.47384    78.745541    25.181928    16.308542 
   77600     233.0448   -384.45837    181563.75   -13249.796    958.63394    -14208.43   -803.14862    430.29298    78.740785    25.175056    16.303164 
   77800     232.5596   -304.73285    181563.75   -13236.591    956.63808   -14193.229    -525.1762     428.6022    78.742376    25.172183    16.296116 
   78000    228.36259   -393.19496    181563.75   -13303.682    939.37359   -14243.055    -811.6302    431.83744    78.739504    25.167592    16.269274 
   78200    236.04352   -216.33433    181563.75     -13242.7    970.96925   -14213.669   -201.13082    436.97069    78.737687    25.168848    16.272578 
   78400    235.38388   -242.93392    181563.75   -13259.206    968.25581   -14227.462   -286.45761    439.44951    78.736721    25.167484    16.252287 
   78600    230.75108   -404.27257    181563.75   -13298.756    949.19868   -14247.955   -893.45376    440.97861     78.73778    25.165888    16.259068 
   78800    237.17344   -240.76917    181563.75   -13269.665    975.61718   -14245.282   -323.18881    442.18733    78.736932    25.163464    16.272783 
   79000    233.46331   -317.62044    181563.75   -13261.031    960.35551   -14221.387   -534.83282    445.70568    78.739962     25.16641    16.257998 
   79200    248.50507   -286.99066    181563.75   -13228.063      1022.23   -14250.293   -466.69706     448.5832    78.740453    25.168921    16.266836 
   79400    239.87287   -292.13678    181563.75   -13296.794    986.72132   -14283.516   -484.39849    448.39526    78.739447    25.167695    16.289319 
   79600     244.7933   -388.75609    181563.75   -13285.899    1006.9616    -14292.86   -760.30432    451.44743    78.738535    25.164543    16.269313 
   79800    242.12307   -337.19938    181563.75   -13287.001    995.97756   -14282.978   -603.67978    455.04275    78.738464    25.162542    16.277781 
   80000    236.65818   -324.39163    181563.75   -13310.884    973.49766   -14284.381    -582.5971    456.32802    78.738433    25.161312    16.272408 
   80200    239.50072   -268.47891    181563.75   -13264.377    985.19048   -14249.568   -387.76432    457.77972    78.739815     25.15707    16.264399 
   80400    240.81094   -269.47391    181563.75   -13295.574    990.58009   -14286.154   -398.70189    454.66665    78.740144    25.150067    16.289354 
   80600    239.00988   -319.59693    181563.75   -13224.674    983.17142   -14207.845   -596.45019    452.82227    78.739279    25.152298    16.318224 
   80800    244.49114   -392.38433    181563.75   -13327.077    1005.7187   -14332.795   -844.28196    453.93346     78.74352    25.149798    16.308827 
   81000    245.85949   -369.05223    181563.75    -13242.93    1011.3474   -14254.278   -749.55747    458.26284    78.744097    25.145389     16.32666 
   81200    243.44707   -476.27615    181563.75   -13280.312    1001.4239   -14281.736   -1121.6531    460.23441     78.74828    25.141013    16.318852 
   81400    240.31317   -315.76671    181563.75   -13348.202    988.53254   -14336.735   -556.39582    459.12676    78.749564    25.137044    16.336489 
   81600    237.84182   -541.83856    181563.75    -13322.22    978.36656   -14300.587   -1365.2846    461.29537    78.751529    25.133711    16.309388 
   81800    236.44459    -172.5441    181563.75   -13308.365    972.61906   -14280.984   -65.873367     463.2734    78.754101    25.132207      16.3038 
   82000    244.98187   -417.77635    181563.75   -13261.159    1007.7373   -14268.896   -932.46512    463.32268    78.757183    25.136701    16.341579 
   82200    238.32844   -461.90385    181563.75   -13292.436    980.36828   -14272.804   -1126.3101    460.16373    78.755857    25.133477    16.347386 
   82400    240.21212   -244.21737    181563.75   -13339.459    988.11686   -14327.576   -317.30387    460.56584    78.755447    25.132113    16.329762 
   82600    237.48301    -296.5099    181563.75   -13344.238    976.89061   -14321.129   -510.98025    461.62174    78.755886    25.127461    16.315669 
   82800    244.63669   -451.17854    181563.75    -13316.13    1006.3174   -14322.448    -1043.805    461.68312    78.759091    25.125717    16.339243 
   83000     235.3296   -480.97044    181563.75   -13310.409    968.03251   -14278.442     -1137.81    463.86322    78.756132     25.12303    16.336104 
   83200    233.97376   -298.56821    181563.75   -13306.153    962.45524   -14268.608   -509.43521    462.72291    78.757733    25.118411    16.337959 
   83400    242.69015    -223.3722    181563.75   -13315.862    998.31028   -14314.173   -152.24984    461.16366    78.759364    25.117523    16.321724 
   83600    245.29128   -311.40351    181563.75   -13299.627    1009.0101   -14308.637   -494.85909    461.39246    78.754202    25.119877    16.353084 
   83800    236.35377   -340.26739    181563.75   -13397.209    972.24546   -14369.455   -636.53696     460.8434    78.754383    25.120481    16.371414 
   84000    237.85354   -318.68485    181563.75   -13389.526    978.41479   -14367.941   -554.13886    462.25486    78.754454    25.119649    16.404179 
   84200     242.4545   -337.58809    181563.75   -13373.972    997.34093   -14371.313   -651.97188    466.71074    78.751506    25.120956    16.394073 
   84400    237.31234   -270.71146    181563.75    -13355.12    976.18855   -14331.309   -364.59872    468.59253    78.748237    25.118577    16.404406 
   84600    243.64711   -392.50445    181563.75   -13313.768    1002.2467   -14316.015   -849.01862    472.43697    78.748369    25.115174    16.396037 
   84800    235.39137   -524.00704    181563.75   -13376.798    968.28661   -14345.084    -1295.438    473.15962    78.748393       25.112    16.392348 
   85000    232.69707   -399.11763    181563.75   -13396.852    957.20354   -14354.055   -912.06082    468.24026      78.7459    25.107678    16.367538 
   85200    244.83456    -477.0134    181563.75   -13258.429    1007.1313    -14265.56   -1118.4858    470.37327    78.744816    25.100918    16.358757 
   85400    237.58639   -272.40274    181563.75   -13326.837    977.31587   -14304.153   -406.60083     468.9573    78.747665    25.093546    16.373706 
   85600    233.68353   -468.03745    181563.75   -13332.916    961.26136   -14294.177   -1111.8227    472.58369    78.749037    25.090377    16.379145 
   85800    239.22447   -372.23216    181563.75   -13290.596    984.05414    -14274.65     -725.142    466.72027       78.751    25.083597     16.38634 
   86000    241.33492   -651.52662    181563.75   -13276.243     992.7355   -14268.978   -1692.4502    466.61276    78.751644    25.086312    16.373842 
   86200    243.14058   -445.57175    181563.75   -13345.302    1000.1631   -14345.466   -1020.3448    470.80303    78.750036    25.087499    16.365684 
   86400    240.24428   -450.96839    181563.75   -13340.278    988.24916   -14328.527   -1060.8793     473.0958     78.74947    25.090268    16.379363 
   86600    239.06497    -215.5551    181563.75   -13336.293    983.39803   -14319.691   -213.87692    473.02186    78.751306    25.090532    16.376339 
   86800    234.69356   -536.21667    181563.75   -13333.313    965.41617   -14298.729   -1350.0421    476.76728    78.751363    25.094349    16.381627 
   87000    237.69079   -346.83332    181563.75   -13348.535    977.74529   -14326.281   -640.14038    477.63175    78.752815    25.095798    16.369329 
   87200    244.39394   -273.24297    181563.75   -13341.242    1005.3188   -14346.561   -428.57325    476.90145    78.753888    25.094351    16.357015 
   87400    236.92111   -274.72858    181563.75   -13330.609    974.57924   -14305.188   -425.12998    478.47685    78.750551    25.090075    16.351036 
   87600    242.96461   -393.56332    181563.75   -13324.728    999.43928   -14324.168    -828.1106    479.18462    78.745752    25.085609    16.344472 
   87800    239.67623   -412.32434    181563.75   -13360.018    985.91245   -14345.931   -922.89818    482.72373     78.74525    25.083436    16.321629 
   88000    248.41667    -317.6587    181563.75   -13275.877    1021.8664   -14297.743   -523.45562    487.19551    78.744405    25.079809    16.337215 
   88200    242.91006   -376.48542    181563.75   -13259.301    999.21487   -14258.516   -738.54765    488.95661     78.74156    25.078432    16.314858 
   88400    236.14807   -416.83502    181563.75   -13310.978     971.3993   -14282.377   -850.22971    492.54075    78.741401    25.075439    16.315794 
   88600    243.00359   -193.31328    181563.75   -13341.043    999.59961   -14340.643   -90.470521    494.21253    78.746409    25.076336    16.291125 
   88800    242.04008   -422.45918    181563.75   -13365.539    995.63619   -14361.175   -909.82363    497.03215    78.744506    25.079354    16.285671 
   89000    240.02571   -222.42483    181563.75   -13400.097    987.35005   -14387.447   -252.06561    491.83215    78.742654    25.077948    16.256344 
   89200    239.54828   -299.76312    181563.75   -13385.676    985.38614   -14371.062   -460.34653    493.21924    78.742481    25.077285    16.262841 
   89400    245.20061   -272.92091    181563.75    -13310.98    1008.6371   -14319.617   -388.84379    491.35837    78.746542     25.07777    16.256972 
   89600    231.55054   -232.06818    181563.75   -13363.917     952.4873   -14316.404   -271.28996     491.6936    78.743615    25.074447    16.280029 
   89800    238.37196   -244.04867    181563.75   -13298.471    980.54731   -14279.019   -265.16974    496.10125     78.73912    25.072472    16.272343 
   90000    246.66846   -343.30564    181563.75    -13250.02    1014.6751   -14264.695   -650.76981     497.8696    78.735147    25.071464     16.29197 
   90200    231.50487   -538.57689    181563.75   -13312.643    952.29942   -14264.942   -1363.9434    497.84101    78.731323    25.071661    16.302496 
   90400    231.22656   -541.84412    181563.75   -13353.249    951.15457   -14304.404   -1355.2467    500.43169    78.730086    25.075793    16.321776 
   90600    241.22913   -204.42325    181563.75   -13261.725    992.30034   -14254.026   -157.74675    497.82231    78.729993    25.075912    16.334139 
   90800    244.73468   -499.49617    181563.75   -13232.668    1006.7205   -14239.389   -1254.9704    499.23399    78.729003    25.076631     16.31723 
   91000    233.53334   -230.28196    181563.75   -13282.328    960.64356   -14242.971   -243.17927     498.7761     78.72675    25.074824    16.319621 
   91200    238.66312   -375.68913    181563.75   -13269.289    981.74502   -14251.034   -777.85416    500.11918    78.727142    25.072873     16.34163 
   91400     224.9734   -269.85261    181563.75    -13309.33    925.43209   -14234.762   -371.60042    498.42397    78.726693    25.070139    16.350324 
   91600    239.52932   -354.33539    181563.75   -13238.853    985.30814   -14224.161   -670.66868    497.00701    78.728135    25.068415    16.342669 
   91800    250.47793   -453.14103    181563.75   -13256.661    1030.3454   -14287.006   -994.93535    496.38354    78.730391    25.073083    16.332964 
   92000    244.17497   -277.84112    181563.75   -13233.329    1004.4181   -14237.747   -394.39143    499.50097    78.735361    25.077511    16.308635 
   92200    235.87561   -389.76617    181563.75   -13254.081    970.27854    -14224.36    -805.3923    500.47722    78.735926    25.079283    16.290261 
   92400    244.65659   -334.93043    181563.75   -13188.335    1006.3993   -14194.734   -607.11585    503.86934     78.74129    25.078913    16.284812 
   92600    241.05461   -582.72855    181563.75   -13243.734    991.58243   -14235.317   -1508.7934    504.00877    78.740444    25.080456    16.300478 
   92800    235.49746   -405.41469    181563.75   -13266.876    968.72299   -14235.599   -878.24328    506.84116    78.740141    25.082061    16.315489 
   93000    230.29572   -282.64787    181563.75   -13313.701    947.32554   -14261.026   -481.37993    508.66942    78.741699     25.08172    16.309902 
   93200    238.75561   -517.45896    181563.75   -13304.476    982.12546   -14286.601   -1235.2517     510.7989    78.743069    25.082441    16.299918 
   93400    239.41835   -341.44223    181563.75   -13332.933    984.85168   -14317.784   -633.48074    511.31523    78.746318    25.078802    16.305609 
   93600    253.55116   -320.23509    181563.75    -13304.99    1042.9872   -14347.977   -595.23497    508.00981    78.747778    25.072951    16.294882 
   93800    249.46335   -524.68421    181563.75   -13247.574     1026.172   -14273.746   -1311.8284    511.09647    78.751558    25.071602    16.315175 
   94000     249.0355   -311.04255    181563.75   -13341.392     1024.412   -14365.804   -545.96125    511.93123    78.749756      25.0683    16.316246 
   94200    248.23119   -373.47907    181563.75   -13265.867    1021.1034   -14286.971   -767.31314    513.25433    78.747593    25.064767    16.343563 
   94400     253.1976   -449.50412    181563.75   -13260.576    1041.5329   -14302.109   -1050.8881    511.96025      78.7449    25.066201     16.35641 
   94600    245.60724   -223.01801    181563.75   -13291.361    1010.3098   -14301.671   -204.25514     510.5553    78.745477    25.064334    16.363573 
   94800    246.62269   -396.66582    181563.75   -13264.247    1014.4868   -14278.734   -866.31429    513.50171    78.745416    25.059592    16.359486 
   95000    241.24473   -293.97171    181563.75   -13342.994    992.36452   -14335.358   -501.04892    512.88763    78.747891    25.061328    16.366111 
   95200    239.32304   -421.32097    181563.75   -13330.975    984.45959   -14315.434   -931.34809     517.2182      78.7516    25.063064    16.360799 
   95400    239.22592   -289.84437    181563.75   -13333.097    984.06011   -14317.157   -426.60961    516.35719    78.749232    25.064749    16.347716 
   95600    240.84137    -436.7057    181563.75   -13342.267    990.70529   -14332.972   -938.76795    520.01897    78.748456    25.064601    16.326862 
   95800    239.02719   -440.40341    181563.75   -13323.434    983.24262   -14306.676   -997.28793    518.88989      78.7516    25.064247    16.327826 
   96000    243.03482    -360.2812    181563.75   -13331.559    999.72807   -14331.287    -686.1053    519.45763    78.752706    25.064423    16.338991 
   96200    240.30105   -363.04872    181563.75    -13309.59    988.48267   -14298.073   -734.83045    517.41328    78.753901     25.06833    16.359905 
   96400    235.11339    -351.6999    181563.75   -13286.024    967.14312   -14253.167   -666.52951    518.91452    78.750434    25.072106    16.368107 
   96600    238.22665   -487.45356    181563.75   -13330.915    979.94957   -14310.865   -1130.9286    521.87939    78.749081    25.071257    16.403405 
   96800    238.13294   -495.82266    181563.75   -13249.605    979.56411   -14229.169   -1241.3191    523.18327    78.747471     25.07124     16.38453 
   97000    239.76615   -414.44426    181563.75   -13271.667    986.28235   -14257.949   -923.43336    522.88296    78.746586    25.069202    16.392669 
   97200    252.26898   -382.48165    181563.75   -13240.665     1037.713   -14278.378    -752.7032    527.11802    78.748017    25.069593    16.374804 
   97400    231.30482   -390.07044    181563.75   -13335.199    951.47649   -14286.675   -802.10104    525.91478    78.753202    25.067234    16.383672 
   97600    244.28322   -449.27835    181563.75    -13304.52    1004.8634   -14309.383   -1027.8152      528.081    78.754736    25.060549    16.392467 
   97800    245.64814   -422.76968    181563.75   -13326.096     1010.478   -14336.574   -952.12682    529.40711    78.758101    25.057552    16.367355 
   98000    233.62974   -152.32335    181563.75   -13348.528    961.04011   -14309.568    47.565125    529.51975    78.758628    25.055774     16.35712 
   98200    236.99525   -392.98862    181563.75   -13352.264    974.88418   -14327.149   -869.23425    530.06708    78.758599    25.055898    16.354782 
   98400    240.01215   -315.25075    181563.75    -13321.92    987.29425   -14309.214   -564.63157    528.14694    78.761418    25.058489     16.37941 
   98600    236.94392   -429.29948    181563.75   -13290.957    974.67304    -14265.63   -1004.6796    529.94237     78.76342    25.054181    16.390468 
   98800    242.19003   -409.78399    181563.75   -13177.679    996.25303   -14173.932   -913.27937    530.86065     78.76602    25.049291    16.398857 
   99000     245.2552   -258.49221    181563.75   -13213.197    1008.8617   -14222.059   -354.98349    530.25239    78.768763    25.052323    16.391569 
   99200    246.65116   -243.33819    181563.75   -13218.302    1014.6039   -14232.905   -268.02096    536.08452    78.769228    25.052576    16.391336 
   99400     244.5507   -381.23512    181563.75   -13208.385    1005.9637   -14214.349   -807.32355    535.94848    78.771155    25.050711    16.370971 
   99600    244.11823   -278.79987    181563.75   -13225.921    1004.1847   -14230.106   -410.51121    534.12416    78.770134    25.051348    16.369505 
   99800     241.9234   -419.40259    181563.75   -13230.044    995.15622   -14225.201   -964.43469    533.67491    78.773149    25.054449    16.346352 
  100000    240.07247   -281.59255    181563.75   -13243.858     987.5424     -14231.4   -464.80963    532.70439     78.77553    25.054614    16.365747 
  100200    252.74885   -459.46361    181563.75    -13184.14    1039.6869   -14223.827   -1059.8194    534.51429      78.7743    25.057153     16.34634 
  100400    249.90526   -240.30014    181563.75   -13248.098    1027.9898   -14276.088   -278.13764    538.19665    78.771922    25.057111    16.318926 
  100600    235.69666    -408.2207    181563.75   -13289.654    969.54241   -14259.196   -894.00247    536.95581     78.77136    25.059638    16.335142 
  100800    238.14956   -382.02495    181563.75   -13224.132    979.63249   -14203.764   -756.06794    536.51975    78.770948    25.060977    16.335402 
[...]
 5175800     223.5505   -475.68266    181563.75   -14723.257    919.57896   -15642.835   -1047.1664    4280.7368    77.842194    23.925384    16.263432 
 5176000    227.64505   -312.71993    181563.75   -14683.087    936.42199   -15619.509   -463.36539    4278.0581     77.84213    23.924464    16.267269 
 5176200     227.6047   -253.82574    181563.75   -14699.451    936.25601   -15635.707   -272.58342    4275.3126    77.842454    23.925867    16.268096 
 5176400    222.30082    -387.5986    181563.75   -14740.528    914.43839   -15654.967   -724.68511    4279.7849    77.842501     23.92657    16.266895 
 5176600     224.0158   -463.82512    181563.75   -14691.533    921.49299   -15613.026   -1019.6275    4278.1183    77.843212    23.926315    16.263918 
 5176800    226.57511   -345.06638    181563.75    -14713.96    932.02078    -15645.98   -571.28109    4274.8055    77.841891    23.929306    16.267555 
 5177000    223.80163   -288.56341    181563.75   -14719.019      920.612   -15639.631   -358.10562    4277.5774    77.842418    23.928304     16.26261 
 5177200    227.88755    -535.8924    181563.75   -14668.859     937.4195   -15606.279   -1275.3371    4281.5957    77.843296    23.927287    16.263741 
 5177400    226.08005   -418.30657    181563.75   -14700.434    929.98434   -15630.418   -822.98817     4278.108    77.841803    23.928289    16.259673 
 5177600     235.8862   -310.21952    181563.75   -14709.479    970.32211   -15679.801   -422.61691    4277.9221    77.841219     23.92759    16.258829 
 5177800    226.65085   -314.44734    181563.75   -14723.386    932.33231   -15655.718   -488.63334    4277.6526    77.843009    23.927377    16.262023 
 5178000    231.62585   -411.83776    181563.75   -14700.039    952.79708   -15652.836   -830.91287    4278.1172    77.840506     23.92758    16.261665 
 5178200    220.44549    -410.1395    181563.75   -14718.268    906.80645   -15625.075   -856.46877    4279.5506    77.841263    23.926352     16.26311 
 5178400    229.48938   -341.15074    181563.75   -14695.476    944.00866   -15639.484   -585.60207    4276.2484    77.839938    23.926496    16.261408 
 5178600     231.9756    -369.3197    181563.75   -14681.656    954.23579   -15635.892   -653.82099    4278.8534    77.838984    23.926274    16.258408 
 5178800    228.20245   -442.38231    181563.75   -14651.187    938.71485   -15589.902   -917.07573     4281.149    77.839455    23.924308    16.260904 
 5179000    233.97663   -339.93623    181563.75     -14653.6    962.46703   -15616.067   -598.34848    4277.5679    77.838668    23.923708    16.255698 
 5179200    224.99782   -346.75666    181563.75    -14688.94    925.53255   -15614.472   -622.00784     4277.749    77.837782    23.924212     16.25976 
 5179400    225.26332   -366.14114    181563.75   -14697.395    926.62468    -15624.02   -659.77595      4280.12    77.836565    23.922878    16.256627 
 5179600     219.9888   -368.48596    181563.75    -14723.15    904.92785   -15628.078   -667.30175    4277.9827    77.834658     23.92314    16.258547 
 5179800     233.0914   -309.24533    181563.75    -14681.98    958.82562   -15640.806   -487.69151    4279.4676    77.833853    23.922626    16.251864 
 5180000    222.28792   -383.32269    181563.75   -14710.592    914.38533   -15624.977   -727.62215    4278.4808    77.833732    23.921664    16.260102 
 5180200    229.32317   -420.38169    181563.75   -14694.891    943.32494   -15638.215     -850.767     4279.888    77.831435     23.92061    16.259494 
 5180400    231.40345   -458.83676    181563.75   -14680.511    951.88221   -15632.394   -999.29739    4280.4859     77.83184    23.919645     16.25589 
 5180600     217.8663   -272.14443    181563.75   -14743.203    896.19693     -15639.4   -327.41249    4278.6972     77.83093    23.919848    16.257704 
 5180800      224.238   -356.85827    181563.75   -14710.168    922.40703   -15632.575   -611.71068    4281.3725    77.830583    23.919907    16.260338 
 5181000     222.2905   -398.45024    181563.75   -14720.776    914.39594   -15635.172     -762.472    4279.0674    77.831654    23.919566    16.265326 
 5181200    230.40155   -288.63518    181563.75   -14697.016    947.76091   -15644.777   -377.62712    4277.1068    77.830182    23.920168    16.265628 
 5181400    222.88009     -302.188    181563.75   -14679.964    916.82124   -15596.786   -448.22381    4278.7564    77.831456     23.92192    16.266508 
 5181600    229.29657   -413.76981    181563.75   -14678.185    943.21555   -15621.401   -847.27168    4280.5242     77.83292    23.922345    16.264042 
 5181800    226.64883   -408.00433    181563.75   -14659.093    932.32403   -15591.417   -781.71374    4279.9557    77.832468    23.924498    16.267877 
 5182000    217.61025   -347.06571    181563.75   -14733.991    895.14366   -15629.135   -606.31225    4277.9208    77.834551    23.925533     16.26529 
 5182200     216.3515   -420.10107    181563.75   -14800.546    889.96575   -15690.512   -841.26818    4280.3208      77.8348    23.924368    16.259641 
 5182400    223.46869   -421.27282    181563.75     -14710.4    919.24245   -15629.643   -839.00505    4279.5779    77.833484    23.927435    16.264149 
 5182600    221.51803   -370.65501    181563.75   -14686.321    911.21838    -15597.54   -679.66989    4277.9647     77.83278    23.927375    16.266671 
 5182800    219.76434   -434.39527    181563.75   -14715.156    904.00454   -15619.161    -916.3794    4278.6156    77.833313    23.927501    16.261784 
 5183000     230.3503   -388.99403    181563.75   -14701.286    947.55008   -15648.836   -708.72765    4279.8018     77.83484    23.928907     16.26614 
 5183200    228.44779   -356.65892    181563.75   -14667.192    939.72405   -15606.917   -639.99908    4279.5985    77.834674    23.926806     16.26555 
 5183400    226.76658     -280.676    181563.75   -14723.121    932.80837    -15655.93   -326.63009    4276.5224    77.833987    23.925603    16.265107 
 5183600    222.68275   -384.25586    181563.75    -14705.53    916.00947    -15621.54     -736.377    4279.9107    77.833474    23.925163    16.270747 
 5183800    218.36308   -352.08035    181563.75   -14734.217    898.24042   -15632.457   -593.98575    4278.9769    77.835021    23.923206      16.2714 
 5184000    230.06287   -305.64957    181563.75   -14721.954    946.36773   -15668.322   -444.57746     4274.936    77.835699    23.923032    16.273417 
 5184200    218.62158   -387.85318    181563.75   -14708.561    899.30378   -15607.865   -759.38804    4279.0582    77.836927    23.923485    16.276073 
 5184400    221.90065   -455.30538    181563.75   -14720.641    912.79231   -15633.433   -968.56909    4279.2704    77.835901    23.921474    16.274093 
 5184600    224.27899   -383.46667    181563.75    -14690.92    922.57562   -15613.496   -727.50693    4278.4067    77.834693      23.9219    16.278543 
 5184800    240.02736   -320.42962    181563.75   -14651.077    987.35682   -15638.433   -480.54346    4278.4232    77.835372     23.92207     16.26567 
 5185000    236.87198   -356.32491    181563.75   -14644.308    974.37712   -15618.685   -631.92493    4277.3968    77.836081    23.922449    16.276873 
 5185200    226.05226   -428.46536    181563.75   -14685.517       929.87   -15615.387   -883.16896    4279.1707    77.837398    23.922648    16.279991 
 5185400    226.18108   -343.98146    181563.75   -14702.628    930.39993   -15633.028   -553.51337    4277.3102    77.838646    23.920406    16.278654 
 5185600    217.77919    -286.7553    181563.75   -14756.326    895.83859   -15652.165   -359.99873    4276.7161    77.837716    23.918788    16.271211 
 5185800    225.03593   -409.14699    181563.75   -14699.756     925.6893   -15625.445    -825.7033    4278.9428    77.836541    23.919094    16.270445 
 5186000    228.65082   -351.57627    181563.75   -14664.582    940.55924   -15605.141    -596.6178    4278.1622    77.836516    23.918781    16.271679 
 5186200     225.4479   -304.13627    181563.75   -14647.745    927.38395   -15575.129   -463.03082    4276.9989    77.835056    23.918896    16.275928 
 5186400    229.29913   -286.09587    181563.75   -14717.883    943.22605   -15661.109   -365.58859    4277.5298     77.83661    23.917463    16.270441 
 5186600    229.80734   -389.62024    181563.75   -14707.599    945.31659   -15652.915   -763.79396     4278.992    77.837063    23.917018    16.269511 
 5186800    226.86453   -373.74223    181563.75   -14663.696    933.21129   -15596.907   -695.13861    4277.5268    77.836415     23.91767    16.266383 
 5187000    226.19409   -300.23106    181563.75    -14704.94    930.45344   -15635.394   -425.18032    4275.7963    77.836558    23.917199    16.264603 
 5187200    225.89513   -429.90976    181563.75   -14682.919    929.22366   -15612.143    -897.3118    4277.3796    77.836337    23.917162    16.261862 
 5187400    220.31288   -406.70392    181563.75   -14730.722    906.26098   -15636.982   -782.04232    4277.8731    77.837326    23.917189    16.267161 
 5187600    216.04803   -368.69881    181563.75   -14710.451    888.71742   -15599.168   -656.33376    4277.1103    77.836385    23.919189    16.265878 
 5187800    223.52667   -325.62315    181563.75   -14682.102    919.48096   -15601.583   -518.15478    4277.8036    77.836908    23.919932    16.264325 
 5188000    223.20714   -405.20114    181563.75   -14713.509    918.16658   -15631.676   -833.06349    4277.9307    77.838567    23.921494    16.264402 
 5188200    232.08076   -421.71598    181563.75   -14678.997    954.66835   -15633.665   -885.38014    4277.4206    77.836786    23.921751    16.265212 
 5188400     225.0318   -291.84347    181563.75   -14700.058    925.67231    -15625.73    -381.5346    4277.7948    77.836436    23.923076    16.270539 
 5188600    220.88653   -279.48457    181563.75   -14717.522    908.62068   -15626.142   -314.31062    4276.8412    77.836113    23.923966     16.26977 
 5188800    225.97491   -364.95658    181563.75   -14673.747    929.55181   -15603.299   -674.57919    4278.1382    77.835739    23.926543    16.265791 
 5189000    224.63708   -348.19557    181563.75       -14697    924.04863   -15621.049   -558.24107    4276.6848    77.835341    23.927767    16.260542 
 5189200    225.36965   -400.37676    181563.75   -14678.354    927.06207   -15605.416   -762.76337    4275.6127    77.834693    23.930063     16.26033 
 5189400    221.83301   -419.62722    181563.75   -14695.803    912.51406   -15608.317   -869.01304    4278.1719     77.83503    23.931056    16.264165 
 5189600    225.01191   -367.15703    181563.75   -14712.841     925.5905   -15638.432   -709.97923    4277.5767    77.836415    23.931938    16.260781 
 5189800    220.77041   -324.53119    181563.75   -14716.436    908.14303   -15624.579   -509.79828    4275.6404    77.837694    23.932962    16.261941 
 5190000    221.16288   -355.03436    181563.75   -14696.207    909.75745   -15605.965   -603.15518    4278.0979    77.837105    23.934861    16.264269 
 5190200    220.20109   -299.74739    181563.75   -14720.753    905.80113   -15626.554   -421.69689    4275.8797    77.837506    23.935144    16.268774 
 5190400    229.26495   -305.85061    181563.75   -14684.264    943.08546   -15627.349   -447.41044    4275.2931    77.837858    23.934418    16.263346 
 5190600    233.14326   -333.92221    181563.75     -14665.7    959.03895   -15624.739   -532.51488     4278.866    77.838486     23.93604    16.265697 
 5190800    229.78408   -320.66668    181563.75   -14695.559    945.22091    -15640.78   -488.94619    4276.8189    77.840515    23.936305    16.256888 
 5191000    220.30796   -342.15915    181563.75   -14743.523    906.24073   -15649.764   -523.10546    4276.1733    77.840401    23.936778    16.262889 
 5191200    226.53886   -384.59682    181563.75   -14717.768    931.87166    -15649.64   -722.83138    4278.5009    77.839586     23.93442    16.272801 
 5191400     227.6334   -377.64363    181563.75   -14696.653    936.37406   -15633.027   -699.24284     4275.662    77.839772    23.932347    16.268992 
 5191600    227.17726   -395.13122    181563.75    -14690.02    934.49771   -15624.518    -789.9248    4276.3416    77.840523    23.930826    16.260619 
 5191800    220.96243   -380.78689    181563.75    -14703.61     908.9329   -15612.543   -662.81173    4278.9905    77.841247    23.928918    16.263547 
 5192000     220.2215   -359.88346    181563.75   -14666.845    905.88508    -15572.73   -615.31902    4275.6066    77.841393    23.926366     16.26845 
 5192200    228.01905   -286.38772    181563.75   -14619.018    937.96045   -15556.979   -371.85835    4275.2989    77.841531     23.92454    16.276694 
 5192400    227.86177   -316.49535    181563.75   -14615.547    937.31348   -15552.861   -483.46567    4278.1418    77.843035    23.923917    16.265298 
 5192600    226.99767   -417.80187    181563.75   -14694.392    933.75895   -15628.151   -845.54649    4277.3494     77.84147     23.92405     16.26329 
 5192800    223.95249   -384.58873    181563.75   -14706.755    921.23258   -15627.987   -732.14619    4277.5952    77.842193    23.922486    16.268176 
 5193000    222.21858   -370.49866    181563.75   -14688.643     914.1001   -15602.744   -700.99532    4276.2813     77.84259    23.921419    16.267516 
 5193200    229.61869   -423.01889    181563.75   -14683.136    944.54057   -15627.676   -837.20678    4279.7338    77.842422    23.922769    16.265921 
 5193400     221.9311    -309.3799    181563.75   -14755.115    912.91753   -15668.033    -429.6654    4276.7781    77.841407    23.923555    16.270337 
 5193600    226.66946   -333.17197    181563.75   -14689.158    932.40886   -15621.567   -590.44041    4276.0465    77.840111    23.926036    16.267011 
 5193800    226.98259   -466.55784    181563.75   -14718.735    933.69692   -15652.431   -1017.6049    4278.8353    77.838226    23.926735    16.264142 
 5194000    225.97138   -374.88428    181563.75   -14665.622    929.53731   -15595.159   -708.07016     4277.712     77.83684    23.926473    16.268346 
 5194200    223.03837   -289.62615    181563.75   -14689.776     917.4723   -15607.248   -379.32594    4275.4775    77.837071    23.926106    16.269303 
 5194400    228.23452   -425.07139    181563.75    -14656.29    938.84678   -15595.137   -875.44365    4277.9322    77.836551    23.925953    16.262922 
 5194600    219.81479   -402.97086    181563.75   -14705.844    904.21207   -15610.056    -793.4678    4276.7633    77.836823    23.926721    16.267486 
 5194800    232.91092    -311.7974    181563.75   -14674.802    958.08324   -15632.885   -431.12285    4276.0383    77.834499    23.928519    16.261307 
 5195000    230.02878   -377.97104    181563.75   -14674.423     946.2275   -15620.651   -699.89825    4278.6287    77.833701    23.927481    16.262532 
 5195200    232.34108   -389.13373    181563.75   -14721.621    955.73917    -15677.36   -764.66367    4277.8234    77.833541    23.927084    16.261479 
 5195400    224.47923   -355.55175    181563.75   -14688.899    923.39931   -15612.298    -594.6855    4278.0519    77.830417    23.929263    16.260883 
 5195600    221.22541   -361.08531    181563.75   -14687.159    910.01468   -15597.174    -647.2161    4277.4144     77.83285    23.929036    16.257147 
 5195800     225.0793   -423.91541    181563.75   -14698.467    925.86774   -15624.334   -880.82835    4278.5924     77.83278    23.929855    16.259573 
 5196000    226.09516   -405.08074    181563.75   -14650.755    930.04648   -15580.801   -832.27962    4277.5575    77.832166    23.930565    16.260844 
 5196200    228.87437   -276.01036    181563.75   -14678.789     941.4788   -15620.268   -353.16293    4277.9106    77.832342    23.932475    16.261903 
 5196400    223.81201   -303.12744    181563.75   -14632.937    920.65472   -15553.592   -401.36189    4277.0342    77.831426    23.934126    16.270098 
 5196600    228.21608   -381.57219    181563.75   -14712.369    938.77092    -15651.14   -738.87257    4277.1902    77.833314    23.934161    16.261102 
 5196800    220.74073   -380.19406    181563.75   -14693.256    908.02094   -15601.277   -722.56269    4278.8013    77.834129     23.93378    16.262711 
 5197000    225.43655   -298.22027    181563.75   -14668.018    927.33726   -15595.355   -410.80865    4276.7745    77.834623    23.935268    16.261616 
 5197200    228.61106   -343.51142    181563.75   -14686.313    940.39568   -15626.708   -563.72352    4279.4795    77.834237    23.935261    16.261606 
 5197400    232.63339   -338.19529    181563.75   -14629.604     956.9416   -15586.545    -561.0262    4278.4952    77.833324    23.936067    16.266637 
 5197600    229.84433   -326.84619    181563.75   -14674.618    945.46876   -15620.086   -483.85937    4279.3505    77.831588    23.938238    16.263287 
 5197800    229.18996   -390.25407    181563.75    -14675.65    942.77701   -15618.427   -763.77339    4278.6604    77.832333    23.938556    16.261329 
 5198000    230.33798   -318.49408    181563.75   -14643.158    947.49941   -15590.657   -499.71674    4277.5236    77.832101    23.939193    16.263093 
 5198200    226.96605   -331.42621    181563.75   -14683.993    933.62892   -15617.622   -538.78248     4278.316    77.831262    23.939616    16.261632 
 5198400    227.89417   -430.02081    181563.75   -14700.779    937.44673   -15638.225   -868.41402    4279.5513    77.829351    23.942157    16.254085 
 5198600    235.17877   -339.55261    181563.75   -14690.155    967.41207   -15657.567   -576.14346    4277.3886    77.827967    23.942859    16.255606 
 5198800    222.33784   -335.69376    181563.75   -14730.847    914.59068   -15645.438    -538.0479    4277.6586     77.82794    23.943622    16.252818 
 5199000    228.68378   -389.57301    181563.75   -14700.547    940.69483   -15641.242   -754.92949    4279.0557    77.827463    23.944533    16.259656 
 5199200    229.01803   -339.41582    181563.75   -14704.832    942.06978   -15646.902   -572.08331    4279.2775    77.827877    23.943894    16.258669 
 5199400     223.0767   -217.34427    181563.75   -14732.068    917.63001   -15649.698   -117.55811    4274.7988    77.828678    23.944543    16.256142 
 5199600    216.12694    -375.4137    181563.75   -14729.709    889.04203   -15618.752   -674.97036    4278.6486    77.828471    23.943955     16.25551 
 5199800    223.33883   -455.66985    181563.75   -14681.737    918.70827   -15600.446   -992.83536    4279.4561    77.828728    23.943827    16.260553 
 5200000    228.21189   -270.41587    181563.75   -14683.859    938.75369   -15622.613   -313.60021    4275.7586    77.828774    23.944404    16.256873 
Loop time of 6170.47 on 128 procs for 5200000 steps with 9253 atoms

Performance: 728.113 ns/day, 0.033 hours/ns, 842.723 timesteps/s
97.7% CPU use with 128 MPI tasks x no OpenMP threads

MPI task timing breakdown:
Section |  min time  |  avg time  |  max time  |%varavg| %total
---------------------------------------------------------------
Pair    | 0.44277    | 1606.6     | 4977.9     |4602.2 | 26.04
Neigh   | 4.1417     | 109.68     | 265.58     | 853.0 |  1.78
Comm    | 94.978     | 1086.1     | 4254.6     |3596.8 | 17.60
Output  | 71.99      | 72.074     | 74.188     |   2.2 |  1.17
Modify  | 173.5      | 3209.1     | 5921.3     |4406.3 | 52.01
Other   |            | 87.04      |            |       |  1.41

Nlocal:    72.2891 ave 149 max 0 min
Histogram: 40 0 12 12 0 0 0 13 40 11
Nghost:    703.945 ave 956 max 516 min
Histogram: 26 9 4 33 7 9 5 17 2 16
Neighs:    0 ave 0 max 0 min
Histogram: 128 0 0 0 0 0 0 0 0 0
FullNghs:  7773.67 ave 18202 max 0 min
Histogram: 44 20 0 0 0 0 2 29 24 9

Total # of neighbors = 995030
Ave neighs/atom = 107.536
Neighbor list builds = 510151
Dangerous builds = 0
write_data 		${DIR}/data.${NAME}_run
write_data 		run_13/data.${NAME}_run
write_data 		run_13/data.ibeam_cooling_13_run
Total wall time: 1:43:03
