
# Set production fixes - Nose/Hoover
#
fix                 4 water temp/csvr ${START_TEMP} ${END_TEMP} 500.0 928347
fix                 4 water temp/csvr 240 ${END_TEMP} 500.0 928347
fix                 4 water temp/csvr 240 227 500.0 928347


## divide "droplet" into core and surface
#region		core_reg cylinder z 135 135 44.6 20 INF units box
#region		surface_reg cylinder z 135 135 44.6 20 INF units box side out
#group		core dynamic all region core_reg
#group		surface dynamic all region surface_reg

## compute pressure core
#compute        peratom_core core stress/atom NULL
#compute        p_core core reduce sum c_peratom_core[1] c_peratom_core[2] c_peratom_core[3]
#variable       press_core equal -(c_p_core[1]+c_p_core[2]+c_p_core[3])/(3*1249982.5)


## compute pressure surface
#compute        peratom_surf surface stress/atom NULL
#compute        p_surf surface reduce sum c_peratom_surf[1] c_peratom_surf[2] #c_peratom_surf[3]
#variable       press_surf equal -(c_p_surf[1]+c_p_surf[2]+c_p_surf[3])/(3*33365)

## compute total pressure of drop
compute        peratom water stress/atom NULL
compute        p water reduce sum c_peratom[1] c_peratom[2] c_peratom[3]
variable       press equal -(c_p[1]+c_p[2]+c_p[3])/(3*50320)


# compute order parameter
compute        3 all orientorder/atom nnn NULL cutoff 3.5

# compute center of mass of bridge
compute 	4 water com

# Run simulation
thermo_style        custom step c_2 press vol etotal ke pe v_press c_1[4] c_4[*]
thermo              200
dump		     1 water custom 400 ${DIR}/prod.${NAME}.dump id type x y z vx vy vz c_3[*] c_peratom[*]
dump		     1 water custom 400 run_15/prod.${NAME}.dump id type x y z vx vy vz c_3[*] c_peratom[*]
dump		     1 water custom 400 run_15/prod.ibeam_cooling_15.dump id type x y z vx vy vz c_3[*] c_peratom[*]
run                 ${STEPS}
run                 5200000
Neighbor list info ...
  update every 1 steps, delay 0 steps, check yes
  max neighbors/atom: 2000, page size: 100000
  master list distance cutoff = 6.67472
  ghost atom cutoff = 6.67472
  binsize = 3.33736, bins = 48 13 9
  2 neighbor lists, perpetual/occasional/extra = 1 1 0
  (1) pair sw, perpetual
      attributes: full, newton on
      pair build: full/bin/atomonly
      stencil: full/bin/3d
      bin: standard
  (2) compute orientorder/atom, occasional, copy from (1)
      attributes: full, newton on
      pair build: copy
      stencil: none
      bin: none
Per MPI rank memory allocation (min/avg/max) = 6.133 | 6.582 | 7.261 Mbytes
Step c_2 Press Volume TotEng KinEng PotEng v_press c_1[4] c_4[1] c_4[2] c_4[3] 
       0    243.69311   -340.26977    181563.75   -13370.837     1002.436   -14373.273   -693.92384    30.488993    78.716063    25.139136    16.418389 
     200     234.3815    -520.2085    181563.75   -13366.491     964.1325   -14330.623   -1293.9024    31.798696    78.715958    25.135996    16.424064 
     400    235.76135   -469.74147    181563.75    -13358.65    969.80851   -14328.458   -1105.0425    32.903587     78.71754    25.132639    16.432779 
     600     230.5986   -330.54019    181563.75   -13446.232    948.57147   -14394.803   -609.91311    32.760549    78.718698    25.130592    16.429214 
     800    228.99564   -344.75316    181563.75   -13438.986    941.97764   -14380.964   -634.19607    33.880613    78.718135    25.131026    16.423293 
    1000    236.71452   -275.59681    181563.75   -13339.167    973.72942   -14312.897   -378.05514    35.164548    78.714226    25.133109    16.421466 
    1200    228.61766   -358.47056    181563.75   -13402.287    940.42281    -14342.71   -699.11279    36.206261    78.712509    25.133402    16.433343 
    1400    248.54848   -496.55823    181563.75   -13254.426    1022.4086   -14276.835   -1203.6778    37.658274     78.71142    25.134888    16.414575 
    1600    246.84164   -386.40514    181563.75   -13249.801    1015.3875   -14265.189    -796.1738    39.356029    78.710553      25.1339    16.406807 
    1800    235.66881   -357.39116    181563.75   -13288.277    969.42787   -14257.705   -638.53769    41.274939    78.707341    25.131604    16.409598 
    2000    243.25353   -422.44763    181563.75   -13201.571    1000.6277   -14202.199   -917.25656    43.354597    78.703425    25.134846    16.390778 
    2200    242.67072   -167.94086    181563.75   -13215.879    998.23034   -14214.109   -40.530474    43.714808     78.69982    25.133385    16.384616 
    2400    238.52768   -496.14059    181563.75   -13254.103    981.18787   -14235.291   -1223.2107    45.624199    78.699042    25.131843    16.379485 
    2600    243.16033   -172.82329    181563.75   -13284.405    1000.2444    -14284.65   -44.522298    45.184021     78.69588    25.129028    16.376424 
    2800    242.34694   -461.84989    181563.75   -13268.712    996.89847    -14265.61   -1075.3401    46.575612    78.694394    25.127224    16.384491 
    3000    237.67734   -295.34357    181563.75   -13326.739    977.68998   -14304.429   -498.02611    47.531119    78.693965    25.129935    16.384871 
    3200    243.36959   -327.40824    181563.75   -13327.229    1001.1052   -14328.334   -620.92744    48.702993    78.693985     25.13342    16.358582 
    3400    237.49523   -423.53074    181563.75   -13274.632    976.94087   -14251.573   -978.16398    49.612546    78.697205    25.134228    16.388308 
    3600    245.97353   -290.27921    181563.75   -13271.709    1011.8165   -14283.526   -449.61351    50.265031    78.699569     25.13289    16.380602 
    3800     235.7749   -327.87469    181563.75   -13301.957    969.86424   -14271.821   -565.93392    51.972045    78.699475    25.132387     16.39884 
    4000    244.66966   -346.75925    181563.75   -13300.954     1006.453   -14307.407   -662.78004    53.165352    78.699158    25.125439    16.421422 
    4200    248.62461   -232.52858    181563.75   -13232.048    1022.7218    -14254.77   -270.84814    54.411819    78.696695    25.122904    16.416156 
    4400    239.23816   -180.74253    181563.75   -13196.434    984.11043   -14180.545   -83.996777    55.158586    78.693832    25.120079    16.464235 
    4600    247.24533   -438.96309    181563.75   -13282.915    1017.0481   -14299.963   -1017.0367    57.602857    78.695232     25.11902     16.44611 
    4800    240.19327    -144.1972    181563.75   -13266.415    988.03931   -14254.454    7.0704916    58.827871    78.698956    25.117036    16.419633 
    5000    241.64327   -334.96553    181563.75   -13323.463     994.0039   -14317.467   -617.78455    60.129264    78.699117    25.114581    16.397123 
    5200    244.90398   -224.89506    181563.75   -13340.128    1007.4169   -14347.545   -217.85141    60.927586    78.699831     25.11171    16.396945 
    5400    233.96853   -518.03841    181563.75   -13327.594    962.43372   -14290.028   -1264.6611    62.060936    78.699599    25.110184    16.401381 
    5600    237.92929    -381.2162    181563.75   -13344.597    978.72639   -14323.323   -772.54623    62.727368    78.699292    25.110603    16.408494 
    5800    251.51493   -173.36455    181563.75   -13219.575    1034.6112   -14254.186   -89.536537    64.176937    78.697953    25.109056    16.415001 
    6000    218.73023   -472.38252    181563.75   -13364.073     899.7507   -14263.824   -1101.1465    65.261169     78.69387    25.109657    16.404981 
    6200    240.04279   -331.18839    181563.75   -13293.936    987.42029   -14281.356   -615.32475     64.59216    78.692868    25.110439    16.384504 
    6400    242.14648   -385.35359    181563.75   -13285.984    996.07388   -14282.058    -787.4272    64.936848    78.696058    25.110738    16.401659 
    6600    233.20942   -242.51421    181563.75   -13350.512    959.31112   -14309.823   -246.93374    65.940834    78.700255    25.107703    16.390499 
    6800    234.20898   -343.49145    181563.75   -13307.586    963.42283   -14271.009   -612.85656    67.507977    78.701244    25.105848    16.365586 
    7000    236.38551   -370.51431    181563.75   -13321.115      972.376   -14293.491   -766.66035    68.509583    78.703791    25.106729    16.332713 
    7200    236.09117   -405.55106    181563.75   -13262.661    971.16524   -14233.827   -896.20214     69.74734    78.703299    25.107924    16.348316 
    7400    233.60639   -298.20027    181563.75   -13346.305    960.94407   -14307.249   -517.63828    70.470041    78.702396    25.106257    16.318715 
    7600    233.27847   -396.36908    181563.75   -13378.637    959.59515   -14338.232    -828.8087    70.473202    78.699408    25.108581    16.313012 
    7800    238.83118   -310.24861    181563.75    -13307.16    982.43634   -14289.596    -561.3929    71.228943    78.698249    25.113275    16.292406 
    8000    237.28933   -310.17925    181563.75       -13300    976.09388   -14276.094   -529.31837    72.480525    78.698626    25.115883    16.320822 
    8200    243.71056   -296.08507    181563.75   -13323.992    1002.5078     -14326.5   -476.44648    74.021748    78.697446    25.120173    16.305016 
    8400    241.39391   -351.91754    181563.75   -13351.105    992.97814   -14344.083   -655.96196    75.535242    78.693118    25.117989    16.278669 
    8600    237.97229   -549.81418    181563.75   -13275.769    978.90325   -14254.673   -1408.7111    76.919667    78.688134    25.120647    16.272817 
    8800    235.80588   -486.05075    181563.75    -13298.65    969.99169   -14268.642   -1159.3263    78.033225    78.685122    25.123393    16.260972 
    9000    243.35953   -357.20067    181563.75   -13289.808    1001.0638   -14290.872   -734.24988    79.758844      78.6821      25.1242    16.260355 
    9200    234.75115   -289.89388    181563.75   -13357.922    965.65303   -14323.576   -473.09529    80.367016    78.682162    25.125033    16.267923 
    9400    238.61775   -279.71545    181563.75   -13369.245     981.5584   -14350.803   -413.77942    81.520333    78.680326    25.129225    16.285074 
    9600    225.94737   -573.41672    181563.75   -13423.741    929.43855   -14353.179   -1448.6739    82.214602    78.680141    25.131101    16.327113 
    9800    238.96801     -318.983    181563.75   -13385.616    982.99917   -14368.615   -551.09835    82.099984    78.681535     25.13265    16.328499 
   10000    245.87058   -362.27319    181563.75   -13265.571     1011.393   -14276.964   -735.68833    84.062594    78.686452    25.136007    16.334037 
   10200    241.27789   -346.33525    181563.75   -13316.369    992.50091    -14308.87   -677.88212    84.478653    78.688862    25.135833    16.358489 
   10400    241.74189   -411.27345    181563.75   -13317.235    994.40957   -14311.645   -848.94546    85.024653    78.688038    25.133944    16.363449 
   10600    242.22987   -281.13003    181563.75   -13321.351    996.41688   -14317.768   -445.79476    85.195432    78.687215    25.132964    16.393711 
   10800    237.45214   -328.41867    181563.75   -13354.294    976.76363   -14331.058   -563.37699    86.403199    78.683131      25.1282     16.38248 
   11000    237.50888   -347.59084    181563.75   -13353.079    976.99701   -14330.076   -710.24097    87.248637    78.682561    25.126693    16.359189 
   11200    232.00113   -392.01055    181563.75   -13343.332    954.34078   -14297.673   -825.86771    87.996081    78.687843    25.129523    16.345031 
   11400    239.60741   -323.73671    181563.75    -13337.32    985.62937   -14322.949   -568.97306    89.806959    78.685709    25.135289     16.34349 
   11600    240.70716   -317.94531    181563.75   -13309.092    990.15321   -14299.245   -562.62825    90.978708    78.689907     25.13885    16.339174 
   11800    230.58767   -326.10303    181563.75   -13291.042    948.52651   -14239.568   -564.69028    91.769152    78.691654    25.140301    16.342066 
   12000    242.17657   -482.42282    181563.75   -13233.413    996.19763   -14229.611   -1134.9791    92.832574    78.691678    25.141827    16.350943 
   12200    240.72819   -446.41851    181563.75   -13251.067    990.23973   -14241.307   -1058.7713    95.097876    78.692105    25.146177    16.358791 
   12400    252.53874   -507.63854    181563.75   -13210.995    1038.8226   -14249.818   -1183.2627    96.912101    78.694229     25.14754    16.338231 
   12600    247.79042   -430.21128    181563.75   -13167.443    1019.2903   -14186.733   -923.51236    98.064736    78.694494    25.144859    16.349123 
   12800    236.04303   -296.35611    181563.75   -13282.811    970.96723   -14253.779   -504.82232    99.770232    78.695988    25.138618    16.341284 
   13000    242.58046    -448.4522    181563.75    -13327.99    997.85906   -14325.849   -1026.3311    101.35699    78.697471     25.13525    16.343861 
   13200     238.1471   -475.88325    181563.75   -13281.795    979.62237   -14261.418   -1097.1535    103.25707    78.697584    25.135384    16.339035 
   13400    247.45258   -343.53961    181563.75    -13257.02    1017.9006   -14274.921   -686.94519    104.36857    78.697992    25.138178    16.335788 
   13600    237.44256   -277.58934    181563.75   -13266.646    976.72421   -14243.371   -406.06158    105.73399    78.701878    25.142827    16.333949 
   13800    231.74449   -451.29204    181563.75     -13342.5    953.28511   -14295.785   -1007.8779    106.62975    78.702505    25.140197    16.332881 
   14000    239.30579   -322.48257    181563.75   -13301.531    984.38864    -14285.92   -552.52323    106.94738    78.707317     25.13932    16.321522 
   14200    235.77987   -440.50327    181563.75   -13311.537    969.88472   -14281.422   -1028.9732    108.74027    78.708652    25.137566    16.324906 
   14400    232.36459   -453.79037    181563.75   -13375.455     955.8359   -14331.291   -996.12509    109.29081    78.704104    25.143486    16.306101 
   14600    236.64452   -307.87459    181563.75   -13373.071    973.44146   -14346.513   -468.03767    109.92133     78.70113    25.143538    16.302085 
   14800     241.2173   -341.83298    181563.75   -13339.475    992.25166   -14331.727   -639.29716    111.54948     78.70663    25.137625    16.281518 
   15000    236.10751   -362.95999    181563.75   -13337.616    971.23247   -14308.849   -755.01148    112.24401    78.711704    25.135992    16.275004 
   15200    243.04396   -143.05364    181563.75   -13401.947    999.76565   -14401.712    74.988333    112.70806    78.712985    25.133708     16.27753 
   15400    234.86098   -378.65596    181563.75   -13353.789    966.10482   -14319.894   -784.53843    114.50573    78.708286    25.132459    16.254536 
   15600    237.38047   -236.83107    181563.75   -13396.118    976.46879   -14372.587   -295.02838    115.25628    78.708156    25.136096    16.267746 
   15800    240.58038   -446.22031    181563.75   -13307.985    989.63169   -14297.617   -1032.8073    116.31414    78.715549    25.135298    16.283614 
   16000    238.89757   -375.69118    181563.75   -13359.746    982.70942   -14342.456   -778.38786      116.438    78.715748    25.138616    16.281037 
   16200     253.0085   -217.84877    181563.75   -13263.699     1040.755   -14304.454   -217.72641    118.82009    78.713371    25.140554    16.250214 
   16400    249.67806   -224.80293    181563.75   -13262.727    1027.0552   -14289.782   -242.73918    120.19516    78.711283    25.142959    16.235811 
   16600    240.18858   -508.86761    181563.75   -13324.263    988.02001   -14312.283   -1225.5673    121.01106     78.71059    25.143364    16.237657 
   16800    237.16041   -394.95121    181563.75   -13329.901    975.56358   -14305.465   -830.29135    122.49837    78.708703    25.147909    16.204458 
   17000    238.42219   -279.81401    181563.75   -13355.785    980.75395   -14336.539   -426.35862    124.74716    78.707981    25.152002    16.198453 
   17200    236.02304   -480.58114    181563.75   -13365.483    970.88501   -14336.368   -1152.2851    124.95231    78.707579    25.153714    16.207353 
   17400    245.09436   -327.58198    181563.75   -13333.332       1008.2   -14341.532   -621.09666    125.92157    78.708364    25.150451    16.229854 
   17600    248.86763   -387.98025    181563.75   -13254.013    1023.7215   -14277.734   -819.17247    126.90766    78.710263    25.146148    16.237738 
   17800    248.28207     -308.533    181563.75   -13269.473    1021.3127   -14290.786   -523.66471    126.77988    78.706864    25.143094    16.206776 
   18000     240.1815   -242.52391    181563.75    -13315.71     987.9909   -14303.701   -275.76879    128.29286    78.706729    25.140506    16.218218 
   18200    243.44407   -314.14575    181563.75   -13329.148    1001.4115   -14330.559   -540.29065    129.19165     78.70761    25.142427    16.247696 
   18400    241.87164    -278.8914    181563.75   -13347.489    994.94333   -14342.432   -486.75215    129.45907    78.710002     25.14418     16.24107 
   18600    239.04807   -240.26828    181563.75   -13285.755    983.32849   -14269.083   -322.54374    128.87062     78.71351    25.143302    16.265428 
   18800    252.18812    -407.0609    181563.75   -13302.651    1037.3803   -14340.031   -894.07658    130.08032    78.711588    25.144824    16.264917 
   19000    243.35747    -275.2808    181563.75   -13310.539    1001.0553   -14311.595   -401.18621    130.92922    78.709588    25.150942    16.269312 
   19200    246.82731    -331.9474    181563.75   -13296.885    1015.3286   -14312.214   -616.20638    133.07702    78.708076    25.157929    16.244457 
   19400    244.09401   -297.10339    181563.75   -13300.465    1004.0851    -14304.55   -523.17914    133.40194    78.707065    25.159136     16.26868 
   19600    242.04112   -277.49029    181563.75   -13364.358    995.64046   -14359.998   -462.47882    133.28379    78.707878    25.158867    16.249902 
   19800    241.94319   -224.76517    181563.75   -13329.712    995.23763    -14324.95   -207.36062    135.35842    78.711248    25.164577    16.233162 
   20000    235.21485   -276.13243    181563.75   -13364.311    967.56048   -14331.872   -400.40544    136.04641    78.711777    25.161909     16.27377 
   20200    230.46815   -356.01922    181563.75   -13362.852    948.03484   -14310.886   -734.00052    137.80122    78.710333    25.157092    16.277355 
   20400    232.88704   -305.01829    181563.75   -13408.253    957.98499   -14366.238   -538.25418    138.68747    78.704775    25.148626    16.266389 
   20600    239.95547    -313.7275    181563.75   -13345.535    987.06112   -14332.596   -539.14584    140.03559      78.7006    25.140002    16.270536 
   20800    240.80474   -435.12963    181563.75   -13362.475    990.55459    -14353.03   -976.35496    140.45806    78.692564    25.137604    16.255458 
   21000    246.69111   -573.82994    181563.75   -13339.167    1014.7683   -14353.935   -1454.3649    142.72205    78.691418    25.136182     16.23539 
   21200     247.3436   -281.99046    181563.75   -13326.147    1017.4523   -14343.599   -448.71495    143.08121    78.686347    25.134703    16.256519 
   21400    238.70046   -314.39432    181563.75   -13370.141    981.89861   -14352.039   -515.17295    143.89489    78.684853    25.138468    16.272083 
   21600    246.48607   -442.44487    181563.75   -13339.314    1013.9248   -14353.239   -997.92813    144.95049    78.684141    25.140668    16.251006 
   21800    242.47928   -369.37337    181563.75   -13304.651    997.44285   -14302.094   -754.43855    146.41827    78.680213    25.143734    16.247272 
   22000    244.55144    -353.4503    181563.75   -13320.072    1005.9667   -14326.039   -656.70444    147.72262    78.681132    25.145326    16.285396 
   22200     244.0595   -350.97401    181563.75   -13303.763    1003.9431   -14307.707   -675.57011    148.65654    78.684508    25.149021    16.260962 
   22400    239.10652   -234.78111    181563.75   -13315.336    983.56896   -14298.905     -250.008    149.59596     78.68472    25.147949     16.26144 
   22600    238.24363   -370.46033    181563.75   -13331.351    980.01945   -14311.371   -744.04847    151.54497    78.679529    25.146828    16.275152 
   22800    248.50427   -361.71722    181563.75   -13289.299    1022.2268   -14311.526   -715.86229    150.11252    78.681734    25.146721    16.279278 
   23000    244.90002   -365.41539    181563.75   -13307.594    1007.4006   -14314.995   -729.07823    152.62749    78.684082    25.146805    16.265403 
   23200    243.95259   -350.77891    181563.75   -13324.424    1003.5033   -14327.927   -698.08802     154.5418    78.684376    25.149734    16.258763 
   23400    237.53783   -231.06231    181563.75   -13266.414    977.11611    -14243.53   -206.36174    155.99863    78.684482      25.1531    16.259166 
   23600    236.60103    -329.8443    181563.75   -13334.385    973.26258   -14307.647   -577.56093    157.91861    78.681112    25.158426     16.26799 
   23800      237.091   -385.44616    181563.75   -13363.865    975.27804   -14339.143   -821.73022    158.94467    78.680934    25.160549    16.295925 
   24000    239.81604   -232.28864    181563.75   -13318.589    986.48758   -14305.077   -285.57272    160.65344    78.679448    25.163435    16.269883 
   24200    241.06262   -279.95141    181563.75   -13281.639     991.6154   -14273.255   -423.74315    162.33842    78.677759     25.15976    16.262555 
   24400    241.36895   -417.32179    181563.75   -13280.811     992.8755   -14273.686   -919.54875    160.90836    78.676185    25.159699    16.252929 
   24600    238.37152   -383.17862    181563.75   -13297.162    980.54549   -14277.708   -823.67852     161.4195    78.678751    25.161749    16.250914 
   24800    235.34121   -531.67789    181563.75   -13286.558    968.08027   -14254.638   -1356.0647    162.70388    78.682239     25.16472    16.262607 
   25000    241.76793   -455.48892    181563.75   -13305.502    994.51669   -14300.019   -1059.9934    163.20391    78.681082    25.166956     16.26752 
   25200    243.46228   -455.24837    181563.75   -13288.331    1001.4864   -14289.818   -1057.2095    165.72469    78.677991    25.170965    16.279592 
   25400    237.13981    -388.3907    181563.75     -13307.1    975.47884   -14282.579   -809.46631     167.6902    78.674268    25.172048     16.24829 
   25600    235.74043   -304.93381    181563.75   -13281.436    969.72248   -14251.158   -534.43479    169.73593    78.673428    25.169789    16.258466 
   25800    238.35015   -229.59288    181563.75   -13323.254    980.45759   -14303.712   -235.78405    171.00152    78.676777    25.164315    16.258309 
   26000    239.11183   -461.85666    181563.75   -13349.467     983.5908   -14333.058   -1059.0688    172.57501    78.677604    25.163958    16.263768 
   26200      240.771   -253.52877    181563.75   -13317.047     990.4158   -14307.462   -323.65676    172.36992    78.678568    25.161845    16.300292 
   26400    237.42143   -305.91149    181563.75   -13377.854    976.63727   -14354.491    -564.1954    171.75388    78.682854    25.162494    16.310821 
   26600     237.2987   -456.26158    181563.75   -13367.239    976.13246   -14343.371   -1055.5075    171.74306    78.685565    25.162101    16.306968 
   26800    244.54994   -402.37327    181563.75    -13292.03    1005.9606   -14297.991   -885.52839    173.32925    78.685615    25.161518     16.32018 
   27000    237.53844   -370.45499    181563.75   -13329.992    977.11861    -14307.11    -746.0496    174.24539    78.685067    25.162888     16.33447 
   27200    238.08645   -389.70003    181563.75   -13258.077    979.37287    -14237.45   -804.01523     174.9805    78.687237    25.162092    16.332308 
   27400    242.50293   -123.45593    181563.75   -13236.237    997.54014   -14233.777    164.74112    175.86759    78.688522    25.161511     16.36256 
   27600    241.54848   -304.57158    181563.75   -13225.708    993.61399   -14219.322   -519.76348    178.01024     78.69119    25.161655     16.34087 
   27800    231.96547   -241.00083    181563.75    -13329.85    954.19411   -14284.044   -304.52632    179.57432    78.690883    25.159932    16.335038 
   28000    234.64531   -324.13382    181563.75   -13304.608    965.21767   -14269.826   -602.29277    180.30401     78.69028    25.162526    16.369197 
   28200    245.65752   -500.26778    181563.75   -13261.515    1010.5166   -14272.031   -1231.5889     179.4404    78.690603     25.16105    16.364871 
   28400    238.69117   -503.28455    181563.75   -13285.219    981.86038    -14267.08   -1190.0783    182.69539    78.692675    25.158285     16.37504 
   28600    235.53004   -444.45666    181563.75   -13278.792    968.85702   -14247.649   -1009.2637    183.02224    78.690254    25.157934    16.392187 
   28800    224.95786   -226.68258    181563.75   -13322.044    925.36818   -14247.412   -225.53553    183.41389    78.687698    25.157244    16.348366 
   29000     237.7994   -365.49571    181563.75   -13288.914    978.19206   -14267.106   -734.33504    184.30053    78.684303    25.156923    16.332014 
   29200     251.4577   -342.07716    181563.75   -13296.074    1034.3758   -14330.449   -666.98958    188.40017    78.685769     25.15411    16.363164 
   29400    236.49318   -381.14672    181563.75   -13294.948    972.81892   -14267.767   -826.65283    189.02813    78.686927    25.150256    16.398112 
   29600    238.37855   -494.44852    181563.75   -13315.811    980.57443   -14296.386   -1182.3949    190.50442    78.686102    25.143169    16.406647 
   29800    237.14778   -360.93584    181563.75   -13281.862    975.51162   -14257.374   -693.69052    190.52358    78.680801    25.139995    16.399385 
   30000    248.80503    -308.5497    181563.75   -13280.435    1023.4639   -14303.899   -544.27484    192.08541    78.678264    25.135031    16.375408 
   30200    232.22822   -402.69722    181563.75   -13320.675    955.27492    -14275.95   -847.51363    193.64116    78.675165    25.136217    16.347136 
   30400    235.53155   -470.27162    181563.75   -13365.763    968.86323   -14334.626   -1106.1351    194.89002    78.673053    25.139572    16.344815 
   30600    238.78251   -355.89446    181563.75   -13366.677    982.23612   -14348.913   -711.83926    196.39338    78.674571    25.138725    16.323815 
   30800    242.00821   -277.98743    181563.75   -13335.014    995.50509   -14330.519    -378.3566    197.91001    78.676644    25.137802    16.303214 
   31000     242.3962   -358.01038    181563.75    -13322.13    997.10109   -14319.231   -733.56861    199.21268    78.677011    25.137497     16.29889 
   31200    240.94749   -311.03682    181563.75   -13281.975    991.14183   -14273.117   -509.95197    199.63577    78.678853     25.13412    16.296721 
   31400    239.67382   -374.81328    181563.75   -13289.206    985.90256   -14275.108   -748.82664    199.96868    78.676303    25.134287    16.273727 
   31600    244.74577   -379.14721    181563.75   -13255.225    1006.7661   -14261.991   -792.37496    200.82975    78.674452    25.133991    16.275516 
   31800    241.05543   -399.78636    181563.75   -13333.743    991.58583   -14325.329   -836.54924    202.80015     78.67252    25.131633    16.256056 
   32000    238.00024   -317.81543    181563.75   -13311.541    979.01826    -14290.56   -573.24276    203.50078     78.67593    25.130293    16.263954 
   32200     233.2226    -331.2682    181563.75   -13325.354    959.36531   -14284.719   -593.41256    202.77979    78.676812    25.125957    16.270691 
   32400    237.72252   -520.47871    181563.75   -13321.555    977.87584    -14299.43    -1265.633    204.72783    78.676886    25.120345    16.287707 
   32600    233.33512   -474.23674    181563.75   -13279.354    959.82818   -14239.182   -1142.0558     207.3632    78.677227    25.114017    16.294145 
   32800    240.24746   -476.18408    181563.75   -13335.453    988.26223   -14323.715   -1142.8027    207.10803     78.67942    25.112365    16.288677 
   33000    245.95651   -313.96986    181563.75   -13295.833    1011.7465   -14307.579   -526.60175    207.26068    78.678967    25.110649    16.265442 
   33200    238.32448   -392.06874    181563.75   -13290.973    980.35202   -14271.325   -815.96395    208.14675    78.677893    25.108936    16.309477 
   33400    239.85209   -276.64658    181563.75   -13301.555    986.63587   -14288.191   -397.23917    208.79018    78.674836    25.106673    16.299543 
   33600    235.88127   -346.91491    181563.75   -13334.911    970.30181   -14305.213    -629.3697    210.83892    78.673196    25.105757    16.310687 
   33800    239.52868   -262.23065    181563.75   -13295.392    985.30549   -14280.698   -367.30376    212.28291    78.673469    25.107619    16.314329 
   34000    237.84445   -401.04134    181563.75   -13299.384    978.37738   -14277.761   -884.82024     213.6095    78.675904    25.110288    16.297144 
   34200    240.97274   -367.66361    181563.75   -13313.755    991.24568   -14305.001   -737.94564    213.91738    78.680187    25.112959     16.28982 
   34400    239.06261   -307.52273    181563.75   -13308.646    983.38832   -14292.034   -551.50633     214.9234     78.68252    25.113165    16.298333 
   34600    239.02102   -196.98176    181563.75   -13318.421    983.21725   -14301.638   -168.75824    213.99743    78.684526    25.117818    16.319902 
   34800    240.40814   -484.89043    181563.75   -13301.573    988.92317   -14290.496   -1187.5494     216.3606     78.68368     25.11754    16.315866 
   35000    235.98177   -386.88356    181563.75   -13310.769    970.71522   -14281.484   -745.12428    216.71921    78.682333    25.120257    16.310307 
   35200    241.96466   -414.83788    181563.75   -13268.164    995.32597    -14263.49   -960.18759    217.72507    78.682545    25.122304    16.291674 
   35400    250.20317   -311.77174    181563.75   -13233.438    1029.2152   -14262.653    -489.3013    219.32342    78.682172    25.123799     16.31553 
   35600    238.36602   -348.60022    181563.75   -13296.954    980.52287   -14277.477   -703.72105    220.32798    78.684863    25.126644    16.308357 
   35800    238.15734   -311.67945    181563.75   -13252.676    979.66446   -14232.341   -516.42565    221.81621     78.68481    25.131048    16.310621 
   36000    238.66664   -253.63168    181563.75   -13324.728    981.75947   -14306.488   -316.13255    222.08959     78.68515    25.134898    16.290663 
   36200     231.5813   -302.15788    181563.75   -13332.302    952.61384   -14284.916   -481.38368    223.80042    78.688282    25.138317    16.299899 
   36400    244.57985   -273.41835    181563.75    -13309.83    1006.0836   -14315.913   -368.89019    225.90703    78.688802    25.137849    16.314277 
   36600    230.13045   -445.93389    181563.75   -13354.807    946.64572   -14301.453   -985.35875    226.08356    78.688218     25.14006    16.306689 
   36800    230.96219   -401.72741    181563.75   -13376.987    950.06711   -14327.054   -810.46627    228.67735    78.688366    25.137452      16.3144 
   37000    237.08171   -399.82155    181563.75   -13299.329    975.23987   -14274.568   -844.44566     227.8265    78.686675    25.137206    16.301056 
   37200    231.94671   -311.37959    181563.75   -13368.401    954.11693   -14322.518   -558.96288    228.59128    78.688772     25.13887    16.319989 
   37400    237.83398   -322.60814    181563.75   -13309.316    978.33432   -14287.651   -529.34479     229.8698    78.692357    25.143177     16.30431 
   37600    240.30788   -488.38714    181563.75   -13263.752    988.51077   -14252.262    -1176.444    230.53314    78.693957    25.139909    16.313057 
   37800    240.75015   -344.35789    181563.75   -13366.536    990.33004   -14356.866   -684.86271    233.63842    78.692247    25.137278    16.317597 
   38000    235.94772   -467.27752    181563.75   -13401.794    970.57515   -14372.369   -1075.6763    233.12157    78.688958    25.134478    16.298912 
   38200    241.66819   -383.89332    181563.75   -13374.386    994.10643   -14368.492   -820.66842    236.50041    78.685331    25.132341    16.305167 
   38400    245.39675   -543.30622    181563.75   -13329.951    1009.4439   -14339.395   -1373.4995    237.10729       78.682    25.129257    16.304749 
   38600    237.28837   -463.71026    181563.75   -13361.409    976.08995   -14337.499   -1045.8583    237.81748    78.679474    25.126402    16.314614 
   38800    240.81658   -188.09601    181563.75   -13347.286    990.60332   -14337.889   -73.963804    238.46897    78.682488     25.12541    16.314419 
   39000    236.15138   -191.22493    181563.75   -13286.222    971.41291   -14257.635   -121.17165    238.56705     78.68242    25.126664    16.313491 
   39200    240.23027   -401.37854    181563.75   -13356.266    988.19151   -14344.457   -834.11814    239.77173    78.684882    25.127393    16.320022 
   39400    240.61307   -421.36259    181563.75   -13295.947    989.76616   -14285.713   -941.90385    241.18827    78.686051    25.126579    16.315015 
   39600    239.05106   -304.95162    181563.75   -13302.563     983.3408   -14285.903   -565.12511    242.82182    78.682146    25.120713    16.340755 
   39800    239.01968   -475.14075    181563.75   -13186.121    983.21172   -14169.332   -1125.5328    245.08235    78.683811    25.115767    16.318841 
   40000    234.73157   -448.68357    181563.75    -13302.63    965.57251   -14268.203   -1002.6117    244.71936    78.681693    25.115914     16.32891 
   40200    229.38187   -283.10739    181563.75   -13324.313    943.56641   -14267.879    -462.6367    246.56952     78.67981    25.116658    16.357401 
   40400    250.73608   -456.79479    181563.75   -13233.463    1031.4074   -14264.871   -1051.0586    248.84675    78.679385    25.118322    16.365878 
   40600    233.72759   -371.81422    181563.75    -13388.76    961.44262   -14350.202   -774.35525    249.39014    78.677824    25.114794    16.406232 
   40800    244.32804   -336.26792    181563.75   -13319.783    1005.0477   -14324.831   -636.04906    251.94798     78.67638    25.117892    16.409053 
   41000    241.03673   -379.34136    181563.75   -13302.551     991.5089    -14294.06   -795.84813    252.83249     78.67893    25.121967    16.368145 
   41200    240.12407   -169.84582    181563.75   -13279.492    987.75466   -14267.246   -76.753744    253.21721    78.683755    25.121095    16.365822 
   41400    245.20389   -311.09392    181563.75   -13281.673    1008.6506   -14290.324   -534.19303    254.20758    78.683167    25.122792    16.350994 
   41600    240.78248   -343.15586    181563.75   -13253.028    990.46302   -14243.491   -661.52339    255.02187    78.684796    25.123074     16.36189 
   41800    240.51649   -453.81878    181563.75   -13305.674    989.36887   -14295.043   -1067.3052    256.97902    78.686452    25.123223    16.368455 
   42000    241.89829   -299.72548    181563.75   -13316.477    995.05292    -14311.53   -538.63355    258.36977     78.68888    25.123599    16.355133 
   42200    231.65572   -325.11687    181563.75    -13312.05    952.91996    -14264.97    -580.5276    263.53904    78.688821    25.127304    16.348322 
   42400    235.52908   -347.67759    181563.75   -13306.527    968.85307    -14275.38   -693.70499    266.59617    78.686702    25.126122    16.351812 
   42600    235.34505   -412.26448    181563.75    -13300.47    968.09605   -14268.566   -921.84909    270.46926    78.685937      25.1236    16.354088 
   42800    239.40943   -320.48421    181563.75   -13291.985    984.81496     -14276.8   -591.37637    273.16111    78.685624    25.127283    16.347936 
   43000    241.01715   -310.52738    181563.75    -13281.16    991.42835   -14272.588   -538.62946     275.3808     78.68721    25.129536    16.355559 
   43200    252.66515   -246.27551    181563.75   -13313.134    1039.3426   -14352.476   -308.62627    276.25526     78.68732    25.130112    16.379582 
   43400    233.53392   -348.18275    181563.75   -13323.746    960.64595   -14284.392   -618.04316    275.40049    78.686174    25.133086    16.379524 
   43600    234.45036   -515.44018    181563.75   -13344.543    964.41576   -14308.959   -1270.1647    276.40584    78.685397    25.135924    16.391179 
   43800    244.34164   -323.12654    181563.75   -13287.196    1005.1037     -14292.3    -580.1005    277.60706    78.685582    25.140677    16.379354 
   44000    238.20443   -366.75669    181563.75   -13332.309     979.8582   -14312.167   -784.15768    275.37005    78.684923    25.143681    16.370893 
   44200    240.65438   -240.21485    181563.75   -13289.019    989.93607   -14278.955   -301.40291    277.00792    78.683315    25.141843    16.377872 
   44400     249.2185   -290.05015    181563.75   -13224.281    1025.1647   -14249.446   -489.56075    278.10917    78.686845    25.144505    16.366371 
   44600    234.26903   -297.57682    181563.75   -13280.183    963.66985   -14243.853   -488.06479    277.33302    78.684902    25.149263    16.384882 
   44800    240.19811   -310.33217    181563.75   -13295.469    988.05923   -14283.529   -549.61586    276.40962    78.684217    25.151717    16.350525 
   45000    243.13165   -250.87611    181563.75   -13287.705    1000.1264   -14287.831   -344.53661    278.24309    78.685052    25.152526    16.350269 
   45200    255.59753   -337.37242    181563.75   -13221.984     1051.405   -14273.389    -657.9995      279.771    78.686784    25.152224     16.36158 
   45400    250.40639   -418.90478    181563.75   -13219.354    1030.0512   -14249.405   -912.89282    282.21782    78.684842    25.145673    16.343022 
   45600    243.12491   -315.49997    181563.75    -13240.51    1000.0986   -14240.609   -535.12788    283.51551    78.686204    25.140469    16.349715 
   45800    241.28016   -445.35289    181563.75   -13280.682    992.51023   -14273.192   -997.02558    285.49644    78.687016    25.139284    16.336881 
   46000    239.20988   -505.90574    181563.75    -13270.44     983.9941   -14254.434   -1213.1618    289.61973    78.687547    25.136358    16.310994 
   46200    238.90053   -401.00162    181563.75   -13268.577    982.72158   -14251.299   -852.67544    288.07453    78.685211    25.134093    16.325941 
   46400    255.54292   -396.68567    181563.75   -13249.824    1051.1804   -14301.004   -883.73287    289.22909    78.678288    25.130346     16.34232 
   46600    237.66113   -239.43439    181563.75   -13323.192    977.62332   -14300.815   -312.98211     290.2776    78.672799    25.126169    16.350478 
   46800    240.32664   -396.48523    181563.75   -13276.266    988.58794   -14264.854   -819.87034    290.34549    78.668196    25.129824    16.349801 
   47000    247.10851   -369.66089    181563.75   -13229.329    1016.4853   -14245.814   -736.63388    289.14336    78.666449    25.135197    16.335502 
   47200    235.41174   -405.42794    181563.75   -13322.499    968.37039   -14290.869   -911.05663    289.30328     78.66759    25.135963    16.341869 
   47400    236.14488   -494.92959    181563.75   -13309.517    971.38619   -14280.903   -1195.0192    290.08086    78.667607    25.135162     16.35208 
   47600    243.75155   -354.21803    181563.75   -13290.228    1002.6764   -14292.904   -681.11998    289.73323    78.669583    25.136384    16.361909 
   47800     232.7234    -239.0949    181563.75   -13290.921    957.31185   -14248.233   -320.11712    288.82182    78.669414    25.136462    16.351909 
   48000     247.0434   -326.59211    181563.75   -13287.778    1016.2174   -14303.996   -565.50886    291.52708    78.671151    25.137371    16.347032 
   48200     238.4349   -488.05253    181563.75   -13289.355    980.80621   -14270.161   -1148.1867    295.36961    78.670013     25.13775    16.332243 
   48400    240.87186   -398.29455    181563.75   -13304.166    990.83072   -14294.997   -818.71848    294.46893    78.666802    25.138199    16.350214 
   48600    240.61725   -324.42313    181563.75   -13282.822    989.78336   -14272.605   -601.43597    295.21627    78.665404    25.137671    16.358827 
   48800    240.34098   -331.28261    181563.75   -13295.753    988.64692     -14284.4   -610.70964    298.73018      78.6656    25.135692    16.368434 
   49000    246.48374   -328.71988    181563.75   -13226.991    1013.9153   -14240.906    -604.0682    299.22692    78.663252    25.131724     16.37364 
   49200    247.15844   -417.24345    181563.75    -13247.75    1016.6907   -14264.441   -903.40845    301.39228    78.661178    25.134352    16.373352 
   49400    237.58074   -395.08613    181563.75   -13261.137    977.29262    -14238.43   -851.14575    303.51993    78.658398    25.134631    16.387082 
   49600    245.56758   -278.20791    181563.75   -13279.351    1010.1466   -14289.498   -417.12457    304.71325    78.655826    25.136379    16.378906 
   49800    236.76773   -259.82139    181563.75   -13297.741    973.94828   -14271.689   -348.78942    306.31646    78.653131    25.135419    16.369712 
   50000     230.1107    -390.5776    181563.75   -13315.445    946.56448   -14262.009   -780.63751    306.96648      78.6515    25.134729    16.346965 
   50200    240.91076   -417.05256    181563.75   -13261.844    990.99071   -14252.835   -921.02233    308.20099    78.649196     25.13347    16.359641 
   50400    243.57189   -275.80182    181563.75   -13289.169    1001.9373   -14291.107   -404.14739    309.17876    78.648019    25.136271    16.389918 
   50600    234.56001   -430.86788    181563.75   -13325.703    964.86679    -14290.57   -961.13444    310.34521    78.652116     25.14001    16.392712 
   50800    238.78952   -437.79325    181563.75   -13315.811    982.26497   -14298.076   -939.16175    310.76983    78.648982    25.141116    16.400576 
   51000    248.76744    -323.8691    181563.75   -13228.695    1023.3093   -14252.005   -600.76402    311.33033    78.646374    25.143447    16.410918 
   51200    231.59778   -334.38028    181563.75   -13297.406     952.6816   -14250.088   -669.64338    309.97227    78.647984    25.141643    16.422904 
   51400    242.23982   -477.72711    181563.75   -13261.261    996.45782   -14257.719   -1128.3424    311.37984    78.645439    25.142765    16.424168 
   51600    238.63404   -236.20538    181563.75   -13271.987    981.62538   -14253.612   -225.65056    311.24321    78.644373    25.143094    16.381981 
   51800    241.14136   -434.91484    181563.75    -13276.55     991.9393   -14268.489   -971.92126    312.20798    78.644304    25.141529    16.358028 
   52000     243.0497   -431.67022    181563.75   -13309.133    999.78927   -14308.923   -1009.8966    313.87029    78.644493    25.140534    16.359656 
   52200    243.55122   -516.96822    181563.75   -13308.154    1001.8523   -14310.006   -1249.2677    313.13521    78.641795    25.141122    16.375926 
   52400    242.14524    -389.5076    181563.75   -13289.009    996.06876   -14285.078   -841.59779     311.9301    78.641405    25.146565    16.426468 
   52600    244.41377   -401.05191    181563.75   -13304.822    1005.4004   -14310.223   -869.37516    313.50467    78.645285    25.145055    16.446012 
   52800    232.88156   -330.04815    181563.75    -13396.52    957.96245   -14354.483   -574.85436    313.56211    78.646932    25.141244    16.418835 
   53000    234.10544   -371.03748    181563.75   -13405.664    962.99692   -14368.661   -757.05155    314.34821    78.648839    25.141851     16.41959 
   53200    234.03679   -335.54956    181563.75   -13373.931    962.71453   -14336.645   -573.17135    316.21714    78.647231    25.135104     16.39412 
   53400    237.63847   -268.85784    181563.75   -13342.891    977.53009   -14320.422   -339.85344    317.93193    78.649611    25.128362    16.401053 
   53600    251.02229   -284.08227    181563.75   -13312.329    1032.5847   -14344.914   -449.89761    318.84136    78.650838    25.125577    16.414309 
   53800    241.90276   -332.57043    181563.75   -13317.685    995.07133   -14312.757   -597.91019    322.04591    78.653996    25.124331    16.384804 
   54000     240.9724   -282.85488    181563.75   -13272.429    991.24428   -14263.673   -376.17832    322.10373    78.655687    25.125136    16.368595 
   54200    232.75282   -453.67496    181563.75   -13361.163    957.43289   -14318.596   -1041.5332    321.43117    78.654225    25.126026    16.333203 
   54400    236.37743   -423.96064    181563.75    -13328.16    972.34277   -14300.503   -959.30852     321.5954    78.652068    25.126477    16.323833 
   54600    240.56929   -249.59639    181563.75    -13286.75    989.58608   -14276.336    -334.3204    322.57574    78.653202    25.125482    16.311792 
   54800     253.8706   -528.82894    181563.75   -13238.344    1044.3013   -14282.645   -1345.3997    326.55455    78.653838    25.126109    16.305495 
   55000    236.65117   -329.51019    181563.75   -13284.602    973.46882   -14258.071   -615.95426     329.7206    78.652191    25.127338    16.323479 
   55200    236.44834   -275.25542    181563.75   -13282.225    972.63449   -14254.859   -398.18882    330.23247    78.653714    25.125505     16.31182 
   55400     241.6637   -343.14972    181563.75   -13268.045    994.08795   -14262.133   -652.62018    331.11479    78.654252    25.125333    16.323413 
   55600    237.51648    -341.6268    181563.75   -13297.883    977.02827   -14274.911   -637.04916    330.13075     78.65513    25.128181    16.340578 
   55800    235.09632   -490.73331    181563.75   -13333.104    967.07292   -14300.177   -1175.4095    332.23554    78.660408    25.129878    16.357834 
   56000    233.05283   -407.54071    181563.75    -13332.46    958.66698   -14291.127   -853.08501    334.85795    78.661146     25.12763    16.358779 
   56200    242.56681   -335.20339    181563.75   -13245.753    997.80291   -14243.556   -637.83147    336.89274     78.65568    25.129534    16.355701 
   56400    243.80028    -510.6433    181563.75   -13288.152    1002.8768   -14291.029   -1276.0521     338.4253     78.65451    25.132506    16.339016 
   56600    239.62696   -396.64431    181563.75    -13353.26    985.70979    -14338.97   -807.02888    338.66023    78.651816    25.135251    16.352942 
   56800    231.43648   -392.24576    181563.75   -13406.741    952.01812    -14358.76   -810.08106    340.90445    78.649844    25.138967     16.34004 
   57000    231.12606   -420.90847    181563.75   -13381.469    950.74116    -14332.21   -915.30554    340.82147    78.648193    25.137407    16.349212 
   57200    237.63034    -316.0723    181563.75   -13377.581    977.49665   -14355.078   -518.33654    343.79845    78.647026    25.135966    16.360183 
   57400    242.82363   -266.61068    181563.75   -13362.355    998.85935   -14361.215   -342.07523    343.83942    78.646734    25.132413    16.352952 
   57600    236.11294   -391.96222    181563.75   -13277.113    971.25481   -14248.368    -793.3752    347.10953    78.645865    25.133099    16.360451 
   57800    246.05227   -417.37414    181563.75   -13313.124    1012.1404   -14325.264   -925.56342    347.96589    78.649305    25.133457      16.3626 
   58000    240.17137   -419.29163    181563.75   -13285.458    987.94921   -14273.407   -911.11033    347.42823    78.650872    25.137994    16.349085 
   58200    238.94123   -412.89303    181563.75   -13330.153    982.88902   -14313.042   -889.59266    350.12079    78.650664     25.14088     16.37881 
   58400    243.05146    -356.6922    181563.75   -13316.836    999.79654   -14316.633   -684.88061    351.46989    78.648199    25.141471    16.346509 
   58600    239.43771    -471.6556    181563.75   -13295.534    984.93131   -14280.465   -1130.0082    349.32652     78.64654    25.143778    16.357151 
   58800    238.80067   -414.78171    181563.75   -13291.389     982.3108     -14273.7   -940.68891    351.07939    78.646573    25.140065    16.354427 
   59000    240.35891   -308.29179    181563.75    -13314.65    988.72065   -14303.371   -545.85869     352.9508    78.647116    25.140108    16.350806 
   59200    237.57249   -398.03132    181563.75   -13295.139    977.25868   -14272.398   -836.90737    353.73424    78.647477    25.143958    16.339285 
   59400    238.99124   -267.49767    181563.75   -13324.598    983.09475   -14307.693   -445.25162     354.1246    78.644648    25.148565    16.344064 
   59600    247.00063    -451.9911    181563.75   -13270.729    1016.0415   -14286.771   -1060.2706     354.1905    78.642066    25.150122    16.358104 
   59800    237.55801   -407.96085    181563.75   -13293.536     977.1991   -14270.735   -894.59083    353.09083    78.642792    25.154525    16.335693 
   60000     241.1479   -491.50323    181563.75   -13331.354    991.96619    -14323.32   -1174.8161    355.93736    78.643077     25.15321    16.347369 
   60200    247.99818   -255.12804    181563.75   -13276.885    1020.1449    -14297.03   -330.38906      357.764    78.641874    25.152956    16.352096 
   60400    240.12889   -486.90134    181563.75   -13338.102    987.77447   -14325.876   -1175.4762    357.84259    78.641393    25.153947    16.360693 
   60600    240.92327    -304.3608    181563.75   -13306.053    991.04217   -14297.095   -515.17433    355.72587    78.640434    25.151995    16.349598 
   60800    227.86166   -414.32444    181563.75   -13308.163    937.31299   -14245.476   -891.03243    356.43493    78.643895    25.152859    16.362058 
   61000     239.9562   -370.78046    181563.75   -13340.234    987.06413   -14327.298   -730.40701    355.61955    78.647972    25.148448    16.366406 
   61200    236.17912   -253.90235    181563.75   -13316.957    971.52703   -14288.484   -388.25596    358.26955    78.651907    25.146602    16.367053 
   61400    234.72439   -452.68268    181563.75   -13321.594    965.54297   -14287.137   -1054.6274    358.43531     78.65221    25.145783    16.362337 
   61600    239.82408   -427.36493    181563.75   -13327.026    986.52065   -14313.546   -936.93201    359.73707    78.648899    25.146849    16.360813 
   61800    238.53658   -374.76097    181563.75   -13307.578    981.22447   -14288.803   -775.21155    359.41127    78.643004     25.15367    16.359362 
   62000    238.67927   -263.01749    181563.75   -13325.077    981.81143   -14306.889    -378.0037    361.20177    78.639998    25.149461    16.339535 
   62200    239.14084   -299.26621    181563.75   -13230.717    983.71012   -14214.427      -519.24    363.44967    78.636686    25.149767     16.34002 
   62400    246.04119   -513.88767    181563.75   -13214.228    1012.0948   -14226.323   -1268.3864    364.52898    78.640309    25.152742    16.337106 
   62600    245.25243   -384.65522    181563.75   -13301.594    1008.8502   -14310.444   -814.46046    365.17607    78.641342    25.155179    16.332848 
   62800    238.32024   -380.48562    181563.75   -13298.095    980.33457   -14278.429   -786.63607    365.64207    78.640719    25.158759    16.337873 
   63000    249.46139   -285.56689    181563.75   -13273.147    1026.1639   -14299.311   -426.68355    366.31608     78.64071    25.162915    16.320808 
   63200    236.59718   -359.62729    181563.75   -13322.507    973.24675   -14295.754   -688.78975    368.10568    78.640672    25.165779    16.319804 
   63400    240.36346   -444.03961    181563.75   -13288.329    988.73938   -14277.068   -1024.4304    369.15871    78.641893    25.166193    16.329572 
   63600    244.66094   -407.73064    181563.75   -13241.675    1006.4171   -14248.092   -875.64931    371.93821    78.645497    25.169517    16.326205 
   63800    239.50419   -311.88227    181563.75   -13255.103    985.20475   -14240.308   -576.68655    370.52381    78.641526    25.171752    16.351951 
   64000    243.87418   -343.50684    181563.75   -13296.096    1003.1808   -14299.277   -628.19963    372.94045    78.642558    25.172998    16.324329 
   64200    239.41084   -354.41927    181563.75   -13279.546    984.82076   -14264.367   -727.12319    371.48997    78.640122    25.174967    16.339627 
   64400    247.09365   -249.33354    181563.75   -13258.004    1016.4241   -14274.428   -351.56115    373.11841    78.641249    25.172026    16.369053 
   64600    239.66605   -117.68584    181563.75   -13266.384    985.87058   -14252.255    132.62078    372.93056    78.640373    25.171283     16.35112 
   64800     238.2644   -222.72836    181563.75   -13265.161    980.10488   -14245.266   -188.84844      372.639    78.641292    25.170929    16.358868 
   65000    232.95937   -450.84073    181563.75   -13336.992    958.28252   -14295.275   -999.01536    375.75331    78.637518    25.167827    16.365843 
   65200    236.89138   -435.72684    181563.75   -13328.558    974.45692   -14303.015    -1030.941    376.27727    78.637089    25.165445    16.384158 
   65400    248.62119   -366.25944    181563.75   -13169.268    1022.7077   -14191.976   -743.17747    378.16244    78.635116    25.165727    16.381473 
   65600    236.60316   -344.97576    181563.75   -13238.625    973.27132   -14211.897   -653.09141    379.01384    78.636588    25.165085    16.381239 
   65800    242.83716   -429.22204    181563.75   -13177.328      998.915   -14176.243   -998.03474    379.75044    78.635635    25.168655    16.375818 
   66000    241.29338   -344.34609    181563.75    -13263.17    992.56465   -14255.735    -658.7429    381.87752    78.636345    25.170906    16.389534 
   66200    239.09935   -465.62203    181563.75   -13254.065    983.53946   -14237.604   -1123.1751    381.08138    78.636258    25.172293    16.383548 
   66400    229.05074   -225.99367    181563.75   -13301.711    942.20433   -14243.915   -242.53725    379.96175    78.635743    25.177028    16.344003 
   66600    240.59477   -457.19131    181563.75   -13270.855     989.6909   -14260.546    -1099.911    381.74199    78.638317    25.178005    16.338313 
   66800    237.43896   -520.08526    181563.75   -13304.212    976.70941   -14280.922   -1291.2097    381.87363    78.635582    25.175778    16.317239 
   67000    228.22665   -545.04634    181563.75   -13330.254    938.81439   -14269.068   -1366.8022    382.53907    78.632894    25.173618    16.324892 
   67200    236.56524   -244.58592    181563.75   -13345.418    973.11532   -14318.534   -361.06051    382.12239    78.634152    25.174684    16.342981 
   67400    233.48727   -277.66332    181563.75    -13289.75    960.45404   -14250.204   -396.59046    383.50437    78.635264    25.173509    16.327232 
   67600    235.88082   -371.29179    181563.75   -13318.984    970.29995   -14289.284    -782.6183    385.56687    78.636621    25.176598    16.330548 
   67800    238.43677   -405.45882    181563.75   -13286.251    980.81392   -14267.065   -869.31505    384.79089      78.6364    25.180958    16.323829 
   68000    241.17094   -376.47994    181563.75   -13274.305    992.06098   -14266.366   -788.99201    384.44835    78.638483    25.182319    16.329084 
   68200    234.46684   -468.05118    181563.75   -13264.708    964.48354   -14229.191   -1144.9037    384.71236    78.639811    25.184817    16.355738 
   68400    235.59475    -217.1939    181563.75   -13234.036     969.1232   -14203.159   -201.11773    386.23021    78.636428    25.184912    16.368575 
   68600    239.02165   -462.91838    181563.75   -13313.644    983.21984   -14296.864   -1060.1401     390.9077    78.636836    25.182467    16.392763 
   68800    246.99607   -250.11422    181563.75    -13261.57    1016.0227   -14277.593   -350.11461    392.21559    78.634495    25.177134    16.361049 
   69000    244.46873   -386.58853    181563.75   -13242.791    1005.6265   -14248.418   -828.37473    393.98524    78.637974    25.176551     16.37354 
   69200     239.4719   -471.23661    181563.75   -13271.081    985.07195   -14256.153   -1090.2802    397.67779    78.639151    25.176037    16.364546 
   69400     237.6202   -408.11528    181563.75   -13333.172    977.45493   -14310.627    -857.1056    400.61758    78.637697    25.175829    16.350266 
   69600    233.11964   -376.02587    181563.75   -13276.946    958.94182   -14235.888    -725.8411    402.36721    78.635985    25.175307    16.307572 
   69800     232.7437   -293.82667    181563.75   -13272.022    957.39539   -14229.417   -445.15612    402.31765    78.633195    25.175687    16.332933 
   70000    231.35905   -248.09809    181563.75    -13301.03    951.69959    -14252.73   -299.95414    403.89384     78.63005    25.174063    16.328368 
   70200    236.57804   -257.59423    181563.75   -13264.695    973.16801   -14237.863   -374.93139    408.21531    78.629185    25.175538    16.344383 
   70400    238.73199   -387.57409    181563.75   -13240.677    982.02831   -14222.705   -799.41633    408.97534    78.625434    25.171824    16.331385 
   70600    244.15839   -377.04788    181563.75   -13237.051    1004.3499     -14241.4   -803.49943    409.76259    78.620036    25.172436    16.358288 
   70800    232.99626   -335.63374    181563.75    -13278.36    958.43428   -14236.794   -658.20708    410.11349    78.622504    25.173257    16.353993 
   71000     245.1754   -364.85707    181563.75   -13239.864    1008.5334   -14248.398   -723.42799    409.33918    78.620546    25.172286    16.370453 
   71200    247.10409   -85.007127    181563.75   -13152.298    1016.4671   -14168.765    262.01203    410.91209    78.622954    25.172754    16.384267 
   71400    240.88665   -324.26916    181563.75   -13266.163    990.89155   -14257.054   -614.88051    414.23985     78.62405    25.172711    16.389605 
   71600    238.21033   -407.52941    181563.75    -13288.43    979.88243   -14268.313   -906.00982    418.57085    78.621741    25.173664    16.393848 
   71800    244.50091   -393.07203    181563.75   -13281.195    1005.7588   -14286.954   -811.77129    424.34187    78.621089    25.173752    16.380802 
   72000    239.68894   -413.33961    181563.75   -13218.257    985.96474   -14204.222   -895.40695    426.81654    78.617689    25.175657    16.376022 
   72200    241.55315   -402.11958    181563.75    -13277.17    993.63319   -14270.803   -884.63707    434.08442    78.619704    25.179837    16.392398 
   72400    236.36939   -423.85561    181563.75   -13265.965    972.30972   -14238.274   -912.82142    439.65634    78.620881    25.182671    16.427225 
   72600    242.96333   -273.90366    181563.75   -13264.886    999.43399    -14264.32   -446.90637    444.60601    78.620359    25.178542    16.425422 
   72800    231.71347   -323.82548    181563.75   -13315.119     953.1575   -14268.276   -595.09054     450.7592    78.621164    25.175174     16.40237 
   73000    236.82586   -422.26562    181563.75   -13264.898    974.18741   -14239.086   -951.61192    454.53304    78.618238    25.172271    16.408594 
   73200    247.11843   -247.29441    181563.75   -13210.171    1016.5261   -14226.697   -348.23055    452.43485      78.6156    25.172844    16.391732 
   73400    240.82559    -470.9918    181563.75   -13246.513    990.64037   -14237.154   -1114.0725    454.22384    78.612858    25.170522    16.382257 
   73600    242.98038   -263.47717    181563.75   -13255.433    999.50414   -14254.938   -390.50602    455.93015     78.60726    25.169373    16.370045 
   73800    246.96169   -212.65066    181563.75   -13196.189    1015.8813    -14212.07   -183.18993    458.32097    78.603655    25.172157    16.393182 
   74000    249.27421   -257.26607    181563.75   -13206.355    1025.3939   -14231.749   -302.10087    461.78276    78.600758    25.178339    16.380206 
   74200    250.76609   -363.96597    181563.75   -13213.634    1031.5308   -14245.164   -732.66639    468.30028    78.603011    25.174381    16.368444 
   74400    239.79896    -211.3312    181563.75   -13248.921    986.41729   -14235.338   -162.55379    474.54009    78.605309    25.169835    16.372797 
   74600    236.97081   -516.72361    181563.75   -13248.441    974.78365   -14223.224   -1305.1211    475.87662     78.60658    25.168058    16.353236 
   74800    239.31815   -289.03027    181563.75   -13224.195    984.43949   -14208.634     -439.758    475.18582    78.606363    25.168211    16.326973 
   75000    239.32559   -325.88281    181563.75   -13270.773    984.47009   -14255.243   -593.78831    473.76843    78.607122      25.1723    16.347886 
   75200    243.52137   -360.09802    181563.75   -13297.868    1001.7295   -14299.597   -699.92988    468.90215    78.606876    25.175651    16.343175 
   75400     245.5134   -427.78512    181563.75   -13228.019    1009.9238   -14237.943   -976.75447    469.25723     78.60837     25.18041    16.364719 
   75600    237.06978   -569.82739    181563.75   -13279.501    975.19076   -14254.692   -1479.5923    470.46795     78.60986    25.178271    16.368763 
   75800    238.06232   -337.70422    181563.75   -13280.289     979.2736   -14259.563   -653.89755    472.24269    78.613151    25.174151     16.36015 
   76000    235.11896   -244.05545    181563.75    -13306.45    967.16603   -14273.616   -335.16001    478.21944    78.612202    25.172311    16.349576 
   76200     236.2896   -328.34827    181563.75   -13361.227     971.9815   -14333.209   -618.99907    479.79197    78.614048    25.170081    16.336083 
   76400    235.32009    -335.6361    181563.75   -13393.386     967.9934   -14361.379   -596.88393    479.71808     78.61473    25.167352    16.325071 
   76600    232.81194   -485.94869    181563.75   -13325.708    957.67606   -14283.384   -1158.2257    481.19865    78.614819    25.171241    16.340166 
   76800     241.5716   -286.41655    181563.75   -13266.915    993.70911   -14260.624   -475.50411    482.07882    78.618679    25.171637     16.33287 
   77000    236.51575   -456.61848    181563.75   -13306.645    972.91175   -14279.557   -1079.1514    486.28655    78.619638     25.17405     16.34684 
   77200    244.99295   -251.04858    181563.75   -13257.992    1007.7829   -14265.775   -339.61258    485.29489    78.617283    25.170551    16.350575 
   77400     233.8921   -261.29716    181563.75     -13257.7    962.11935    -14219.82   -387.60577     489.5181    78.619007    25.166423    16.349907 
   77600    241.17304   -380.61137    181563.75   -13267.795    992.06963   -14259.864   -816.79386    488.46564     78.61901    25.164664    16.352251 
   77800    240.94536   -252.86333    181563.75   -13266.442    991.13306   -14257.575   -340.26578    486.00941    78.618511    25.166746    16.365687 
   78000    237.75081   -334.66227    181563.75   -13303.988    977.99219    -14281.98   -638.18173    484.18246    78.620212    25.167097    16.386488 
   78200    236.83264   -409.86011    181563.75   -13226.889    974.21531   -14201.104   -915.78945    483.54148    78.619161    25.166689    16.406952 
   78400    244.91247   -515.21156    181563.75   -13230.555    1007.4518   -14238.007   -1283.6878    484.66856    78.620023    25.163747    16.391644 
   78600    232.21542   -296.40423    181563.75   -13305.041    955.22227   -14260.263   -504.35118    484.82614    78.619612    25.166228    16.408555 
   78800    225.71697    -210.6434    181563.75   -13326.224    928.49077   -14254.715   -184.22731    483.93691    78.616136    25.163818    16.390201 
   79000    240.16626   -443.79845    181563.75   -13288.764     987.9282   -14276.692   -1039.5967    493.07485    78.616911    25.167744    16.387163 
   79200    241.59471   -376.80181    181563.75   -13246.458    993.80417   -14240.263   -767.09714    500.41725    78.610651    25.172294    16.367244 
   79400    241.76525   -304.19536    181563.75   -13305.988    994.50569   -14300.493   -505.36535    502.43016    78.612376    25.168468    16.341538 
   79600    237.45408   -320.06402    181563.75   -13307.526     976.7716   -14284.298   -547.61166    501.47581    78.612052    25.167086    16.343135 
   79800    237.37443   -296.29901    181563.75   -13309.149    976.44397   -14285.593   -483.62445    504.78639    78.612286    25.170583    16.352943 
   80000    236.54825   -561.02389    181563.75   -13291.635    973.04546   -14264.681   -1437.6656    510.91051    78.610499    25.173347    16.368104 
   80200    250.31496   -273.73452    181563.75   -13244.998    1029.6751   -14274.673   -387.17314    512.54041    78.608145    25.172838    16.386178 
   80400    247.87224   -438.34639    181563.75   -13266.916    1019.6269   -14286.543   -975.82454    511.77099    78.608143    25.169922    16.397077 
   80600    242.96289   -335.87831    181563.75   -13195.003     999.4322   -14194.435   -665.94138      511.704    78.607042    25.166767    16.350849 
   80800     240.6812   -453.88918    181563.75   -13244.325    990.04644   -14234.371   -1039.1554    518.92191    78.605127    25.166126    16.321621 
   81000    245.96009   -389.47677    181563.75   -13204.719    1011.7612    -14216.48   -801.03192     519.1243    78.608294    25.166337    16.308172 
   81200    237.51556   -311.00582    181563.75   -13255.351    977.02448   -14232.375   -527.37531    518.05736    78.606535    25.162348    16.314051 
   81400    236.26135   -352.45044    181563.75   -13286.011    971.86528   -14257.876   -706.88973    516.73786     78.60667    25.159224    16.323618 
   81600    238.84822   -463.66045    181563.75   -13262.793    982.50643     -14245.3   -1100.8631    519.27318    78.609746     25.15877    16.335397 
   81800    245.45962   -274.75391    181563.75   -13275.018    1009.7025   -14284.721   -403.28006    525.39035    78.611624    25.165965     16.35199 
   82000    251.84832   -457.28187    181563.75   -13269.598    1035.9826   -14305.581   -1002.0523    533.99272    78.616642    25.169005    16.336299 
   82200    237.97391   -337.94964    181563.75   -13307.169    978.90991   -14286.079    -671.0966    537.05419    78.614296    25.170886    16.319977 
   82400    233.18617   -368.88025    181563.75    -13343.13    959.21547   -14302.345   -718.03914     535.2105    78.610714    25.175428    16.343992 
   82600    233.29901   -423.72751    181563.75   -13333.815    959.67963   -14293.494   -940.80613    534.85978    78.612388    25.175445    16.346248 
   82800    238.75269   -331.51751    181563.75   -13319.651    982.11346   -14301.764   -615.65012    533.19939    78.613034    25.175885    16.346336 
   83000    244.50495   -238.52201    181563.75   -13312.832    1005.7755   -14318.608   -285.77809    532.09843    78.611104    25.176905    16.339924 
   83200    241.46524   -412.91111    181563.75    -13312.03    993.27156   -14305.302   -923.78358    532.70336    78.609199    25.178905    16.311819 
   83400    239.68223   -411.77788    181563.75   -13325.834    985.93714   -14311.771   -849.24447     537.9015    78.608635    25.178362    16.293858 
   83600    248.88106   -391.98798    181563.75   -13284.761    1023.7767   -14308.537   -850.95582    542.85444    78.609265    25.177849    16.307054 
   83800    238.77131    -389.6042    181563.75   -13361.621    982.19005   -14343.811    -826.6594    542.55678    78.610874    25.174942    16.322297 
   84000     235.5144   -468.15122    181563.75   -13359.484    968.79269   -14328.277   -1078.1314    536.55287    78.611058    25.177408    16.328305 
   84200    231.80449   -399.47004    181563.75   -13358.028    953.53191    -14311.56   -839.60199    537.68018    78.610247    25.174447    16.322888 
   84400    238.22975   -494.23484    181563.75   -13325.423    979.96234   -14305.386    -1227.571    539.17577    78.609475    25.172489    16.358155 
   84600    230.74491   -467.38331    181563.75   -13290.589    949.17333   -14239.762   -1129.6056    542.07328    78.608213    25.169239    16.338702 
   84800    239.65219   -388.02356    181563.75   -13313.778    985.81357   -14299.592   -844.48377    543.47814    78.606733    25.165883     16.34611 
   85000    237.25214   -328.30247    181563.75   -13316.765     975.9409   -14292.706   -647.30132    543.84045     78.60483     25.16616    16.334614 
   85200    238.35759   -291.52544    181563.75   -13216.081    980.48819   -14196.569    -499.2294    546.88571    78.604806    25.167639    16.335673 
   85400     234.9183   -270.70927    181563.75    -13274.27    966.34064   -14240.611   -409.26164    550.03425     78.60666    25.163578    16.325776 
   85600    236.89162   -262.14753    181563.75    -13275.32    974.45789   -14249.778   -397.30016    553.03473    78.608381    25.158451    16.344829 
   85800    243.87164   -420.98842    181563.75   -13222.757    1003.1703   -14225.928   -928.71993    557.89754    78.609269    25.154262    16.331574 
   86000    242.07134   -249.73936    181563.75   -13225.018    995.76476   -14220.783   -320.63038    568.16933     78.61005    25.151038    16.318858 
   86200    243.16172   -384.10703    181563.75   -13267.899    1000.2501   -14268.149   -790.45499    576.96735    78.606686    25.151407    16.322522 
   86400    241.91212   -447.86399    181563.75   -13282.111    995.10982   -14277.221   -1031.1795    582.72484    78.603604    25.147284    16.275432 
   86600    243.37931   -491.65398    181563.75   -13261.935    1001.1452    -14263.08   -1201.4622    582.04097    78.609492    25.145314    16.237013 
   86800     238.4949   -335.23344    181563.75   -13251.564    981.05304   -14232.617   -668.40855    579.79695      78.6091    25.146896     16.23853 
   87000    243.23523   -360.19924    181563.75   -13293.813    1000.5525   -14294.365   -726.12532    585.08887    78.606807    25.146574    16.237407 
   87200    241.93113    -327.9292    181563.75   -13266.004    995.18802   -14261.192   -643.47223    593.37476    78.604312    25.144194    16.191857 
   87400    240.40887   -392.84041    181563.75     -13269.8    988.92619   -14258.727   -856.83733    601.32048    78.607854    25.144753    16.192524 
   87600    244.72117   -408.59125    181563.75   -13247.783    1006.6649   -14254.448   -907.21456    599.03473    78.607974    25.141669    16.194777 
   87800    234.92201   -408.13305    181563.75   -13288.735    966.35587   -14255.091   -907.09913     587.2797    78.608846    25.143484    16.213346 
   88000    238.47804     -367.915    181563.75   -13235.415    980.98366   -14216.398   -715.02808      582.596      78.6078    25.146762     16.24744 
   88200    243.70093   -276.51672    181563.75   -13209.571    1002.4681   -14212.039   -405.06759    582.58267    78.604714    25.148675    16.237013 
   88400    243.05069   -447.84492    181563.75   -13241.554    999.79335   -14241.347   -1052.7109    585.36819    78.606415    25.150899    16.215616 
   88600    234.56453   -481.36149    181563.75   -13297.166    964.88537   -14262.051   -1139.7805    582.07476    78.606212    25.148362    16.202131 
   88800    230.61569   -140.86417    181563.75   -13340.411    948.64174   -14289.052    91.727537     572.3477    78.608563    25.147275    16.207091 
   89000     233.7533   -208.81665    181563.75   -13357.646    961.54838   -14319.195   -199.94843    571.26956    78.606273    25.146835    16.234966 
   89200    229.15991   -188.83022    181563.75   -13353.044    942.65338   -14295.697   -140.85729     568.9704    78.607735    25.144684    16.222123 
   89400    230.23638   -455.85167    181563.75   -13311.235    947.08148   -14258.316   -1091.3468    573.43534    78.610166    25.147146    16.221987 
   89600    237.63829   -334.27701    181563.75   -13350.715    977.52934   -14328.244   -608.93429    579.87443    78.615244    25.145962    16.228347 
   89800    239.23689   -501.76929    181563.75   -13294.102    984.10522   -14278.207   -1176.1896    578.95075    78.616319    25.145259    16.254519 
   90000     243.4118   -367.50595    181563.75   -13229.159    1001.2788   -14230.438    -719.2572    575.83364     78.61439    25.147244    16.240705 
   90200    239.72087   -550.25614    181563.75   -13263.063    986.09607   -14249.159   -1359.9612    576.94735    78.613285    25.144779    16.253925 
   90400    233.91239   -340.27387    181563.75   -13331.625    962.20281   -14293.828   -645.05663       577.81    78.612038    25.146329    16.256146 
   90600    245.83654   -376.37392    181563.75   -13238.712     1011.253   -14249.965    -771.2934    580.96157    78.613854    25.148866    16.247838 
   90800    240.25413   -364.48936    181563.75   -13231.225    988.28967   -14219.514   -706.06217    582.41967    78.613922    25.148003    16.263218 
   91000    245.14791   -403.15692    181563.75   -13260.381    1008.4203   -14268.801   -876.80448    586.93011    78.611964    25.146421    16.268357 
   91200    244.22198   -488.22994    181563.75   -13285.551    1004.6115   -14290.163   -1200.9467    592.76686    78.611461    25.146961    16.261088 
   91400    233.22551   -340.50863    181563.75   -13354.689    959.37729   -14314.066   -659.63243    593.67959     78.61222     25.14916     16.26115 
   91600    239.35585   -329.15354    181563.75   -13221.774    984.59456   -14206.369   -580.34077    588.61465    78.613429    25.149811    16.281216 
   91800    250.86551   -407.39084    181563.75   -13255.113    1031.9398   -14287.052   -883.29537    581.72216    78.615177    25.152112    16.287696 
   92000    247.04252       -466.2    181563.75   -13247.266    1016.2138    -14263.48   -1069.7391    582.45062    78.612576    25.150379    16.260183 
   92200    243.08709    -245.8396    181563.75   -13293.641    999.94309   -14293.584   -260.53455    579.76209    78.609935    25.148976    16.242814 
   92400    242.59317   -360.46687    181563.75   -13218.871    997.91135   -14216.782   -709.63088    579.26579    78.606717    25.145042    16.254034 
   92600    244.89812   -397.53771    181563.75   -13274.481    1007.3928   -14281.874   -815.01011    582.77205    78.605932    25.143193    16.253981 
   92800    230.76607   -394.18779    181563.75   -13315.672    949.26035   -14264.932   -866.56453    585.79971     78.60681    25.140155    16.240918 
   93000    237.86551   -264.16177    181563.75   -13328.141    978.46404   -14306.605    -421.8197    582.10295    78.610339    25.140556    16.237906 
   93200    237.33099   -291.97644    181563.75    -13292.97    976.26529   -14269.235   -501.17226    584.19175    78.611908    25.136468    16.238078 
   93400    237.96064   -463.70393    181563.75   -13299.181    978.85534   -14278.037   -1068.0815    592.41941    78.611884    25.132581    16.258853 
   93600    244.77509   -549.39393    181563.75   -13259.473    1006.8867    -14266.36   -1395.5946    598.22398    78.610923    25.133657    16.254298 
   93800    241.82331   -585.37919    181563.75   -13185.851    994.74452   -14180.595   -1522.1022    599.66693    78.610385    25.137745    16.295564 
   94000    235.38417   -113.32379    181563.75   -13278.493    968.25698    -14246.75    161.53565    604.29369    78.606885    25.140159    16.288449 
   94200    242.19922   -258.24798    181563.75   -13216.142     996.2908   -14212.433   -358.63145    609.13504    78.604374    25.142027    16.258717 
   94400    241.13768    -385.9709    181563.75   -13216.306    991.92416    -14208.23   -816.19553     617.2332     78.60251    25.140187    16.283578 
   94600     243.6512   -474.90136    181563.75   -13233.947    1002.2635    -14236.21   -1139.3783    622.06352    78.604356    25.139866    16.261261 
   94800    244.41376   -414.97995    181563.75    -13157.47    1005.4004   -14162.871   -914.50048    617.81067    78.605219    25.139783     16.27312 
   95000    244.90521   -457.57414    181563.75   -13265.812    1007.4219   -14273.233   -1064.6426    610.28611    78.608039    25.139612    16.278177 
   95200    236.81044   -329.66006    181563.75   -13270.049    974.12397   -14244.173   -602.53347    608.58781    78.606036    25.145038    16.251943 
   95400    241.24241    -260.8598    181563.75   -13267.535    992.35495    -14259.89   -344.10913    610.38415    78.609561    25.146757    16.236235 
   95600    234.95488   -404.27037    181563.75   -13272.432    966.49109   -14238.923   -868.75618    611.19581    78.609707    25.148778    16.275154 
   95800    235.13709   -300.62009    181563.75   -13253.912    967.24062   -14221.152   -453.86956    614.91214    78.611355    25.150465    16.310522 
   96000    242.55656   -289.34592    181563.75   -13269.032    997.76076   -14266.793   -461.84667    623.56757    78.611048    25.149912    16.318094 
   96200    232.88141   -326.12021    181563.75   -13277.496    957.96185   -14235.458   -607.33379    632.30626     78.60809    25.148756     16.31378 
   96400     231.5759   -391.50687    181563.75   -13243.993    952.59162   -14196.585   -825.07261    632.71523     78.60388     25.14682    16.313895 
   96600    239.09365    -403.2619    181563.75   -13296.358    983.51601   -14279.874   -838.33074    635.66406    78.602093    25.144056    16.313501 
   96800    247.05179   -386.65285    181563.75   -13224.834     1016.252   -14241.086   -816.57735    638.12362    78.604416    25.141536    16.288814 
   97000    256.41832   -275.39245    181563.75   -13249.976    1054.7813   -14304.757   -415.30414    636.19002    78.602777    25.141257    16.262105 
   97200    243.51539   -266.65222    181563.75   -13193.174    1001.7049   -14194.879   -378.01511    631.20642    78.599267    25.144691    16.268829 
   97400    227.89196   -300.87312    181563.75   -13296.488    937.43764   -14233.925   -500.21353    633.79226     78.59569     25.14851    16.320435 
   97600    250.16469    -405.4884    181563.75   -13266.502    1029.0569   -14295.559   -879.56296    630.49537    78.595743    25.145855      16.2871 
   97800    237.77667   -361.70017    181563.75   -13258.802    978.09857   -14236.901   -736.36822      626.798     78.59733    25.146107    16.282104 
   98000    237.47968   -403.43834    181563.75   -13324.409     976.8769   -14301.286   -883.00025    626.17245    78.596486    25.147153    16.272551 
   98200    242.42647   -260.70626    181563.75   -13331.233    997.22562   -14328.459   -348.37542    631.16702    78.597208    25.149722    16.270995 
   98400    238.00638   -250.09453    181563.75   -13287.896     979.0435    -14266.94   -305.90855    639.28607    78.594134    25.152177    16.274681 
   98600    250.79689   -416.15133    181563.75   -13271.149    1031.6575   -14302.807   -873.45477    644.89752    78.590699    25.155273    16.283838 
   98800    241.41869   -159.57587    181563.75   -13177.332    993.08011   -14170.412    30.375269    648.19577    78.590101    25.160111    16.285787 
   99000    247.81328   -465.88922    181563.75   -13232.402    1019.3844   -14251.786   -1101.7349    651.15978    78.588659    25.164587    16.305496 
   99200    241.36811   -476.12452    181563.75   -13249.323    992.87203   -14242.195   -1133.0748     649.6351    78.587337    25.168074    16.307743 
   99400    241.36401   -275.99402    181563.75   -13235.647    992.85518   -14228.502   -403.17714    643.80065    78.582769    25.171759    16.308885 
   99600    241.45701   -560.29475    181563.75    -13221.96    993.23772   -14215.198   -1447.8028    644.33755    78.582734    25.172188    16.312158 
   99800     247.5914   -147.78715    181563.75   -13223.511    1018.4716   -14241.983     48.14274     645.8304    78.581959    25.174678    16.308662 
  100000    246.20734   -502.48917    181563.75   -13289.743    1012.7783   -14302.521   -1284.0025    651.37026     78.58138    25.170782    16.273134 
  100200    245.70057   -362.59386    181563.75   -13260.315    1010.6937   -14271.009   -747.79548    654.86133    78.583825    25.169003    16.270173 
  100400    232.92036   -211.21261    181563.75   -13291.633    958.12206   -14249.755   -175.34543    656.75389    78.586339    25.167414    16.261491 
  100600    236.99984   -496.78733    181563.75   -13329.795    974.90308   -14304.698   -1203.4086    655.10945    78.590012    25.167994    16.255518 
  100800    238.10909   -284.42407    181563.75    -13263.51      979.466   -14242.976   -416.42806    654.10112    78.588884    25.170985    16.281721 
[...]
 5175800    229.55871   -285.37157    181563.75   -14719.871    944.29386   -15664.165   -361.77767    4464.9343    77.542515    25.516324    16.392004 
 5176000    224.19634   -483.19176    181563.75   -14675.429    922.23566   -15597.665    -1087.529    4468.0864    77.542383    25.516247    16.391987 
 5176200    218.07699   -361.11644    181563.75   -14693.896    897.06361    -15590.96   -646.96217    4467.6455    77.543547    25.515895    16.391498 
 5176400    218.60074   -140.43983    181563.75   -14734.439    899.21806   -15633.657    157.47051    4460.8315    77.543271    25.516193    16.388375 
 5176600     229.6426   -282.23019    181563.75   -14679.463    944.63894   -15624.102   -364.47035    4464.4618    77.546571    25.515859    16.384991 
 5176800    224.99527   -489.13384    181563.75   -14705.338    925.52208    -15630.86   -1091.9172    4468.3678    77.548158    25.516561    16.385804 
 5177000    228.16448   -358.27086    181563.75   -14718.456    938.55867   -15657.015   -608.00704    4464.0724    77.549445    25.517805    16.385671 
 5177200    227.44169   -313.68465    181563.75   -14669.663    935.58544   -15605.249    -481.9695    4462.2328    77.550079    25.518592    16.387713 
 5177400    226.33997   -378.76666    181563.75   -14695.613    931.05349   -15626.667   -682.64218    4466.6699    77.550379    25.519063    16.387012 
 5177600    227.34444   -477.94254    181563.75    -14705.31     935.1854   -15640.495   -1055.8759    4466.7618    77.550658    25.520237    16.386096 
 5177800    226.70263   -324.63075    181563.75   -14715.461     932.5453   -15648.006   -526.97528    4463.3281    77.550607    25.520473    16.392085 
 5178000    226.34124   -275.72819    181563.75   -14701.694    931.05874   -15632.752     -340.415    4463.5834    77.551007    25.518892    16.386847 
 5178200    222.30042   -412.34629    181563.75   -14715.594    914.43677    -15630.03   -816.75076    4467.1828    77.552092     25.51873    16.383869 
 5178400    229.69991   -402.77695    181563.75   -14695.232    944.87467   -15640.107   -836.14981    4466.7317    77.552396    25.521104    16.380666 
 5178600    226.79492   -311.89043    181563.75   -14677.611    932.92494   -15610.536   -467.22263    4463.6343    77.552718    25.521183    16.385378 
 5178800    227.91606   -267.28498    181563.75   -14651.592     937.5368   -15589.128   -316.63464    4464.6934    77.555149    25.519093    16.385951 
 5179000    225.84427   -394.00824    181563.75   -14643.998    929.01442   -15573.013   -770.81213     4466.528    77.555389    25.519512    16.390036 
 5179200    224.23672   -429.89391    181563.75   -14689.527    922.40177   -15611.929   -905.47242    4467.3622    77.554794    25.519848    16.390208 
 5179400    223.95604   -344.37998    181563.75   -14695.908    921.24716   -15617.155   -613.17462    4463.8969    77.556339    25.519457    16.380412 
 5179600     222.7277   -310.55666    181563.75   -14716.924    916.19436   -15633.119   -397.22481    4464.5019    77.554893    25.518734    16.381809 
 5179800     221.8015   -453.52146    181563.75   -14673.821    912.38443   -15586.206   -951.09131     4467.291    77.555757    25.518985    16.392223 
 5180000    222.24871    -335.3337    181563.75   -14709.662    914.22404   -15623.886   -579.37257    4464.0956    77.556823    25.518086    16.385942 
 5180200    214.48582   -292.48447    181563.75   -14687.003    882.29125   -15569.294   -401.19038    4463.0963    77.557257    25.517304    16.381543 
 5180400    231.70221   -341.00654    181563.75    -14674.88    953.11118   -15627.991   -545.98188    4466.9968    77.556087    25.517529    16.385445 
 5180600    215.53809   -466.77865    181563.75   -14733.459    886.61978   -15620.079    -1063.054    4467.6601    77.557486    25.518669    16.384583 
 5180800    226.70009   -262.41579    181563.75   -14699.576    932.53488   -15632.111   -276.61826    4463.5507    77.557721    25.517419    16.384877 
 5181000    220.25902   -307.91177    181563.75    -14703.32    906.03941   -15609.359   -490.90763    4462.7476    77.559035     25.51626     16.37838 
 5181200    228.78398   -461.84797    181563.75   -14678.115    941.10701   -15619.222   -1002.3984    4467.6007    77.562443    25.514832    16.384022 
 5181400    226.14287   -409.25581    181563.75    -14672.03    930.24273   -15602.273   -811.49045    4466.6685    77.562991    25.516294    16.388973 
 5181600    226.04557   -296.07361    181563.75   -14679.866    929.84248   -15609.709   -467.08365    4461.0741    77.563363    25.516175    16.381811 
 5181800    229.41369   -327.82763    181563.75   -14654.666    943.69732   -15598.363   -508.81179    4464.5344    77.563894    25.514688    16.387465 
 5182000    223.29557   -430.71348    181563.75   -14732.374     918.5303   -15650.904   -851.27391    4468.0283    77.563823    25.515708      16.3848 
 5182200     217.1073   -430.64011    181563.75   -14802.009    893.07475   -15695.084   -906.19432    4465.7846    77.565477    25.515655    16.381967 
 5182400    220.64301   -313.40938    181563.75   -14705.246    907.61896   -15612.865   -514.25538    4462.6512    77.566744    25.514418    16.382745 
 5182600    237.17981   -407.19573    181563.75   -14684.983     975.6434   -15660.626   -816.60657    4466.3665     77.56664    25.514444    16.384418 
 5182800    218.08064   -432.92108    181563.75   -14709.179     897.0786   -15606.257   -875.07167    4467.5643    77.566864    25.515335    16.384624 
 5183000     232.6333   -242.90102    181563.75   -14699.835    956.94125   -15656.776   -211.07179    4462.7174    77.565644    25.515531    16.383863 
 5183200    227.18884   -308.85145    181563.75   -14665.879    934.54536   -15600.424    -482.1247    4463.2187    77.564411    25.514584    16.385099 
 5183400    225.60186   -412.35213    181563.75   -14721.938     928.0173   -15649.955   -846.49201    4468.4133    77.563075    25.513119    16.380247 
 5183600     224.3295   -425.74389    181563.75   -14700.864    922.78339   -15623.648   -893.34839    4465.9261    77.562239    25.513228    16.382894 
 5183800    227.48799   -267.87694    181563.75   -14736.493    935.77591   -15672.268   -298.50431    4463.6884    77.560618    25.514032    16.383345 
 5184000    222.30694   -272.93124    181563.75   -14718.403    914.46357   -15632.867   -349.06875     4463.717    77.559619    25.512955    16.386757 
 5184200    214.94345   -483.44707    181563.75   -14709.937    884.17371   -15594.111   -1090.4458    4466.8274    77.561484    25.511992    16.381835 
 5184400    219.57877   -376.67431    181563.75   -14722.464    903.24117   -15625.705   -716.48104    4464.6153    77.561596    25.512095    16.386062 
 5184600    230.08218   -252.85937    181563.75   -14681.978    946.44716   -15628.425   -249.10764     4461.948    77.561628     25.50908    16.385615 
 5184800    231.66641   -392.90243    181563.75   -14642.769    952.96392   -15595.733   -771.48948    4465.6068    77.561744    25.506318     16.38027 
 5185000    228.31325   -403.28768    181563.75   -14636.131    939.17062   -15575.301   -730.58293    4467.1863    77.562348    25.504752    16.384686 
 5185200    226.40107   -436.96322    181563.75   -14687.602    931.30484   -15618.907    -935.1304    4466.5587    77.562499    25.504067    16.389477 
 5185400    221.41241   -274.77027    181563.75   -14695.032     910.7839   -15605.816   -370.57474    4464.3523    77.563373      25.5034     16.38649 
 5185600    225.68476   -387.42678    181563.75   -14741.423    928.35828   -15669.781   -733.71653    4464.9837    77.565513    25.502169    16.384934 
 5185800    223.53725   -398.22555    181563.75   -14690.483    919.52447   -15610.008   -766.34953    4465.6935    77.565478    25.503202    16.389601 
 5186000    229.43585   -297.69876    181563.75   -14649.785    943.78845   -15593.573   -423.94387    4465.8738    77.566588    25.503468    16.381985 
 5186200    225.63903   -318.51906    181563.75   -14630.144    928.17018   -15558.314   -509.46204     4463.718    77.567178    25.503082    16.380648 
 5186400    225.86693    -413.0497    181563.75   -14698.573    929.10763    -15627.68   -857.53978    4466.1708    77.568559    25.502726    16.381186 
 5186600    226.33464   -417.03938    181563.75   -14682.803    931.03158   -15613.835   -842.34765    4467.4481    77.569363    25.502686    16.373381 
 5186800    224.83971   -264.18844    181563.75   -14644.192    924.88217   -15569.074    -288.1204    4466.0937     77.56987    25.501093    16.374183 
 5187000    225.38822   -263.01746    181563.75   -14692.983    927.13848   -15620.122   -307.36029    4462.9632    77.571377    25.499464    16.364495 
 5187200    222.06992   -471.28358    181563.75   -14667.078     913.4886   -15580.567    -1049.152    4467.1498     77.57419    25.499744    16.361587 
 5187400    222.73284   -391.55397    181563.75    -14721.54    916.21552   -15637.756   -771.87058    4465.7746    77.574599    25.498446    16.358599 
 5187600    222.59035   -236.16966    181563.75   -14695.571     915.6294   -15611.201    -212.0801    4464.2061    77.575645    25.495959    16.357795 
 5187800    228.66588   -384.75192    181563.75   -14669.847    940.62118   -15610.468   -751.38476    4466.1807    77.577185    25.495604    16.364346 
 5188000     227.9019   -485.12728    181563.75   -14698.074    937.47856   -15635.553   -1106.0639    4466.2341    77.577154    25.495347    16.357365 
 5188200    228.65305   -294.33571    181563.75   -14665.947     940.5684   -15606.515   -399.11999    4464.1016    77.575514    25.495354    16.370559 
 5188400    222.01959   -288.48429    181563.75    -14687.73    913.28156   -15601.011   -388.94234    4463.9981    77.572468    25.494257    16.374717 
 5188600     217.5884   -387.39737    181563.75   -14707.377    895.05378   -15602.431   -715.31675    4464.3823    77.573255    25.494861    16.376121 
 5188800    225.34345   -402.49436    181563.75    -14670.28    926.95431   -15597.234   -767.28526    4466.2937     77.57264     25.49495    16.375473 
 5189000    227.18962   -342.66647    181563.75   -14691.078    934.54856   -15625.627   -597.72592    4464.3128    77.571753    25.495164    16.382384 
 5189200     223.4373    -298.3133    181563.75   -14676.239    919.11331   -15595.352   -419.19606    4464.0058    77.572725    25.493798    16.375639 
 5189400    225.04001   -358.72043    181563.75   -14691.628    925.70612   -15617.334   -658.98549    4464.3299     77.57205    25.494078    16.377144 
 5189600    227.86498    -391.3636    181563.75   -14707.857    937.32665   -15645.184   -756.86188    4464.9165    77.571629    25.492559     16.37139 
 5189800    224.65929   -305.77968    181563.75   -14711.992    924.14002   -15636.132   -469.20995    4463.9751    77.572127    25.490926    16.371772 
 5190000    220.61082   -329.23968    181563.75   -14693.698    907.48654   -15601.184    -528.5783    4464.3961     77.57099    25.489317    16.374419 
 5190200    225.36166      -451.34    181563.75   -14717.465    927.02923   -15644.494   -985.74807    4465.6212    77.572922    25.488654    16.370511 
 5190400    230.16063   -284.58024    181563.75   -14680.436    946.76985   -15627.206   -363.01677    4464.7087     77.57377    25.487703    16.374477 
 5190600    227.07147   -304.30993    181563.75   -14662.155    934.06255   -15596.218   -455.01301    4463.1338    77.573033    25.488769    16.380242 
 5190800    230.14583   -395.61222    181563.75   -14684.671    946.70898    -15631.38   -770.01016    4466.1489     77.57433    25.487407    16.379237 
 5191000    223.36197   -488.64785    181563.75   -14735.452    918.80347   -15654.256   -1100.7855    4467.4135    77.575608    25.487354    16.373786 
 5191200    225.37568   -340.87961    181563.75   -14710.225     927.0869   -15637.311   -572.07825    4463.6542    77.577641    25.489219    16.375163 
 5191400    231.09437   -264.83074    181563.75    -14694.63    950.61084   -15645.241   -277.03532    4463.1747    77.579146    25.489019    16.367253 
 5191600    227.11032   -442.80663    181563.75   -14695.571    934.22237   -15629.793   -960.85365    4465.9928    77.578381    25.489077    16.379215 
 5191800    222.44529    -380.6344    181563.75    -14710.14    915.03269   -15625.173   -730.70122    4464.4196    77.575361    25.488073    16.375868 
 5192000    226.15239   -297.93942    181563.75   -14679.362    930.28189   -15609.644   -441.12967    4462.1371    77.575982    25.488573     16.37395 
 5192200    232.02851   -298.31386    181563.75   -14628.801    954.45342   -15583.254   -392.49603    4464.5385    77.576138    25.487216     16.38178 
 5192400     237.9102   -399.88403    181563.75   -14623.881    978.64786   -15602.529   -766.03117    4467.8677    77.577076    25.486868    16.374957 
 5192600    226.87367   -397.12519    181563.75    -14695.04     933.2489   -15628.289   -794.01636    4464.0787    77.578858    25.485794    16.379801 
 5192800    223.07958     -276.965    181563.75    -14699.08    917.64182   -15616.722   -342.33569    4463.0909    77.579504    25.484535    16.375909 
 5193000     221.3976   -432.06062    181563.75   -14669.081      910.723   -15579.804   -903.58228    4465.6428    77.579769    25.484698    16.382888 
 5193200     229.3065   -375.38238    181563.75   -14673.622    943.25637   -15616.878   -698.61474    4464.9811    77.581736    25.485545    16.365595 
 5193400    214.86095   -362.56493    181563.75   -14745.393    883.83436   -15629.227   -632.22097    4463.7993    77.582605    25.486561    16.365513 
 5193600    229.85932   -382.84934    181563.75   -14684.367    945.53042   -15629.898   -754.18978    4466.2711    77.583684    25.484832    16.370154 
 5193800    223.08851    -355.4975    181563.75    -14708.24    917.67857   -15625.918   -599.97298    4465.5785    77.583985    25.485045    16.371263 
 5194000    228.85003   -294.81456    181563.75   -14657.934    941.37869   -15599.313   -387.79665     4463.769    77.583347    25.485754    16.373168 
 5194200    228.04365   -295.17961    181563.75   -14680.365    938.06162   -15618.426   -445.24064     4464.239    77.583453     25.48416    16.380691 
 5194400    230.60812   -397.79959    181563.75   -14647.397    948.61061   -15596.007   -804.07759    4465.7612    77.583635    25.483371    16.370512 
 5194600     220.9585   -370.03056    181563.75   -14700.166    908.91673   -15609.082   -689.22022     4464.302    77.582696    25.482512    16.370625 
 5194800    226.23606   -242.04319    181563.75   -14661.286    930.62606   -15591.912   -227.98505    4463.2482    77.584298    25.480573    16.372718 
 5195000    226.37706   -334.27478    181563.75   -14666.072    931.20609   -15597.278   -531.06994    4466.0846    77.585951    25.479004    16.371252 
 5195200    222.72188   -439.85472    181563.75    -14708.49    916.17042    -15624.66   -921.78544    4465.0196    77.585987    25.479371    16.370372 
 5195400    221.82945   -430.54449    181563.75   -14678.645     912.4994   -15591.144   -919.07097    4465.1833    77.586133    25.479418    16.371821 
 5195600    221.67939   -321.39032    181563.75   -14691.287    911.88213   -15603.169   -507.30234    4465.1127    77.585455    25.478285    16.368566 
 5195800    224.04858    -302.4872    181563.75   -14696.053    921.62785   -15617.681   -375.68514    4464.3886    77.585269    25.477867    16.373667 
 5196000    229.93691   -402.21611    181563.75   -14654.313    945.84959   -15600.163   -776.04106     4467.017    77.584718    25.475717    16.378757 
 5196200    221.25889   -442.77835    181563.75   -14682.972    910.15239   -15593.125   -993.06153    4466.4813    77.586405    25.475317    16.380235 
 5196400    230.99191   -346.26016    181563.75   -14638.485    950.18934   -15588.674    -653.6357     4464.673    77.586992     25.47519    16.376236 
 5196600    227.80491   -329.01466    181563.75    -14713.51    937.07959   -15650.589   -496.21473    4464.1779    77.587541     25.47439    16.370268 
 5196800    224.72477   -347.19683    181563.75   -14703.884    924.40936   -15628.293   -597.89049    4464.7606    77.587192    25.473804    16.377972 
 5197000     232.8462   -283.10984    181563.75   -14678.519    957.81702   -15636.336   -393.83685    4463.6522    77.587775    25.474382    16.374505 
 5197200    231.03885   -366.05409    181563.75   -14693.193    950.38243   -15643.575   -671.74219    4464.3585    77.588348    25.473193    16.380453 
 5197400    231.90772   -369.35324    181563.75   -14631.138    953.95654   -15585.094    -696.6945    4463.8177    77.589339    25.473679    16.376623 
 5197600    225.22109   -322.04869    181563.75   -14672.135    926.45097   -15598.586   -536.11823     4466.183    77.588494    25.473573    16.374312 
 5197800    225.31857   -305.55309    181563.75   -14676.136    926.85198   -15602.988   -429.62259    4461.5709    77.587244    25.472342    16.380687 
 5198000    232.79243   -368.26585    181563.75   -14643.409    957.59582   -15601.005   -672.79793    4463.0151    77.585427     25.47154    16.388001 
 5198200    226.71487   -357.63587    181563.75   -14685.295    932.59565   -15617.891   -609.68892    4464.0334    77.583684    25.470092    16.387756 
 5198400    221.24531   -333.46102    181563.75   -14705.276    910.09654   -15615.373   -571.62645    4463.3218    77.583034    25.469628     16.37703 
 5198600    228.91512   -420.09947    181563.75   -14687.562    941.64642   -15629.208   -896.99058    4463.7326     77.58395    25.469106    16.374012 
 5198800    226.00196   -353.24891    181563.75   -14734.184    929.66309   -15663.847   -618.83915    4465.4132    77.582818    25.468102    16.377033 
 5199000    224.52821   -345.08498    181563.75   -14702.422    923.60082   -15626.023   -602.99891    4463.2657    77.583383     25.46869    16.380275 
 5199200     222.3116   -321.82523    181563.75    -14708.13    914.48272   -15622.613   -514.84486    4462.2263    77.586781    25.467027    16.369743 
 5199400    225.40637   -371.85471    181563.75   -14740.212    927.21311   -15667.425   -714.39828    4464.1043    77.585703    25.463886    16.368212 
 5199600    229.55636   -288.04525    181563.75   -14742.232     944.2842   -15686.516   -380.36727    4462.4637    77.587238    25.464123    16.369126 
 5199800    227.68604   -325.00034    181563.75   -14683.505    936.59061   -15620.096   -528.54014     4460.317    77.586495    25.462278    16.366372 
 5200000    229.13286   -391.07182    181563.75    -14679.15    942.54211   -15621.692   -748.49734    4463.9307    77.585748    25.461679    16.372997 
Loop time of 6382.93 on 128 procs for 5200000 steps with 9253 atoms

Performance: 703.877 ns/day, 0.034 hours/ns, 814.673 timesteps/s
97.7% CPU use with 128 MPI tasks x no OpenMP threads

MPI task timing breakdown:
Section |  min time  |  avg time  |  max time  |%varavg| %total
---------------------------------------------------------------
Pair    | 0.44173    | 1612       | 5385.6     |4604.7 | 25.26
Neigh   | 4.1838     | 110.52     | 270.17     | 856.9 |  1.73
Comm    | 95.117     | 1130.5     | 4439.7     |3563.4 | 17.71
Output  | 72.184     | 72.266     | 74.303     |   2.2 |  1.13
Modify  | 162.94     | 3371.5     | 6135.2     |4392.0 | 52.82
Other   |            | 86.14      |            |       |  1.35

Nlocal:    72.2891 ave 153 max 0 min
Histogram: 40 1 10 13 0 0 0 26 29 9
Nghost:    703.805 ave 959 max 516 min
Histogram: 26 9 4 33 7 8 9 14 4 14
Neighs:    0 ave 0 max 0 min
Histogram: 128 0 0 0 0 0 0 0 0 0
FullNghs:  7760.86 ave 18511 max 0 min
Histogram: 43 21 0 0 0 0 3 33 20 8

Total # of neighbors = 993390
Ave neighs/atom = 107.359
Neighbor list builds = 513237
Dangerous builds = 0
write_data 		${DIR}/data.${NAME}_run
write_data 		run_15/data.${NAME}_run
write_data 		run_15/data.ibeam_cooling_15_run
Total wall time: 1:46:35
