

### IMPORT ATOMS ###
read_data ../Box_Setup/data.Ibeam_240K
  orthogonal box = (0 0 0) to (157.504 42.9242 26.8557)
  16 by 4 by 2 MPI processor grid
  reading atoms ...
  9253 atoms
  reading velocities ...
  9253 velocities
group water type 2
1381 atoms in group water
group graphite type 1
7872 atoms in group graphite


# Define potential
#
pair_style          sw
pair_coeff * * MLC_e.sw C mW

# Add velocity/set timestep
#

fix		1 graphite setforce 0.0 0.0 0.0
velocity 	graphite set 0.0 0.0 0.0
velocity            water create ${START_TEMP} ${SEED} rot yes dist gaussian
velocity            water create 240 ${SEED} rot yes dist gaussian
velocity            water create 240 15874 rot yes dist gaussian
timestep            5.0

# Define output
#
compute 1 water msd
compute 2 water temp


thermo	            100
thermo_style custom step c_2 press vol etotal ke pe c_1[4] density

# Neighbor lists
#
neigh_modify        delay 0 every 1 check yes


# Set fixes
#
fix                 2 water momentum 10 linear 1 1 1 rescale
fix                 3 all nve
fix                 4 water temp/csvr ${START_TEMP} ${START_TEMP} 500.0 928347
fix                 4 water temp/csvr 240 ${START_TEMP} 500.0 928347
fix                 4 water temp/csvr 240 240 500.0 928347

# Run 0.05 ns equilibration
#
dump                1 all custom 100 ${DIR}/eq.${NAME}.dump id type x y z vx vy vz
dump                1 all custom 100 run_15/eq.${NAME}.dump id type x y z vx vy vz
dump                1 all custom 100 run_15/eq.ibeam_cooling_15.dump id type x y z vx vy vz
run                 10000
Neighbor list info ...
  update every 1 steps, delay 0 steps, check yes
  max neighbors/atom: 2000, page size: 100000
  master list distance cutoff = 6.67472
  ghost atom cutoff = 6.67472
  binsize = 3.33736, bins = 48 13 9
  1 neighbor lists, perpetual/occasional/extra = 1 0 0
  (1) pair sw, perpetual
      attributes: full, newton on
      pair build: full/bin/atomonly
      stencil: full/bin/3d
      bin: standard
Per MPI rank memory allocation (min/avg/max) = 3.359 | 4.246 | 4.732 Mbytes
Step c_2 Press Volume TotEng KinEng PotEng c_1[4] Density 
       0          240   -344.39513    181563.75    -13284.54    987.24429   -14271.784            0    1.0922001 
     100    233.67741   -352.05178    181563.75    -13248.01     961.2362   -14209.246   0.89726102    1.0922001 
     200    237.24885   -412.36159    181563.75   -13289.586     975.9274   -14265.513    1.2804008    1.0922001 
     300    246.86639   -303.56772    181563.75   -13277.843    1015.4893   -14293.332    1.7073213    1.0922001 
     400    241.24215   -317.51313    181563.75   -13297.182    992.35388   -14289.536    2.0791649    1.0922001 
     500    234.28748   -381.59065    181563.75   -13296.487    963.74575   -14260.233    2.6701028    1.0922001 
     600    230.66041   -207.92561    181563.75   -13371.914    948.82571   -14320.739    3.0063054    1.0922001 
     700    241.40528   -321.92185    181563.75   -13359.462    993.02495   -14352.487    3.2136619    1.0922001 
     800    227.16686   -350.82361    181563.75   -13393.508    934.45493   -14327.963    3.6069856    1.0922001 
     900    237.34426   -430.62798    181563.75   -13355.308    976.31985   -14331.627    3.9017692    1.0922001 
    1000    241.00472   -310.13555    181563.75   -13312.995    991.37721   -14304.372    4.5367173    1.0922001 
    1100    233.93314   -338.70249    181563.75   -13329.775    962.28816   -14292.063    4.7637591    1.0922001 
    1200    232.26258   -334.83076    181563.75   -13367.058    955.41627   -14322.474    4.9084345    1.0922001 
    1300    243.28765    -283.5443    181563.75   -13330.347    1000.7681   -14331.115    5.2067607    1.0922001 
    1400     249.4742   -260.57455    181563.75   -13281.722    1026.2166   -14307.939    5.6303866    1.0922001 
    1500    245.62363   -394.53604    181563.75   -13305.035    1010.3772   -14315.413    6.2044295    1.0922001 
    1600    249.55029   -291.66777    181563.75   -13290.553    1026.5296   -14317.083    6.7992613    1.0922001 
    1700    240.73577   -375.35355    181563.75   -13305.325    990.27088   -14295.596    7.2885189    1.0922001 
    1800    242.50156   -286.60024    181563.75    -13315.21    997.53448   -14312.744    7.6996177    1.0922001 
    1900    241.17672   -303.68629    181563.75   -13256.681    992.08476   -14248.765    8.0033612    1.0922001 
    2000    254.02098   -248.96722    181563.75   -13231.576    1044.9198   -14276.496    8.5151671    1.0922001 
    2100    248.36247   -223.45701    181563.75   -13241.634    1021.6434   -14263.277    9.0060537    1.0922001 
    2200    249.82528   -227.53056    181563.75   -13236.128    1027.6608   -14263.789    9.4689204    1.0922001 
    2300    242.85666    -354.0456    181563.75   -13294.937     998.9952   -14293.932      9.84223    1.0922001 
    2400    241.85336   -416.42456    181563.75   -13298.034    994.86811   -14292.903    10.605452    1.0922001 
    2500    241.09328   -392.79264    181563.75   -13286.797    991.74151   -14278.539    11.273716    1.0922001 
    2600    233.08072   -244.72254    181563.75   -13315.742    958.78171   -14274.524    11.615561    1.0922001 
    2700    242.03336   -287.75454    181563.75   -13290.264    995.60857   -14285.872    11.909888    1.0922001 
    2800    243.61962    -248.6885    181563.75   -13298.579    1002.1337   -14300.713    11.937427    1.0922001 
    2900    240.59519   -257.26458    181563.75   -13356.999    989.69261   -14346.692    12.240087    1.0922001 
    3000    238.12179   -265.62223    181563.75   -13371.563    979.51823   -14351.081    12.389998    1.0922001 
    3100    240.40747   -348.58121    181563.75   -13364.059    988.92043    -14352.98    12.959336    1.0922001 
    3200     238.1726   -398.11847    181563.75   -13378.916    979.72726   -14358.643    13.376343    1.0922001 
    3300     235.7388    -262.9924    181563.75   -13332.959    969.71575   -14302.675    13.681722    1.0922001 
    3400    238.39152    -400.4816    181563.75    -13342.77    980.62776   -14323.398    14.081737    1.0922001 
    3500    238.64055   -336.68874    181563.75    -13332.49    981.65219   -14314.143    14.570885    1.0922001 
    3600    244.02495   -353.79484    181563.75   -13312.497     1003.801   -14316.298      15.0735    1.0922001 
    3700    244.88144   -387.35449    181563.75    -13357.53    1007.3242   -14364.854    15.377784    1.0922001 
    3800    240.12902   -216.60439    181563.75   -13341.727    987.77503   -14329.502    15.591375    1.0922001 
    3900    236.60292   -442.55144    181563.75    -13360.65    973.27032   -14333.921    15.826674    1.0922001 
    4000    240.71738     -307.483    181563.75   -13373.308    990.19523   -14363.503    15.820968    1.0922001 
    4100    242.41847   -232.42454    181563.75   -13339.042    997.19271   -14336.234    15.588278    1.0922001 
    4200    244.79713   -388.33429    181563.75   -13305.158    1006.9774   -14312.135    15.989542    1.0922001 
    4300    252.66682   -223.35061    181563.75   -13232.394    1039.3495   -14271.744    16.178612    1.0922001 
    4400    236.61981   -245.90167    181563.75   -13247.316    973.33983   -14220.656    16.731299    1.0922001 
    4500    240.74005   -359.37182    181563.75   -13302.641    990.28849   -14292.929    16.871799    1.0922001 
    4600    234.76521   -385.65718    181563.75   -13310.369    965.71087    -14276.08    17.354928    1.0922001 
    4700    240.42123   -349.48035    181563.75   -13307.783    988.97701    -14296.76     17.74862    1.0922001 
    4800    239.01692    -233.7281    181563.75   -13287.279    983.20038    -14270.48    18.121913    1.0922001 
    4900    243.93621   -269.44068    181563.75   -13321.479    1003.4359   -14324.915    18.397004    1.0922001 
    5000    238.18799   -525.93138    181563.75   -13342.752    979.79055   -14322.543    18.607256    1.0922001 
    5100    233.19909   -551.24172    181563.75   -13349.764    959.26864   -14309.032     19.07493    1.0922001 
    5200    248.29909    -359.0146    181563.75   -13333.514    1021.3827   -14354.897    19.634648    1.0922001 
    5300    230.74337   -272.10184    181563.75   -13372.282    949.16699   -14321.449     20.01312    1.0922001 
    5400     240.8366   -354.21566    181563.75   -13329.955    990.68567   -14320.641       20.481    1.0922001 
    5500    229.85791    -461.2096    181563.75   -13352.638    945.52463   -14298.162    20.639674    1.0922001 
    5600    234.20479   -394.58491    181563.75   -13365.352     963.4056   -14328.758    20.930274    1.0922001 
    5700    244.94004   -296.39883    181563.75   -13326.747    1007.5652   -14334.312    20.674369    1.0922001 
    5800    247.71532   -155.42941    181563.75   -13272.696    1018.9814   -14291.677    20.339545    1.0922001 
    5900    244.66256   -145.55232    181563.75   -13302.833    1006.4238   -14309.257    20.642939    1.0922001 
    6000    239.84305   -257.56673    181563.75   -13379.976    986.59866   -14366.574     20.81056    1.0922001 
    6100    236.42041   -398.89358    181563.75   -13366.217    972.51958   -14338.736    21.241071    1.0922001 
    6200    232.52742   -304.93122    181563.75   -13342.789    956.50569   -14299.294    21.432027    1.0922001 
    6300    229.41606   -403.01903    181563.75    -13306.39    943.70705   -14250.097     21.88288    1.0922001 
    6400    239.29892   -317.83794    181563.75    -13307.42    984.36039   -14291.781    22.535251    1.0922001 
    6500    240.96895   -199.81819    181563.75   -13323.339    991.23009   -14314.569    22.586418    1.0922001 
    6600    231.79479   -405.14631    181563.75   -13373.585    953.49201   -14327.077    22.534329    1.0922001 
    6700    227.84874   -215.84167    181563.75   -13397.641    937.25986     -14334.9    22.995874    1.0922001 
    6800    236.55676   -384.28318    181563.75   -13379.959    973.08046   -14353.039    23.469676    1.0922001 
    6900    221.06066   -402.48262    181563.75   -13410.642    909.33697   -14319.979    24.097139    1.0922001 
    7000    239.09711   -307.02504    181563.75   -13407.488    983.53025   -14391.019    24.259517    1.0922001 
    7100    247.66931   -394.63181    181563.75   -13331.959    1018.7921   -14350.751    24.660627    1.0922001 
    7200    246.28435   -308.82027    181563.75   -13346.124    1013.0951   -14359.219    24.674678    1.0922001 
    7300     236.2089   -431.32161    181563.75   -13401.127    971.64953   -14372.777    24.637436    1.0922001 
    7400    236.31546   -375.97225    181563.75   -13414.506    972.08788   -14386.594    24.727663    1.0922001 
    7500    227.50435   -412.44676    181563.75   -13425.928     935.8432   -14361.772    24.862695    1.0922001 
    7600    235.65312   -418.10746    181563.75   -13443.365    969.36331   -14412.728    25.026549    1.0922001 
    7700    241.49934   -287.24938    181563.75   -13429.457    993.41187   -14422.869    25.000849    1.0922001 
    7800    233.63616   -310.40733    181563.75    -13389.26     961.0665   -14350.326    25.306535    1.0922001 
    7900     242.0099   -411.90004    181563.75   -13391.798    995.51206    -14387.31    25.631332    1.0922001 
    8000    244.14922   -345.87437    181563.75   -13393.337    1004.3122   -14397.649    25.929087    1.0922001 
    8100    236.33634   -334.41154    181563.75   -13407.222    972.17375   -14379.396    26.026432    1.0922001 
    8200    236.17912   -523.19701    181563.75   -13432.919    971.52705   -14404.446    26.363084    1.0922001 
    8300    229.62928   -505.23213    181563.75   -13433.533    944.58414   -14378.117    26.732814    1.0922001 
    8400    236.34947   -434.75924    181563.75   -13430.312    972.22777    -14402.54    27.039233    1.0922001 
    8500    236.80903   -194.97411    181563.75   -13414.494    974.11816   -14388.612    27.445439    1.0922001 
    8600    238.89906   -380.79096    181563.75   -13384.647    982.71553   -14367.362    28.022422    1.0922001 
    8700    239.04357   -372.73435    181563.75   -13441.184    983.30998   -14424.494    28.243524    1.0922001 
    8800    244.37483   -374.74306    181563.75   -13384.882    1005.2402   -14390.122    28.053152    1.0922001 
    8900    234.30015   -292.71743    181563.75   -13409.304    963.79784   -14373.102    27.966798    1.0922001 
    9000    236.54862   -271.01016    181563.75   -13374.702    973.04698   -14347.749    28.000122    1.0922001 
    9100    240.75725   -311.73648    181563.75    -13364.97    990.35924   -14355.329    28.649764    1.0922001 
    9200    240.16328   -379.05942    181563.75   -13399.864    987.91593    -14387.78    29.038656    1.0922001 
    9300    239.89671   -373.17364    181563.75   -13412.648    986.81939   -14399.467    29.401657    1.0922001 
    9400    239.93484   -398.21014    181563.75    -13413.95    986.97623   -14400.926    29.306661    1.0922001 
    9500    237.85613   -403.82291    181563.75   -13404.275    978.42545     -14382.7    29.175485    1.0922001 
    9600    230.13084   -364.12222    181563.75   -13464.061    946.64732   -14410.708    29.323091    1.0922001 
    9700    243.63126   -178.64956    181563.75   -13418.049    1002.1815   -14420.231     29.40905    1.0922001 
    9800    239.12329   -272.66838    181563.75   -13456.623    983.63793   -14440.261    29.697872    1.0922001 
    9900    242.60359   -361.51331    181563.75   -13414.472     997.9542   -14412.427    30.041067    1.0922001 
   10000    243.69311   -340.26977    181563.75   -13370.837     1002.436   -14373.273    30.488993    1.0922001 
Loop time of 12.6563 on 128 procs for 10000 steps with 9253 atoms

Performance: 341.332 ns/day, 0.070 hours/ns, 790.120 timesteps/s
97.6% CPU use with 128 MPI tasks x no OpenMP threads

MPI task timing breakdown:
Section |  min time  |  avg time  |  max time  |%varavg| %total
---------------------------------------------------------------
Pair    | 0.00081491 | 3.4137     | 10.494     | 215.9 | 26.97
Neigh   | 0.0044849  | 0.12023    | 0.30446    |  27.9 |  0.95
Comm    | 0.17683    | 1.988      | 8.5098     | 162.8 | 15.71
Output  | 0.15782    | 0.15797    | 0.16489    |   0.2 |  1.25
Modify  | 0.29516    | 6.84       | 12.188     | 197.8 | 54.04
Other   |            | 0.1364     |            |       |  1.08

Nlocal:    72.2891 ave 151 max 0 min
Histogram: 40 0 8 16 0 0 0 22 32 10
Nghost:    704.805 ave 963 max 516 min
Histogram: 26 12 2 32 12 4 7 15 2 16
Neighs:    0 ave 0 max 0 min
Histogram: 128 0 0 0 0 0 0 0 0 0
FullNghs:  7803.55 ave 18524 max 0 min
Histogram: 43 21 0 0 0 0 3 32 20 9

Total # of neighbors = 998854
Ave neighs/atom = 107.949
Neighbor list builds = 551
Dangerous builds = 0
write_data 	    ${DIR}/data.${NAME}_eq
write_data 	    run_15/data.${NAME}_eq
write_data 	    run_15/data.ibeam_cooling_15_eq

undump              1
unfix               4



################################################
#######         Run Simulation         #########
################################################

reset_timestep      0
timestep	    10.0
log                 ${DIR}/log.run_${NAME}
log                 run_15/log.run_${NAME}
log                 run_15/log.run_ibeam_cooling_15
