LAMMPS data file via write_data, version 7 Aug 2019, timestep = 5000000

4104 atoms
1 atom types

8.2610978559326753e-02 5.1337389021420648e+01 xlo xhi
8.2610978559326753e-02 5.1337389021420648e+01 ylo yhi
8.2610978559326753e-02 5.1337389021420648e+01 zlo zhi

Masses

1 18.15

Atoms # atomic

493 1 3.0482861903645215e+00 2.6215200790511726e+00 2.6702574119851454e+00 -1 -1 -2
645 1 3.7849616892732768e-01 2.2477129135102754e+00 1.6612706120501926e+00 -2 2 1
936 1 4.9652619316983069e+00 1.8659755574001795e+00 8.5193105665632962e-01 0 1 -1
3268 1 1.1262216246927142e+01 1.7104500573554453e+00 2.3862841313167684e+00 0 -1 1
697 1 1.3802597457877313e+01 2.7034624854640033e+00 2.3920241007459691e+00 -1 2 1
2543 1 1.5174819656703145e+01 4.7872653894161749e-01 2.8743847590245970e+00 -1 2 -1
783 1 5.9308489825045774e-01 1.9920836464067161e+01 1.1991098243607794e+01 0 -2 0
2637 1 2.0076473018008095e+01 2.9743066187161289e+00 2.8148678662320017e+00 0 0 2
1032 1 2.1467352979599365e+01 7.0035643211699528e-01 3.5002829335319459e+00 2 1 -1
2926 1 2.4501002808566327e+01 2.6550010436504881e+00 1.6449192524483196e+00 1 2 1
528 1 2.3724489234821991e+01 1.5115419547747007e+00 4.0138632513630306e+00 0 0 1
1688 1 3.2512401474279002e+00 5.2335223194151386e+00 3.2626275257142017e+00 1 2 1
160 1 2.4644243318824817e+01 3.5200030771999186e-01 8.7189668987783833e+00 0 0 0
3244 1 5.7683035276236243e+00 5.4174349088525595e+00 3.6236319933284826e+00 2 2 1
1898 1 6.7127111244873152e+00 3.7435098674041964e+00 1.4350348114682898e+00 -1 0 -1
211 1 9.4183405120476724e+00 3.6684184503931623e+00 1.4971530771364356e+00 1 0 1
1358 1 9.7926804607871087e+00 5.6777460256408281e+00 3.3853247489776459e+00 -1 -1 2
1916 1 1.7669255994955815e+01 6.4069101192785087e+00 1.7458550625266269e+00 0 0 0
1847 1 2.1535704908475250e+01 4.9507423805460480e+00 2.3486662432983900e+00 -1 -1 1
2780 1 1.7000601738064766e+01 3.5564109622423234e-01 9.0337540088575197e-01 -2 1 1
3656 1 2.5119949950720675e+00 6.7695184336737304e+00 1.3187959832552711e+00 0 1 0
2399 1 3.3633279852172704e+00 9.3030109148927309e+00 2.3072164078144883e+00 2 -1 2
2073 1 8.6332375549781286e+00 8.7793488680443375e+00 1.3931630066518328e+00 3 -1 -1
3562 1 7.5113344284261769e+00 7.2678841546447304e+00 3.8304362708117088e+00 2 1 2
1104 1 1.1313110789116214e+01 9.5661424425950781e+00 1.6946800783938705e+00 2 1 -1
727 1 1.3450806109012971e+01 7.8633406878123173e+00 1.1393111650735481e+00 -1 0 3
1624 1 1.5903232080487467e+01 8.6141416277021357e+00 1.5757803765174636e+00 0 0 1
674 1 2.0213551503583851e+01 7.3110232990633506e+00 1.7503814210305466e+00 -1 -4 1
4061 1 8.5353399741428293e-01 1.2559698688499918e+01 1.2642200365683998e+00 2 0 1
720 1 2.9576357680020018e+00 1.1186536985657092e+01 5.7314686476310284e-01 0 1 1
959 1 6.0426384326840958e+00 9.8283443113014926e+00 2.6723498575210840e+00 0 1 -1
618 1 1.5260686512469649e+01 2.5499334277143195e+01 3.2965676698640038e+00 0 -1 0
3757 1 1.5790178248376629e+01 1.0903868010765057e+01 3.2620598124760041e+00 0 0 1
433 1 1.4326459749998719e+01 1.2772391492768916e+01 1.9981815912145462e+00 1 -4 2
3560 1 1.8366034939350239e+01 1.1756900623894889e+01 3.3596158029158136e+00 0 1 1
3889 1 1.9334603349153404e+01 1.2468641688441195e+01 9.8456778842570503e-01 1 0 0
1835 1 2.2952558098106671e+01 1.1152400180519731e+01 1.5641187484399761e+00 1 0 0
3653 1 5.6988575625091347e+00 1.3597726934161892e+01 2.5903411193310659e+00 1 1 -1
1968 1 8.2890176041732282e+00 1.4345383488740447e+01 1.9429141502197544e+00 1 0 1
1294 1 1.0551396547016843e+01 1.4747846903921886e+01 3.2591140902110998e+00 -2 -1 1
2353 1 1.5812222608964747e+01 1.4847335184399643e+01 1.9272762162422332e+00 0 1 1
2162 1 2.1712105963556734e+01 1.3701954240884277e+01 1.0365579501529045e+00 1 1 -1
4063 1 2.1657830816235791e+01 1.5415325473321005e+01 3.1165318415095125e+00 -2 0 1
1378 1 1.1247511528825245e+00 1.8743256662158391e+01 2.8092556341558526e+00 -2 1 1
496 1 3.1845615958965361e+00 1.7028658053907328e+01 1.7817104195444831e+00 1 1 0
2658 1 5.4099006856589744e+00 1.8308068228708905e+01 1.8580699951241233e+00 2 -1 0
563 1 7.4823608011769691e+00 1.6895040564932977e+01 5.9671512143769367e-01 0 0 1
228 1 1.0328982378316889e+01 1.9650305357098382e+01 2.8973540716991106e+00 1 -1 0
608 1 8.1690068786719525e+00 2.1939087067760518e+01 1.6953013921507488e+01 0 -1 2
908 1 1.0103679275028551e+01 1.8296287136798089e+01 3.5745683505422665e-01 2 0 0
2977 1 1.3848014028609045e+01 1.6702326141850730e+01 1.3305035973342769e+00 0 -1 3
61 1 1.4226256818960728e+01 1.8421638341460753e+01 3.2633160548705189e+00 0 2 0
1071 1 1.8471673441186681e+01 2.6201214038248319e+00 5.9331892775714201e-01 -1 1 0
1058 1 2.0116679329773202e+01 1.7435128966351336e+01 2.3886835605634027e+00 -1 0 -1
2238 1 2.4197744639953054e+01 1.5948460795946101e+01 3.4643813655605942e+00 1 2 1
1376 1 2.4945342794037277e+01 1.7248174479388624e+01 9.4713638377149245e-01 0 2 -1
2840 1 1.3927136374101881e+00 2.0455106810764764e+01 8.0145746540155149e-01 -1 1 1
300 1 3.1252501924832301e+00 2.2249342499828874e+01 7.3534296239997243e-01 -2 -1 1
2330 1 2.3202571371785105e+01 4.7290054625168763e+00 4.2530699791797943e-01 0 -1 -1
3350 1 1.2989046572919360e+01 2.0945728004982236e+01 2.8289682856337688e+00 2 0 0
183 1 1.7858867863320793e+01 2.0955420112727513e+01 1.0610597116989129e+00 0 0 2
171 1 1.6475995579073697e+01 1.9881536614614550e+01 3.3397972243336702e+00 1 -1 2
3440 1 2.1556653080587758e+01 1.9773891566106549e+01 2.1771251806227299e+00 2 -1 0
4055 1 1.9898375946072306e+01 2.1865998822943080e+01 2.1393770520153010e+00 1 -1 -1
1171 1 6.3160266920215218e+00 2.4613168002023773e+01 2.8525628017134803e+00 0 2 0
1517 1 8.3211749534807335e+00 2.3085867265199525e+01 1.8811237507739893e+00 1 1 0
2344 1 1.2678817389058347e+01 2.2737412529265267e+01 9.5595415373715176e-01 0 0 0
695 1 1.0517593554389244e+01 2.4686597423123921e+01 1.7051489244568334e+00 -1 -2 1
3032 1 1.4800516947035824e+01 2.4400613899449173e+01 7.6569742260028295e-01 0 0 1
488 1 2.6912924725687701e+00 1.6857062111129693e+01 1.6719617639726589e+01 0 0 0
1723 1 2.5636949471055324e+01 2.3018441537486861e+01 6.3283564546264408e+00 1 0 0
1110 1 2.1225114442766756e+01 2.3917492070260405e+01 9.8883836444144069e-01 1 0 0
3415 1 2.2621118994173866e+01 2.4545557849333242e+01 3.2245436760338362e+00 0 0 1
2670 1 2.1489070337910774e+00 1.2837918759019595e+00 6.6753217633710360e+00 2 1 -2
3979 1 3.5155518681785907e+00 5.8735209302345825e-01 4.4430407689902589e+00 0 0 2
1013 1 6.0307652503027533e+00 1.3087583696147158e+00 5.3463351157524084e+00 2 3 0
3533 1 1.0260970127866218e+01 5.9477280075861416e-01 4.5498046796354581e+00 2 3 1
1166 1 1.0895294692962800e+01 2.5363963777400387e+00 6.4951703273003432e+00 -1 0 0
1121 1 1.4148282923902126e+01 1.3986729694581639e+00 7.0938311904638915e+00 2 0 0
1666 1 1.6395463855759456e+01 1.0393810414955222e+00 5.1469913642355607e+00 -2 0 2
3832 1 1.7905893781162359e+01 3.1606202705286215e+00 4.8441242796369535e+00 -2 0 1
1573 1 2.0694712870949727e+00 5.2139367873968734e+00 5.7405945912081533e+00 1 0 0
746 1 6.3521123498902892e+00 3.9464618758162602e+00 5.6056215366899353e+00 0 -2 2
2657 1 9.4078624560720652e+00 4.5971013992424696e+00 5.7702825952527332e+00 2 -2 1
2332 1 1.2258438246018992e+01 6.7068045840087835e+00 3.5258464433101264e+00 0 1 -1
3321 1 1.3202871695960621e+01 3.7939293107302232e+00 6.3170027101755384e+00 3 -1 -1
2609 1 1.4222214864609301e+01 4.6944742182419850e+00 4.0355865169476637e+00 0 0 0
672 1 1.6927950551566891e+01 5.5625196219910711e+00 4.2985689125371067e+00 -2 1 1
3926 1 2.2384120973422014e+01 5.8424674585866265e+00 4.6433871564551650e+00 1 0 1
3457 1 2.4008595161662818e+01 3.7199022153172869e+00 5.6514172120205837e+00 1 -1 -2
1346 1 1.9284424687421338e+00 9.4779916248653144e+00 4.7561115954497897e+00 1 1 0
844 1 2.2704130275164198e+00 7.7828130729025418e+00 6.6409884648532476e+00 -2 -1 1
3034 1 7.2984518316360933e+00 8.0407703456028887e+00 6.4058714424834760e+00 1 3 2
363 1 1.2661034555439679e+01 8.5785879096403921e+00 5.4609386602933512e+00 -2 1 1
22 1 1.5262045156960063e+01 9.5058738848520417e+00 5.4670418721326293e+00 0 1 0
3966 1 1.6734593549967823e+01 7.3598038494580456e+00 6.1509134186210748e+00 -1 0 -1
209 1 1.9226830016161472e+01 8.3217354896597637e+00 6.1902243328457960e+00 -1 2 1
913 1 2.0583300125657988e+01 6.0504667359791222e+00 6.8102528966696676e+00 1 -1 3
3673 1 1.9838880887939649e+01 9.2914574916998358e+00 3.7229654175090121e+00 1 1 2
3000 1 2.4075853746919964e+01 8.3318943073628198e+00 4.6194815207388631e+00 2 0 -1
3344 1 4.8960549122357779e+00 2.4874524659297212e+01 1.6328513168816848e+01 1 -1 0
473 1 1.9659483493757903e+00 1.1928090860117951e+01 5.5689238383257669e+00 3 0 -1
1856 1 4.4977614986543566e+00 1.2060753118584973e+01 6.7350942811218557e+00 0 3 0
3302 1 6.4132940986731377e+00 1.1796400706120265e+01 4.5094492744760899e+00 2 2 0
36 1 9.2038352077069430e+00 1.0158281635946143e+01 6.1889758070148453e+00 1 1 0
4088 1 1.1020200100313083e+01 1.0545913906740216e+01 3.9391581917799714e+00 -1 2 3
3234 1 1.5375851717390418e+01 1.1347947973434708e+01 7.4262518197865006e+00 1 0 1
2540 1 2.2304038685098345e+01 1.0314605099243325e+01 4.0288223285523159e+00 1 0 0
2119 1 2.2863171850320317e+01 1.2096720455704753e+01 5.8648059281365983e+00 0 -1 0
1170 1 2.8759880509220221e+00 2.4962698339248263e+01 1.4670270225755985e+01 -1 -1 1
2356 1 1.2966002354344563e+00 1.3691793515587465e+01 3.7297801139228213e+00 0 0 0
1527 1 3.5331633725401921e+00 1.5058695285611376e+01 3.5736393516229530e+00 1 0 2
67 1 8.5913523180976448e+00 1.3109438392737513e+01 5.1273071678344069e+00 0 1 -1
1117 1 8.3171451470021101e+00 1.5215824362634304e+01 6.4109134079750216e+00 -1 2 3
3602 1 1.2362909781539285e+01 1.2667343130417340e+01 3.9765905234743539e+00 1 1 3
970 1 1.3473516449291704e+01 1.2870547176032179e+01 6.4190345030406624e+00 1 -1 1
163 1 1.5075942728510739e+01 1.5442382602776787e+01 6.3542352039406733e+00 0 1 1
288 1 1.8406864527434095e+01 1.3536612975360436e+01 5.3200164307165050e+00 1 -1 -1
1767 1 1.6996885791345345e+01 1.5390909942701464e+01 4.3873821927563208e+00 0 1 1
2317 1 2.1132079433157518e+01 1.4245103876811118e+01 5.3616225048411863e+00 1 0 1
3986 1 2.6342525442370750e+00 2.2469750539381678e+01 1.3933163134562092e+01 1 1 -1
1443 1 4.4657452814653062e+00 1.6328148032435685e+01 5.9267169825384451e+00 1 1 0
825 1 6.8735489653412394e+00 1.7688698476270940e+01 6.4256689389436863e+00 1 0 0
1765 1 1.0863992957678729e+01 1.7160166367268531e+01 4.6618373520655449e+00 3 -1 3
559 1 1.3359624854846565e+01 1.7679510798101369e+01 5.7989780234539605e+00 2 1 -1
2629 1 1.8160103478578861e+01 1.7568054410269824e+01 4.1785224021214411e+00 -1 -1 3
2929 1 1.9924833719860054e+01 1.8322933280741246e+01 6.4475835921721067e+00 0 -1 3
289 1 2.4922334491765021e+01 1.8057954365293483e+01 5.1446585083166951e+00 -1 1 -1
2545 1 2.0171594049988144e+00 1.9756627853370020e+01 5.0486756042199410e+00 1 0 0
1746 1 6.6885288322750167e+00 1.9283646525157739e+01 4.1095697048633957e+00 0 1 2
1879 1 4.6240643634018408e+00 2.0931728031635604e+01 4.5231824497476119e+00 2 1 2
397 1 8.5853302908834515e+00 2.1182666407564405e+01 3.9586873528056961e+00 1 -1 0
2274 1 9.5319400889045536e+00 2.1731314430978987e+01 6.3420831079582465e+00 3 1 -2
1278 1 1.3272702224531253e+01 2.2007379764910230e+01 5.5483261924452068e+00 1 0 -1
680 1 1.7287817211748852e+01 2.1642759475587273e+01 5.2177997992860137e+00 -3 0 0
2767 1 2.1231337882060540e+01 2.0395925977387083e+01 5.9951619295524967e+00 -1 2 1
582 1 1.9811028999779360e+01 2.2142525828328058e+01 4.8669151847051975e+00 0 -1 1
2499 1 2.3175791088571600e+01 2.0027828882697953e+01 4.3327893353463205e+00 1 0 0
649 1 1.1416424512876230e+01 1.5978773849856182e+01 8.5521904890615519e-01 3 0 0
3790 1 1.9385996126616947e+00 2.4766312556693418e+01 4.1254751352330397e+00 2 2 0
876 1 3.8716488898443826e+00 2.3237959798916460e+01 2.9405997824711818e+00 0 1 2
2163 1 1.1567191175428928e+01 2.3674346130829658e+01 6.4002587620615996e+00 -1 -2 0
914 1 2.5529059966200826e+01 8.3185582172112547e+00 6.9034170340035645e+00 0 -1 3
2064 1 1.5526584922985903e+01 2.3677581249055734e+01 5.4271460657495716e+00 0 0 1
3016 1 2.0499045031395575e+01 2.4658423264775987e+01 5.0702821679148151e+00 0 0 2
3803 1 2.4392834908237720e+01 2.2402002440067108e+01 4.0751597022278698e+00 -1 -1 0
1611 1 2.6126904975650471e+00 3.4152964504924723e+00 7.7282677843694332e+00 2 1 2
1061 1 7.3777718727829535e+00 9.6184034133188778e-01 7.7115345530236308e+00 0 1 2
593 1 9.6765727887253927e+00 1.7752685797996155e+00 8.5750662359713257e+00 -1 -3 -1
1185 1 1.5824840903975351e+01 1.8564868692126768e+00 9.2253904341250355e+00 0 0 1
1727 1 2.6025526829445444e-01 1.6503398077907001e+01 6.6790269639140796e+00 2 0 0
320 1 2.0339232245171477e+01 1.9727775424489613e+00 8.2245250111496713e+00 -1 2 0
2084 1 1.9840435645125240e+01 5.5720526684319260e-01 1.0507728097012212e+01 2 1 1
771 1 2.5499318850977339e+01 1.4603717021619886e+01 7.9549872966060766e+00 -2 0 -1
152 1 2.2967093979512665e+01 2.7799666854456153e+00 8.0848607508565014e+00 0 1 1
3080 1 3.6820481245213871e-01 4.0085465805498153e+00 9.3746058095884273e+00 1 1 1
980 1 5.2728947475423595e+00 3.6151726439332452e+00 8.2745896388023397e+00 0 2 1
1626 1 5.4239758107087841e+00 5.9144125504632177e+00 9.5843455218870623e+00 1 0 2
2263 1 8.1637746258523070e+00 6.1513355408317834e+00 1.0077819642539469e+01 0 0 0
2462 1 9.7131277125486744e+00 3.9077902264855791e+00 1.0362291479034278e+01 0 0 -1
3884 1 1.2551766595992323e+01 4.3371510607992230e+00 1.0689584568801170e+01 1 2 0
1305 1 1.3285047731724635e+01 5.8240959646073689e+00 8.3789049694071984e+00 -1 1 3
94 1 1.7350614043273733e+01 4.3394251313359167e+00 9.3242271969190966e+00 0 2 0
3887 1 1.5931764385417553e+01 6.5513303080371577e+00 8.4786487138716513e+00 0 2 1
4086 1 1.9019376788936626e+01 4.1505981674583792e+00 7.3152360970300707e+00 1 2 2
1405 1 2.3306469746830079e+01 4.7533773955125929e+00 9.8444314294113031e+00 -1 2 1
309 1 4.6762367688545664e-01 8.1287307346459006e+00 8.7054261631437875e+00 0 -1 0
1878 1 4.7902703969583316e+00 7.8775064762247036e+00 7.7486418059455016e+00 0 0 1
2134 1 9.2167937552296024e+00 6.7182278532034623e+00 7.5334027233694885e+00 0 -2 0
223 1 1.1578383454873238e+01 7.8717556541693332e+00 7.6113445777061317e+00 0 0 1
376 1 1.1913192207658577e+01 1.0049963983682652e+01 9.6912256952443805e+00 -3 -1 -1
257 1 1.6147218486913960e+01 8.3709278705677139e+00 1.0372886997638629e+01 0 1 -2
1984 1 1.8478621196085314e+01 9.4579640531436038e+00 1.0530336181552167e+01 -1 -1 0
2817 1 2.1647232232042580e+01 6.8302004849526377e+00 9.2954012499319454e+00 1 -2 0
2405 1 2.3606479680032994e+01 8.8574311788886657e+00 9.1294464005805551e+00 -1 0 0
2111 1 9.7706887422112187e-01 1.0562043316550694e+01 9.6798147181417864e+00 2 -1 -1
791 1 6.5332538478637980e-01 1.2387661245438204e+01 7.6982773960044506e+00 1 -1 1
3999 1 5.2572298365622325e+00 1.0335498856176814e+01 8.6885003268372376e+00 0 0 3
2547 1 7.6469042023239400e+00 1.0613241020980370e+01 1.0014178259539316e+01 1 -1 1
3811 1 9.7982715155534947e+00 1.1634377535585260e+01 8.7243696340159698e+00 1 2 0
2954 1 1.4509012088936691e+01 1.0534904638673632e+01 9.6769271502362209e+00 1 2 2
3555 1 1.7895340443264207e+01 1.2239607660466369e+01 7.5329942893455106e+00 1 -1 0
1433 1 1.9465513477294028e+01 1.0144709726191300e+01 8.1583077500183219e+00 2 0 0
842 1 2.2156357225356700e+01 1.1159192756349482e+01 8.3394474487819821e+00 1 -1 2
1464 1 3.2445734989847135e+00 1.4959356565285706e+01 9.6098611693694860e+00 0 0 2
4032 1 8.0986878447150901e-01 1.4613434390978112e+01 8.8293077354611640e+00 2 0 0
3904 1 5.0472200932353877e+00 1.4550148792822895e+01 7.6833829968650749e+00 0 -1 2
1264 1 7.5821632329254305e+00 1.3880510240969910e+01 8.8766778182785853e+00 1 -1 0
334 1 1.1997260600251357e+01 1.3616575184828632e+01 8.5061429137775892e+00 1 -1 -1
3878 1 1.3473767862921129e+01 1.4455981709059321e+01 1.0801220001033027e+01 -1 2 2
1826 1 1.8395519959286563e+01 1.4288778275835540e+01 9.2314229185580885e+00 -2 1 1
2576 1 2.2331165550831678e+01 1.2780183821019149e+01 1.0197306608932866e+01 -2 -1 0
3390 1 2.1028131473601277e+01 1.5241211022709813e+01 9.6568189583679587e+00 1 -1 0
3517 1 2.4877741036225732e+01 1.3388944944199251e+01 1.0449590725980539e+01 -2 2 3
3243 1 1.0818479085240437e+01 2.3577364550737869e+01 1.4801797332160731e+01 -1 -1 -1
1118 1 2.5055493274240344e+00 1.7843666627709062e+01 7.0899549676353368e+00 1 -1 -1
4025 1 1.0856116395723641e+01 1.5825437394785890e+01 7.3231150447826590e+00 -3 2 3
1849 1 1.0634156896600807e+01 1.7540778962174265e+01 9.4426805330751566e+00 -1 1 1
52 1 1.3082441797825927e+01 1.8576140257382058e+01 9.9922224856402480e+00 -2 0 0
1874 1 1.4782679737449390e+01 1.6695218961174490e+01 1.0425330062977174e+01 1 2 1
1142 1 1.6460930621610363e+01 1.6123264336831205e+01 8.5815485580784667e+00 0 2 1
3465 1 1.7979336813107384e+01 1.8369649579367781e+01 8.2628120270010914e+00 0 2 0
2210 1 2.1480775770507755e+01 1.6186836557968530e+01 7.1127512734320337e+00 1 -1 2
2766 1 2.4036030497099564e+01 1.6896432728999869e+01 7.4953805500584085e+00 2 -1 1
1446 1 2.4092909026706373e+01 1.9052232056536109e+01 9.1196408671820137e+00 0 -1 1
2120 1 1.3542939310122917e+00 1.9910950374882361e+01 9.3418456821939184e+00 1 -1 2
2437 1 3.3518788452189590e+00 2.1781602503116027e+01 9.0624413565288560e+00 0 3 -1
921 1 5.3663623466633092e+00 2.1887583830891003e+01 6.9874686444028917e+00 -1 0 3
170 1 6.5025347812825611e+00 1.9608608774731998e+01 8.2587543954975651e+00 0 -1 0
594 1 9.2944375546138378e+00 1.9757170645286095e+01 8.4325933489499185e+00 0 -1 0
2951 1 1.3994693082177497e+01 1.9655623129564354e+01 7.4848726784547015e+00 2 0 1
1210 1 1.6505602764440976e+01 2.0535845933509105e+01 7.6188438862510059e+00 0 2 -1
2912 1 2.0853087915736818e+01 2.1285390244071344e+01 1.0402807690582812e+01 2 -1 1
933 1 2.2546677438709413e+01 2.1065786993967624e+01 8.5225393617992413e+00 -2 0 0
3317 1 1.6892527703034981e+00 2.4372381422257426e+01 8.8116110812720105e+00 0 1 0
424 1 7.3652015892318152e+00 2.3541912975754219e+01 7.1271791627499566e+00 0 -3 -1
2763 1 8.0148175122862675e+00 2.4094021452580833e+01 9.6802451073718441e+00 2 2 3
872 1 1.1831482980685513e+01 2.4604702087030823e+01 8.9488025045819590e+00 -1 -2 0
1663 1 1.5890079688798838e+01 2.4749727951080036e+01 7.5261667246225636e+00 0 0 2
751 1 1.6888149160004559e+01 2.2684934390560677e+01 9.2862583934318099e+00 -2 0 2
2435 1 1.9212315274060963e+01 2.3401550440587854e+01 1.0535814313501282e+01 1 1 1
790 1 2.4711511545730243e+01 7.1178479428230208e+00 1.5599251684969620e-01 1 0 0
1507 1 2.3535500594055637e+01 2.3297788617378501e+01 8.1313634715565115e+00 0 1 1
86 1 8.1303228142976913e-01 1.9518344017779437e+00 1.1395867072294701e+01 0 -1 1
3886 1 3.4143531058464993e+00 2.1143092537680643e+00 1.2617888693888837e+01 1 -1 0
3903 1 5.2365645931961913e+00 1.8577623757592354e+00 1.0580997650096158e+01 0 2 3
2412 1 7.1312588774390697e+00 1.4200966690684311e+00 1.2489003861408762e+01 2 0 -1
2999 1 9.5088255564191275e+00 2.8884430008209367e+00 1.2710308837249871e+01 2 1 -1
3519 1 1.1222342470229899e+01 6.5356136149262511e-01 1.3273290760812481e+01 0 1 -1
3707 1 1.4309001696530975e+01 2.1040903451041535e+00 1.1192877552897347e+01 2 3 1
3104 1 1.5469027681692504e+01 2.8648686190345742e+00 1.3316032474281689e+01 2 0 0
1909 1 2.0312794051676516e+01 2.5512466792858253e+00 1.2166573075601290e+01 0 2 1
1536 1 2.4221205001371544e+01 1.3915419154561708e+00 1.2790117439001962e+01 2 0 1
817 1 4.0733100941935874e+00 4.6961129828211332e+00 1.3861238482372640e+01 1 0 1
3895 1 1.2428446352861950e+01 6.4057055449808180e+00 1.2441436800795744e+01 -1 2 0
113 1 1.6925717977308931e+01 5.3016738547965225e+00 1.3421223861195985e+01 0 0 -1
1231 1 1.8847216537911724e+01 4.8106101590846748e+00 1.1515330223904249e+01 -2 1 0
1026 1 2.2753301995506263e+01 3.6228151132748834e+00 1.2201018407131208e+01 1 0 1
358 1 1.1682531581585458e+00 6.4287892524604349e+00 1.0782616582564959e+01 -1 -1 0
2460 1 3.7797552917830313e+00 6.3695602173588730e+00 1.1770722730602964e+01 -1 0 -2
2973 1 4.1478982922120569e+00 8.8749746555394378e+00 1.2975034615693442e+01 1 -1 0
1755 1 6.6562712834387030e+00 9.7561343139651484e+00 1.3651066352357818e+01 0 3 -1
1393 1 8.4746459610907223e+00 8.0037262102241939e+00 1.2239314160468638e+01 0 0 1
327 1 1.1305466954967141e+01 8.8065098012909786e+00 1.1976949676998705e+01 2 0 2
2164 1 1.4959323749652693e+01 7.2041298709209070e+00 1.2659645374765010e+01 0 1 0
1334 1 2.0208876334220964e+01 7.3627380806104910e+00 1.1400069415200981e+01 -2 2 -1
1520 1 2.1493981632063161e+01 7.7367445317798902e+00 1.3621941124624287e+01 -2 0 0
2544 1 2.4983755644107426e+01 9.5099320914703558e+00 1.1314011312526675e+01 0 0 0
1115 1 3.7327231856522594e+00 1.0721228927877736e+01 1.0750414496457545e+01 -1 0 -1
413 1 7.5703520259665966e+00 1.1926592727496448e+01 1.2446256727123849e+01 0 0 1
1015 1 1.0057212933820090e+01 1.2658785890709884e+01 1.3309380670801051e+01 0 0 2
4068 1 1.1635219441324566e+01 1.0584770195015377e+01 1.3742131538819061e+01 1 0 -1
2634 1 1.5185826275086599e+01 1.2458696221830280e+01 1.1220204128805415e+01 1 1 1
47 1 1.4313482879761823e+01 1.1150119156128854e+01 1.3436905019101813e+01 0 0 -1
62 1 1.8815566660237394e+01 1.1130764043385353e+01 1.2412249687331281e+01 -1 2 -1
2216 1 2.1583054528471521e+01 1.1732588157523328e+01 1.2788497537461790e+01 0 0 -1
1627 1 2.3217096510734603e+01 9.8335446551545012e+00 1.3227908780478497e+01 0 1 0
2881 1 3.8473005521281416e+00 1.3284850450728783e+01 1.1639252966210691e+01 0 1 0
3693 1 6.1362157933534949e+00 1.4039656755668416e+01 1.2816956683996123e+01 1 0 1
573 1 1.1373498989623458e+01 1.4770677492632553e+01 1.2438055604635293e+01 0 -1 0
2038 1 1.7722870637350265e+01 1.3373437508261320e+01 1.1583398936205002e+01 2 -1 0
1441 1 1.7827995150580215e+01 1.5153125303572095e+01 1.3534119847035551e+01 -3 0 -2
2281 1 2.0298466506326847e+01 1.5910882264052702e+01 1.3281730420858814e+01 1 -1 0
3060 1 2.4959726309289689e+01 1.5831904433864500e+01 1.2059928950722599e+01 0 0 1
1316 1 2.2905354948866594e+00 1.8058652759946781e+01 1.2735792398890029e+01 -1 0 1
2666 1 3.1262320615277934e+00 1.7616140064631011e+01 1.0038333847299755e+01 1 0 -1
3194 1 5.5777556590663524e+00 1.8266975084341553e+01 1.0343169379906922e+01 1 1 2
4011 1 7.0312180881487594e+00 1.5708943731550097e+01 1.0674993780180980e+01 0 0 1
3371 1 9.4634040013695540e+00 1.6552270404319728e+01 1.1746666850065528e+01 0 0 1
3336 1 1.0109669021830225e+01 1.8691975774956848e+01 1.3378561718532612e+01 1 0 1
2720 1 1.5992894928047123e+01 1.7228477367519350e+01 1.2883680572059884e+01 3 1 -1
1662 1 2.1142061943051928e+01 1.7158161078236379e+01 1.1356231451910846e+01 2 0 1
564 1 2.3610816252324096e+01 1.8043839395009240e+01 1.1620359147102210e+01 -1 2 -1
1512 1 1.2937370510788142e+01 7.2662103695443099e+00 1.6754382373187749e+01 0 2 -1
3526 1 3.6638785673005447e-01 1.1604163373350749e+01 1.4018473608603690e+01 1 0 2
971 1 5.5922641970798876e+00 1.9939806530519778e+01 1.2389604336741025e+01 0 -2 0
520 1 4.2623672860187432e+00 2.2061690658927329e+01 1.1529544304516589e+01 1 0 -1
2531 1 9.3093532565568999e+00 2.1751609221002212e+01 1.0390448741004262e+01 0 -1 0
561 1 8.4093143038630522e+00 2.0642025178842463e+01 1.2856610776289807e+01 1 1 1
1864 1 1.3373868217570736e+01 2.0706860991816860e+01 1.1340930885764090e+01 1 1 -1
3493 1 1.5782901372049480e+01 2.1470457999925014e+01 1.1743440838581520e+01 -1 0 -2
481 1 1.7594407780730087e+01 1.9419930653362165e+01 1.2514721035914464e+01 0 -1 -1
2454 1 1.9322749234544712e+01 1.9024792196694527e+01 1.0453204855930903e+01 1 0 -1
2683 1 2.2041653638031523e+01 2.1636486569638159e+01 1.2595502781190676e+01 0 -2 0
588 1 2.3837151564727669e+01 1.9741963034550093e+01 1.3631994354035072e+01 0 -1 2
3313 1 1.5406004616653094e+01 2.2649487208637964e+01 1.5983827271554693e+01 -1 0 -2
3772 1 5.8697354332529290e+00 2.4396413116283281e+01 1.1551702084559638e+01 2 -1 2
1526 1 1.1753560152709374e+01 2.2681116885610727e+01 1.0908991925087824e+01 1 0 0
2696 1 1.2128010653006070e+01 2.4716697292221440e+01 1.2653322090289468e+01 3 0 3
3368 1 1.6064499149114031e+01 2.3511037333254272e+01 1.3562716230611096e+01 1 0 1
804 1 1.8659441507659480e+01 2.3747118898566690e+01 1.3004263679787526e+01 1 -2 0
3135 1 2.5213736861046719e+01 2.3880501952625266e+01 1.0416760184326975e+01 1 -1 -3
2941 1 2.3256262615746245e+01 2.4072125584391451e+01 1.2265284524140839e+01 1 0 1
2384 1 2.1934631602921351e+00 1.1244277167391810e+00 1.6838079804733610e+01 0 0 0
144 1 6.3507202594222241e+00 1.0629830680049710e+00 1.5210737146591864e+01 1 -1 0
3018 1 3.7938130546512845e+00 3.5624166168298943e-01 1.4500126998087675e+01 1 1 -1
951 1 1.2322085434224817e+01 9.5443631210494162e-01 1.5730883394612839e+01 0 1 0
1804 1 1.3900061150529764e+01 3.3996611307093434e+00 1.5486338501985371e+01 -3 0 1
51 1 8.5793673362699554e+00 2.2657133659274191e+01 1.4398876229528371e+01 0 1 -1
2043 1 1.7061721702208441e+01 4.5631643197081428e-01 1.4089322989027982e+01 -2 0 1
4016 1 1.9426242794607880e+01 1.6069288990408748e+00 1.4460711498427230e+01 -1 0 0
3788 1 6.7109057288586866e+00 2.4360680819742036e+01 1.4126213711568051e+01 2 -1 0
465 1 2.3527711144398683e+01 6.9153100371323284e-01 1.5277599081138877e+01 -3 0 0
2710 1 2.5318963608873116e+01 1.2813479956694822e+01 5.7452673526301288e+00 -2 -1 0
432 1 2.0375473364506251e+00 5.3118986323970239e+00 1.5612136278204577e+01 -2 2 1
1946 1 5.9657359522377096e+00 5.4770048387790666e+00 1.5973627963691898e+01 1 -1 -2
1773 1 2.3704469651169685e+01 2.7137714511233471e+00 1.7014960538165592e+01 2 1 -1
1161 1 8.2139251068673005e+00 6.5828576766328313e+00 1.4724258214489177e+01 0 2 -2
1865 1 3.8141285646901690e+00 1.0272025799514230e+01 1.7032064837470621e+01 1 1 0
3598 1 9.8952735618272882e+00 4.5804210448164673e+00 1.4764263581471951e+01 1 2 -1
1034 1 1.2389888188819867e+01 5.3197797137364526e+00 1.4992413844177451e+01 -2 -3 -1
1718 1 1.8478380899682470e+01 6.0145178960588357e+00 1.5614886491445510e+01 0 -1 0
2035 1 1.9695188734406194e+01 3.6000569056441529e+00 1.6406136413285523e+01 2 -1 2
1656 1 2.2161575645514318e+01 4.8045661832135140e+00 1.6319271521207849e+01 0 -1 0
1084 1 2.3111075991863437e+01 5.6722946592805341e+00 1.4085857094595093e+01 0 1 -2
3522 1 1.5490917330785757e+01 1.8043230193362675e+01 1.6469570693896973e+01 0 -3 0
1299 1 2.1621649532308851e+00 9.6521020104633379e+00 1.4725770072348578e+01 -1 -2 2
849 1 8.5156444575444805e+00 8.6525641309988863e+00 1.6493282678781032e+01 -1 -2 1
1371 1 1.1067724370732288e+01 9.3468735022302365e+00 1.5967885283669748e+01 0 3 0
2559 1 2.5503641336490965e+01 1.2381885944718460e+01 1.0877258350700079e+00 1 0 0
1029 1 1.5125524010905162e+01 8.6081647042749765e+00 1.6840155438714362e+01 -1 -1 3
963 1 1.5804570182850517e+01 9.1623440015631825e+00 1.4413136913861925e+01 1 -2 -1
1658 1 1.9885493168435101e+01 8.2430836335179123e+00 1.5741059881219112e+01 1 1 -2
1752 1 1.1007748161393476e+00 2.5061523908339524e+01 1.6776203675766855e+01 1 2 1
1314 1 6.4594233631630891e+00 1.0564127860524946e+01 1.6190342807566914e+01 0 0 1
2925 1 2.1538471233099919e+01 2.5493307543270511e+01 7.4117365107954987e+00 -1 1 0
4054 1 2.7735364457693945e-01 7.6967424192009615e+00 1.5021438280159225e+01 3 1 1
2676 1 1.8534210461151950e+01 1.2063275247467040e+01 1.6743114433550669e+01 1 0 1
2798 1 1.8441367636178125e+01 1.0241986293626379e+01 1.4727554967684593e+01 0 1 -3
3117 1 2.4311421629420813e+01 1.0562683186241159e+01 1.5586193342431159e+01 -1 0 0
324 1 1.8659625108445277e+00 1.3806303490840104e+01 1.3754072391401854e+01 0 -2 2
2801 1 3.3080146613499526e+00 1.4228997272347632e+01 1.6130123301930340e+01 -3 -1 0
952 1 5.8252028892509733e+00 1.4530437600332803e+01 1.5577330375543173e+01 -1 1 -1
2667 1 9.8839952938468834e+00 1.3179090908540942e+01 1.6464897038475129e+01 3 1 1
3592 1 1.0904762750377438e+01 1.5541758742450108e+01 1.6689300754306739e+01 -2 2 2
1733 1 1.2815923571766257e+01 1.5351690062897019e+01 1.4758475191618018e+01 1 2 1
3645 1 1.4530946779843529e+01 1.3204500566606804e+01 1.5462596550012131e+01 -1 0 1
3784 1 1.6990963879744452e+01 1.4027205584086159e+01 1.5809601642339342e+01 1 0 3
1761 1 2.0856792793210410e+01 1.3469120747916481e+01 1.6898892953038153e+01 -3 2 1
1753 1 2.1687672775553580e+01 1.3931988538717423e+01 1.4372984643763846e+01 0 2 0
2564 1 2.4298352834023465e+01 1.4830884227917322e+01 1.4371298578252105e+01 -1 0 1
581 1 5.0939141360823503e-01 1.6002393927904791e+01 1.3263618978595920e+01 0 0 0
3401 1 4.2147013198158687e+00 1.8712484042195424e+01 1.4712451453842707e+01 0 -1 -1
3925 1 6.3014632019781081e+00 1.7137211497427110e+01 1.5792967309582393e+01 -2 0 0
4003 1 9.0019083119958054e+00 1.7406083022976890e+01 1.5606662316754681e+01 0 0 2
853 1 1.4018087413665135e+01 1.7557575589734686e+01 1.4354106236333203e+01 -1 2 -1
3129 1 2.8477979317527258e-01 2.3986423693436834e+01 6.2474180300434314e+00 1 0 0
240 1 2.0572140258921927e+01 1.7668711120220479e+01 1.5292295531628371e+01 0 2 -1
1436 1 2.3508985676769139e+01 1.7159973801224137e+01 1.5594938220153230e+01 2 1 0
730 1 3.7561706332519269e+00 2.1000237483714127e+01 1.6050875444792609e+01 -1 2 1
1088 1 1.2730574629437793e+01 2.1584843247448408e+01 1.5565612093541105e+01 -2 0 -3
3948 1 1.2709949507534732e+01 1.9661769518107260e+01 1.3624681637397906e+01 1 0 1
2298 1 1.8856938929954136e+01 1.9705383075595620e+01 1.4835117861958254e+01 0 -1 0
2218 1 1.7133608981426505e+01 2.0439241269381640e+01 1.6769685845097577e+01 0 -1 0
731 1 2.0352614317338819e+01 2.1743363227775745e+01 1.4247806081221450e+01 0 -2 -1
2595 1 5.0680034952781616e+00 1.2730828466752286e+01 2.4718094777089064e-01 2 1 2
3663 1 4.5793860277462539e-01 2.9339832077446237e+00 1.6240774579952809e+01 1 0 1
3773 1 2.9435218131838925e-01 2.2540108366503059e+01 1.2585025895458292e+01 1 2 1
2642 1 7.1935925767426498e+00 2.5377835410549167e+01 5.0587027994421874e+00 -1 0 -2
79 1 1.1267296923509010e+01 2.5254214917324834e+01 1.7016862596857543e+01 2 1 -1