LAMMPS data file via write_data, version 7 Aug 2019, timestep = 200000

4104 atoms
1 atom types

2.8130446051550351e-01 5.1138695539482953e+01 xlo xhi
2.8130446051550351e-01 5.1138695539482953e+01 ylo yhi
2.8130446051550351e-01 5.1138695539482953e+01 zlo zhi

Masses

1 18.15

Atoms # atomic

2089 1 1.5404664575588225e+00 4.7480864329381394e+00 2.2391674046528838e+00 1 0 0
3390 1 1.6411145538710052e+01 2.1969145195282799e+01 1.4334804543361930e+01 1 0 0
3936 1 1.9948001920941525e+01 1.8950885600855987e+00 1.4806953233257676e+00 0 1 1
2358 1 1.0764433563493220e+01 2.5665229185925476e+01 1.3749473731849646e+01 0 -1 0
2539 1 5.8073887885144790e+00 4.5208394128572404e+00 9.6257422870504594e-01 0 0 0
4093 1 1.7482307213818558e+01 1.4341687244247030e+00 4.3214543724459240e+00 0 1 1
25 1 2.4175690906757215e+01 1.3262286982257562e+01 1.5923839961202528e+01 0 0 0
895 1 2.1650154115923154e+01 3.7242859172722032e+00 3.3072803145112988e+00 0 0 1
1593 1 6.3889724961462413e+00 8.8683248594568038e+00 1.6735945213286200e+01 0 1 1
2165 1 7.8880021889860163e+00 4.1682589074018388e+00 2.8714470647791033e+00 1 0 0
1408 1 2.5391033639981808e+00 1.8974918829311314e+01 1.2833027602561184e+00 0 1 1
3560 1 1.0860558320383390e+01 1.3994954104338486e+00 4.3356324592724755e+00 0 1 0
3314 1 1.6929674539734162e+01 3.4887410390310323e+00 2.7420515280083935e+00 1 1 0
681 1 1.9096097670932366e+01 5.1513145325097591e+00 2.1626295941618099e+00 0 0 1
473 1 2.3767258235757836e+01 6.2170532189540895e+00 2.6398474159679681e+00 0 0 0
156 1 1.3133308725052519e+01 2.5659050918075106e+01 4.8847509081812346e+00 0 -1 0
988 1 2.4614166312088141e+01 1.5787939994793524e+01 6.7624929153295614e+00 0 0 1
2131 1 3.4956702371606534e+00 8.7141221211609725e+00 1.5977018006540777e+00 1 0 0
3082 1 7.8761087071797027e+00 9.1433091447411829e+00 3.5420714026322053e+00 0 0 1
3943 1 1.0406236235947018e+01 8.8488575159348830e+00 2.2588133968849320e+00 1 1 1
687 1 2.0269524781086581e+01 1.9721872999137950e+01 5.9724704606535239e-01 0 0 1
248 1 1.5660520917619589e+01 9.2154755118753897e+00 1.1578964619373457e+00 0 0 0
2054 1 1.7944221683297890e+01 7.1409546846283956e+00 3.9259674101222153e+00 0 0 0
2069 1 2.1447690415527379e+01 7.3506518735098156e+00 1.7976370463735780e+00 0 0 0
3909 1 1.2810464632312868e+01 1.2531224262150449e+00 2.0700866840574847e+00 1 0 1
2907 1 2.4699997386169454e+01 1.0394713339210123e+01 3.7438083712440058e+00 0 0 1
729 1 2.1877200437469506e+00 1.3367597454737782e+01 1.3178618897096830e+00 0 0 0
195 1 4.5724960782840700e+00 1.1595477127041026e+01 1.5407052959706851e+00 0 0 0
3772 1 8.8522124051530025e+00 1.2348974461899241e+01 1.6192162256413996e+00 1 0 1
840 1 6.1755582881577897e+00 7.6966695193947050e+00 1.3831821950056045e+00 0 0 1
57 1 1.1011050888762320e+01 1.1282848607835055e+01 3.0425362196556840e+00 0 0 0
101 1 1.3540896411704116e+01 1.3028626823395527e+01 3.1188543375147448e+00 0 0 0
2315 1 1.7888343348475114e+01 1.1945236261562648e+01 2.1300059236437887e+00 0 0 0
1896 1 1.5568643684144687e+01 1.0781341011426656e+01 3.6058716095433132e+00 0 1 1
2097 1 2.1578299434903723e+01 1.4048115619781875e+01 3.8414755809127219e+00 0 0 0
879 1 2.2920662667220721e+01 1.2066966282859216e+01 2.0568690060796850e+00 0 0 1
799 1 1.3985829082423205e+01 6.9024631928169713e+00 6.7798176932252374e-01 0 0 1
2115 1 1.1361019410818902e+00 2.2746521088035330e+01 1.0927426299843546e+01 1 0 0
876 1 1.5155012337221899e+01 2.6807173063526002e+00 7.0788607516888691e-01 0 0 1
1311 1 1.1923399757415307e+01 2.3883895049022840e+01 1.0918515417371387e+01 0 0 0
43 1 1.6088064561349462e+01 1.4092958227507053e+01 2.0974099845688645e+00 0 0 0
1127 1 1.2170034381084383e+01 1.5860512749610338e+01 1.9221477194043974e+00 0 1 0
2099 1 3.8529336824056026e-01 2.1411187948418281e+01 1.3970651686310028e+01 1 0 0
17 1 7.0859494175848337e-01 1.8843741334560566e+01 1.6059167995126955e+01 0 0 0
3300 1 5.1806605440707187e+00 1.5378195208093731e+01 1.5701891492257003e+01 1 0 0
3252 1 1.2807807111571449e+01 2.3939844475156864e+01 1.3771146928497487e+01 1 0 0
3033 1 6.7380534814670989e+00 1.8219269699317710e+01 4.5591596120523514e-01 1 0 1
2160 1 5.0786472809256464e+00 1.6364290884081974e+01 1.4991371625412155e+00 1 0 0
560 1 7.6565444399559111e+00 1.4914987504022857e+01 2.2069756998263719e+00 0 0 1
485 1 9.6699768293641188e+00 1.6738634432773537e+01 1.5622338424912008e+00 0 0 1
565 1 1.6113322839095453e+01 1.7902032689757725e+01 1.4060926822273512e+00 0 0 1
1723 1 2.0638039960824326e+01 1.5919367593053233e+01 1.7569523153062676e+00 0 1 1
35 1 2.2327864346359732e+01 1.8281129820442665e+01 1.2490600026586414e+00 0 0 0
131 1 9.7983076037190102e+00 2.1705342405659021e+01 9.2288548038632501e-01 0 0 0
3339 1 2.4453798811401811e+01 2.0039747177505411e+01 1.6905687477839866e+00 0 0 0
2367 1 4.7785695425833739e+00 2.0770041333563842e+01 1.2205374897089496e+00 1 0 0
841 1 2.3143717562812154e+00 2.1459149912768048e+01 4.0298979141857281e+00 0 0 1
2297 1 2.3872011468962775e+01 1.1429787235560680e+01 1.0477873967167517e+01 0 0 1
1304 1 9.6090284737535043e+00 1.9299822558934164e+01 2.4825342576192599e+00 0 0 0
3107 1 1.7975696130544453e+01 1.9428562354003642e+01 2.5275755250547061e+00 1 0 0
1109 1 1.8577537310513257e+01 2.1957060026277578e+01 6.0540108924499225e-01 0 0 0
2550 1 3.9545795629685028e+00 2.5281666905452678e+01 1.4260877565917941e+01 1 0 0
1685 1 2.2219663361162027e+01 2.1746700672170320e+01 1.3638462007169136e+00 0 0 1
338 1 3.1259771585727600e+00 2.2976024134315178e+01 1.7467572071684421e+00 0 0 0
543 1 8.4027359629141909e+00 2.3986683499865155e+01 1.5661169352797177e+00 0 0 0
107 1 1.0106537551702743e+00 1.0886782646716256e+01 1.1714583925178886e+01 0 0 0
2148 1 1.1836984606675811e+01 2.2089838221509044e+01 3.1731569596702522e+00 1 0 0
3458 1 1.7120287279973166e+01 2.3768459129208669e+01 3.5745998473850640e+00 0 1 0
1381 1 2.0684685176820064e+01 2.5071989069180809e+01 1.2469159587140926e+01 0 0 0
1809 1 1.9392017084835803e+01 2.3984520860300748e+01 2.2560734635092574e+00 0 1 1
1293 1 2.3682484719830676e+01 2.5162644056335310e+01 2.5371123405020417e+00 0 0 1
2243 1 1.5353270418989425e+01 2.4608102300943134e+01 1.4747018349342046e+01 1 0 0
1908 1 5.0531128369667426e+00 1.9142927334796245e+00 3.4582936746449677e+00 0 1 1
3730 1 1.2074613276419676e+01 1.5158048363300217e+01 1.6113780707723830e+01 1 0 0
3961 1 7.4981064961386297e+00 2.0725248377623307e+00 4.5951705768752289e+00 1 1 0
3319 1 2.5292505541776809e+01 6.7043956334265076e+00 6.0019199212475929e+00 0 0 0
1214 1 1.3444115863704265e+01 2.8206259093117216e+00 4.9251248443441975e+00 0 1 0
194 1 1.5536538909060802e+01 1.2318237594926926e+00 5.8938119342104098e+00 0 0 0
252 1 1.1333001967499181e+01 2.5156956064848409e+01 8.3251150113183918e+00 0 0 0
2200 1 1.6585353970287262e+01 2.7384603322218246e+00 7.9056094896996179e+00 1 0 0
1226 1 7.8778029648948635e+00 1.9213737423330489e+01 1.4720917743717736e+01 0 0 0
379 1 2.2714740410269460e+01 5.3803339480370447e+00 5.5787145268033331e+00 0 0 0
305 1 2.1906822816755710e+01 7.9328917678155919e-01 5.4310386704076148e+00 0 1 0
701 1 1.8390250428696999e+00 6.5301517277006367e+00 5.8677297993707684e+00 0 0 1
491 1 3.9775559672502410e+00 4.6169739235390779e+00 3.2769987776833873e+00 1 0 0
791 1 9.2399622546909654e+00 5.5744817633575403e+00 5.0508228053254784e+00 0 0 1
2986 1 4.7001861338794191e+00 6.8665569292371336e+00 4.4121748725041758e+00 1 0 1
323 1 1.3615924782148365e+01 5.1995047363945366e+00 2.9022890558298355e+00 0 0 0
530 1 1.5723609941521357e+01 5.6471273981669849e+00 4.3546667073456122e+00 0 0 0
645 1 2.1452196800244060e+01 8.5023680178297116e+00 4.2836601586510179e+00 0 0 1
521 1 2.4056014178273330e+01 8.8922466899886263e+00 7.6921160679427976e+00 0 0 0
2044 1 2.5098281348114315e+00 8.9437517967121369e+00 4.2513819170075990e+00 1 1 0
697 1 7.0679234387181689e+00 7.0264713244534347e+00 5.4037313487686500e+00 0 0 0
1165 1 6.7285267745702333e+00 1.1405530486712239e+01 3.1498294151471122e+00 0 1 0
1118 1 1.1362695372036050e+01 6.8603935849060154e+00 3.7294948551237259e+00 0 0 0
2910 1 1.2386310118216763e+01 8.4814962725767469e+00 6.0258272682593965e+00 0 0 1
912 1 1.5027176720014662e+01 8.3330373883337394e+00 5.7780631521038730e+00 0 0 1
2508 1 2.3107004013785080e+01 1.0158126254892759e+01 5.4568977770640998e+00 0 0 1
69 1 8.4078054162823666e+00 2.4184492248376905e+01 1.4620881820058006e+01 0 0 0
382 1 2.5668289673702166e+01 7.7630525141216786e+00 1.1883590189845696e+01 0 0 0
2381 1 1.9962539852314256e+00 1.2959854184021276e+01 4.3683446021848429e+00 0 0 0
120 1 3.2562039814684653e+00 1.0965186645676534e+01 5.5102884564719101e+00 0 0 0
2027 1 5.7711261848209068e+00 1.1620643411396296e+01 5.7736146131879975e+00 0 1 1
184 1 1.1794626044306883e+01 1.1049163818801059e+01 5.5147955153717829e+00 0 0 0
1752 1 8.7733323054066403e+00 1.2123491052195707e+01 8.2720215396590717e+00 0 0 1
408 1 1.6854973233684419e+01 1.1264909479011314e+01 6.1657309845628703e+00 0 0 0
741 1 1.9633192169258130e+01 1.0699364562473665e+01 6.1377804039015809e+00 0 0 1
1146 1 1.5233019271390551e+01 2.3524314403658114e+01 1.0538161444740959e+00 0 1 0
2613 1 2.3456684582978124e+01 1.6066980157415141e+01 4.1126848200200987e+00 0 0 0
1651 1 9.1091059604631912e+00 2.5397583156663366e+01 6.4306149453097987e+00 0 0 0
2482 1 3.7652150129907560e+00 1.5248576504999637e+01 5.3337259121048550e+00 0 0 1
810 1 6.1224669985094682e+00 1.4232596034802588e+01 6.3302700020965661e+00 0 0 1
475 1 8.2614451328079586e+00 1.4212075526788617e+01 4.8617135090976999e+00 0 0 0
3040 1 1.2563469137393302e+01 1.5367478418585426e+01 7.6253774771900753e+00 1 0 0
1193 1 1.4125240741597045e+01 1.3140775509978896e+01 6.0769040050255665e+00 0 1 0
1236 1 1.8946335266717309e+01 1.3123794477083191e+01 4.3377293730249553e+00 0 0 0
2752 1 1.7094601871598062e+01 1.5422793559065436e+01 4.1692430677051409e+00 1 0 1
390 1 2.1613617133460519e+01 1.8414519852770191e+01 4.1925330399260847e+00 0 0 0
883 1 2.4087920641957221e+00 1.8869183064697410e+01 5.4890361686636622e+00 0 0 1
2608 1 2.5309266772423477e+01 5.0878434484582185e+00 6.7582327095164429e-01 0 0 0
2625 1 4.2641595008015027e+00 1.7273857740005703e+01 4.0112924561294019e+00 1 0 0
4102 1 6.2209093696266669e+00 1.8625818589485192e+01 5.1446969849636615e+00 0 1 1
811 1 9.0152672990185234e+00 1.6621321046156531e+01 5.9783223337534297e+00 0 0 1
3219 1 1.1949708860053907e+01 1.5613569962420554e+01 4.8057098543943342e+00 0 1 0
580 1 1.9097105505296817e+01 1.7383086683092674e+01 3.9988683133622458e+00 0 0 0
2792 1 2.1407852727565096e+01 1.8832640565225496e+01 7.6601353439152184e+00 1 0 1
236 1 6.8764697088598492e+00 1.9959348176677686e+01 2.7998219172923888e+00 0 0 0
1318 1 1.0063372507912677e+01 1.9397542302690685e+01 5.0928714413449132e+00 0 0 0
311 1 1.6545211487522351e+01 2.0964945027977837e+01 6.5973083145292799e+00 0 0 0
855 1 2.2986777874736838e+01 2.2482901170326098e+01 6.2680579657258635e+00 0 0 1
2183 1 2.4009055832256372e+01 2.0259713006703294e+01 4.5175801122126735e+00 0 0 0
1546 1 3.5116854536240028e+00 2.3463718031129236e+01 5.6658982677385286e+00 0 0 1
3759 1 7.5669147009150199e+00 2.2829276815884679e+01 4.0126020561470739e+00 1 0 1
3788 1 9.6785014699538880e+00 2.2361705478307613e+01 5.3715991298751016e+00 0 0 1
1246 1 1.3802041738822528e+01 2.0130759696182523e+01 3.1626667079696036e+00 0 0 0
762 1 1.6350466393175836e+01 2.0895101490681323e+01 3.8824470601481793e+00 0 0 1
919 1 2.2001835294974711e+01 2.3103654325263495e+01 3.5668478264253789e+00 0 0 1
3177 1 2.0147542697608330e+01 2.4764566225488867e+01 5.1162957204068320e+00 0 0 0
4087 1 1.1735035917845500e+00 3.6454022361043421e+00 8.2466562777783494e+00 0 1 1
3392 1 2.4125440778846848e+01 1.8670749941022304e+01 6.5352589258769589e+00 0 0 0
1093 1 5.4453770248208766e+00 1.3434953610933609e+00 8.1297632134350746e+00 0 0 0
2340 1 7.8375831340240634e+00 1.9481431981132822e+00 7.3122241170696487e+00 1 0 0
445 1 1.2051899610880367e+01 2.9707493472990527e+00 7.3594433426527814e+00 0 0 0
46 1 2.3377039607040500e+00 1.5737851284550066e+01 1.6347316920333274e+01 1 0 0
1715 1 1.8028721964982587e+01 4.4458345547609757e-01 1.4472965706298238e+01 0 1 0
592 1 1.2620605798433884e+01 2.3992287590378698e+00 1.0355818276285550e+01 0 0 0
2419 1 1.6733506391638347e+01 1.8455244114037761e+00 1.1297546539281205e+01 1 0 0
253 1 1.9691405786925660e+01 2.3766197087605141e+00 5.2618305303224746e+00 0 0 0
2533 1 2.3281855392433336e+01 2.9640910260426243e+00 6.8779343674093152e+00 1 0 0
178 1 2.2981194180769954e+01 4.2363445090095038e+00 1.0160824535048802e+01 0 0 0
3482 1 2.9039152903351777e+00 3.6211067594858468e+00 5.8840733946972517e+00 1 1 0
289 1 5.2574651578675562e+00 4.1499902694904307e+00 6.4499128091170617e+00 0 0 0
2468 1 9.4808293824075740e+00 4.1449788348764347e+00 7.3914609893820904e+00 1 0 0
3876 1 9.1405349119535604e+00 6.3037787826807428e+00 9.0680500614859287e+00 0 1 1
958 1 1.3601951165293093e+01 4.8914888354431199e+00 8.5886712194533548e+00 0 0 1
24 1 1.5630273372819598e+01 5.2260015886624060e+00 6.9868575874537173e+00 0 0 0
187 1 1.9314772939249867e+01 3.6907142332023795e+00 7.4927352138679959e+00 0 0 0
439 1 2.0672026720918328e+01 6.1820981395313588e+00 6.9738502650509053e+00 0 0 0
404 1 3.7971485199480846e+00 2.2535338340698225e+01 1.1871781711713231e+01 0 0 0
271 1 1.8163850195884109e+01 8.4669268812159899e+00 1.4151486453545552e+00 0 0 0
3044 1 1.3210242124105052e+00 6.7031901269196359e+00 8.5492764847412985e+00 1 0 1
128 1 5.2709568560426128e+00 5.8188783732297091e+00 8.8121572953694862e+00 0 0 0
426 1 7.3070451564375176e+00 7.6745284144023103e+00 8.1207531784230937e+00 0 1 0
3136 1 1.3072130790074384e+01 7.8048403763331793e+00 8.8584536220250616e+00 1 1 0
2544 1 1.5121380524113132e+01 6.3581831797247927e+00 1.1090417455986373e+01 1 0 0
1537 1 1.8594382286235913e+01 8.0597495942281157e+00 6.5575674302273139e+00 0 1 0
971 1 1.7177205560491483e+01 7.1515227023227519e+00 8.5527516117176798e+00 0 0 1
171 1 2.1960969398547288e+01 9.7640855094866605e+00 9.8510890890593501e+00 0 0 0
1425 1 2.1157302740925910e+01 6.4017163757860480e+00 9.6587828952394013e+00 0 0 0
2872 1 2.8908534663370240e+00 1.0965931717316111e+00 5.0806059341768179e+00 0 0 1
80 1 4.5659143866970657e+00 9.7619171381917038e+00 9.6058903928232837e+00 0 0 0
240 1 9.7541362266363163e-01 9.4497054508946690e+00 7.2621903500017311e+00 0 0 0
548 1 3.4880363949004285e+00 7.3381573118674766e+00 9.7408551665730201e+00 0 0 1
1298 1 5.8390373491436174e+00 1.2544700156883014e+01 1.0530852868154694e+01 0 0 0
2267 1 6.8263708510779484e+00 1.0418263792255365e+01 7.7879489716700503e+00 1 0 0
1983 1 1.0932948551209863e+01 8.3254182076985597e+00 1.0495351323602527e+01 0 1 1
1355 1 1.5639877177884211e+01 9.4885985774246926e+00 8.3641973535250980e+00 0 1 0
1278 1 1.3205743643154287e+01 1.0798433059009035e+01 1.0507688990155486e+01 0 1 0
374 1 1.7485834165169972e+01 1.1132818041661734e+01 9.6936934280227529e+00 0 0 0
888 1 1.9803344565086231e+01 1.0727668825028656e+01 8.7313499294009738e+00 0 0 1
1295 1 2.0611327728950197e+01 1.3412366117796825e+01 8.6443291062505221e+00 0 1 0
1526 1 2.4483133728529427e+01 1.2664265065918185e+01 8.3457635004991371e+00 0 1 0
1175 1 1.2737509432472427e+00 1.3938802313177538e+01 8.1775480582680267e+00 0 0 0
3375 1 7.1933548022658869e+00 1.4653600887622963e+01 8.7222629370392433e+00 1 0 0
3813 1 1.0421599604394881e+01 1.3170515858752141e+01 6.3329049834135906e+00 1 0 1
3172 1 1.1722816338136013e+01 1.3592369073294481e+01 1.1592225902447675e+01 1 0 0
1243 1 1.3850988908640050e+01 1.3447811581247914e+01 9.4628651190478443e+00 0 0 0
617 1 1.6652612156367525e+01 1.4219536631120613e+01 7.3597780571575671e+00 0 0 0
1021 1 1.6570471193195139e+01 1.3651487517152640e+01 1.0458081148364874e+01 0 0 0
3042 1 1.9327894880891719e+01 1.4870657727854296e+01 6.7163968644295808e+00 0 0 1
1277 1 2.2440133897693791e+01 1.2427470842948301e+01 6.2477909770151934e+00 0 1 0
3381 1 1.4482085914311302e+01 1.4640435829231931e+01 1.6719373079673392e+01 1 0 0
3975 1 2.2830703152063798e+01 1.4965448037241996e+01 9.3329562016524310e+00 0 0 1
114 1 1.9991343237017949e+00 1.6746510117001758e+01 7.1978364962117460e+00 0 0 0
2102 1 1.2155628544560580e+01 5.9191140319048534e+00 1.6637329194474866e+01 0 0 0
764 1 3.0006561455967899e+00 1.7345011941951974e+01 9.4068913323341654e+00 0 0 1
470 1 5.7541933395859433e+00 1.7136395223961276e+01 9.4693907250746783e+00 0 0 0
727 1 1.0059580515701253e+01 1.6091795237007069e+01 8.5408769266926967e+00 0 0 1
1532 1 1.5252354949913709e+01 1.6598298619894429e+01 6.2972036201550035e+00 0 0 0
186 1 1.2818688594862804e+01 1.8396718646769340e+01 5.2108783766487363e+00 0 0 0
2517 1 1.6652478747766651e+01 1.8650352448035015e+01 7.8526357450741084e+00 0 0 0
1971 1 2.1737364807116535e+01 1.7406093472895975e+01 1.0120867118224574e+01 0 1 1
2956 1 1.9096162774708667e+01 1.7528760131525097e+01 6.9576837158007372e+00 1 0 1
3933 1 1.0116251100869384e+01 1.8854830200138981e+01 1.2975016765964932e+01 1 1 1
225 1 4.6930226114704769e+00 2.0352909947894890e+01 6.2731510965131037e+00 0 0 0
3222 1 6.1707963201864944e+00 2.3245580903551705e+01 8.5149627707706586e+00 1 0 0
2256 1 1.2488786993893438e+01 1.9457035710327844e+01 7.8057117787852324e+00 0 0 0
1731 1 1.3950619540892459e+01 2.1759127199609644e+01 7.6450164443429154e+00 0 0 1
152 1 1.8361059191237228e+01 2.2903749113576282e+01 6.7043355969126557e+00 0 0 0
3982 1 2.0846705338143206e+01 2.1373925140819150e+01 7.3636736822780087e+00 0 0 1
350 1 2.1980710268040724e+01 2.1728327332873462e+01 1.0042172837449197e+01 0 -1 0
2152 1 2.3175664383084690e+01 1.9516748182064056e+01 1.1300968990465112e+01 0 0 0
2181 1 1.2631901901867248e+00 5.7255649345541748e+00 1.3076237787089463e+01 1 0 0
699 1 1.2939121410251623e+01 1.1786714928488548e+01 5.4872685052406478e-01 0 0 1
3411 1 5.6396010797834171e+00 2.0513953182160449e+01 9.4191816944511082e+00 1 0 0
2459 1 2.7547864504983659e+00 2.3878479538374798e+01 8.6686041862905867e+00 1 0 1
1026 1 6.2841410883200277e+00 2.4312847042807146e+01 6.0709342125107346e+00 0 0 0
179 1 9.4156321769941496e+00 2.2621012558021402e+01 8.6278466358361694e+00 0 -1 0
3181 1 1.2129089795816954e+01 2.3586131189144197e+01 6.4337570692788564e+00 0 0 0
2194 1 2.5095321034947112e+01 6.5750666947268144e+00 9.4125553321751578e+00 0 1 0
2575 1 1.1980447931815004e+01 2.1414488713281553e+01 1.3988196934121916e+01 0 0 0
3048 1 2.2395125443432569e+01 2.5341233403612495e+01 7.2706432146424600e+00 0 0 0
829 1 2.5372922401389740e+01 2.2389597530706535e+01 8.1356460770025905e+00 0 0 1
2073 1 1.2084780411165510e+00 2.4195543178596033e+00 1.1354380421838764e+01 1 0 0
2563 1 3.9498770177909184e+00 1.3105528226112115e+00 1.2366200212323172e+01 1 0 0
1601 1 5.9947637688139892e+00 2.0630729903729478e+01 1.2092907872302032e+01 0 0 0
334 1 5.9696824280791212e+00 1.8386249703505628e+00 1.0634059037401141e+01 0 0 0
520 1 8.2249130271729527e+00 7.3688824330786273e-01 1.1344239172048901e+01 0 0 0
125 1 1.0196374696848297e+01 2.7438588415527123e+00 1.1417905837364604e+01 0 0 0
1739 1 1.0407062547253659e+01 2.6745346354985422e+00 1.4391885260724495e+01 0 0 1
3568 1 2.5298776226205117e+01 1.6577322783937188e+01 1.3792468725201946e+01 0 0 0
257 1 1.9315430829860379e+01 2.7230528061188202e+00 1.1338064650495037e+01 0 0 0
3553 1 1.4845768697552518e+01 9.9188581564328426e-01 1.3828503082747282e+01 0 1 0
3133 1 2.0930222700742654e+01 2.3894251173918719e+00 9.1553198879529614e+00 0 0 0
2568 1 2.5653554721974661e+01 1.1000208085092105e+01 1.4839682164525861e+01 0 0 0
709 1 8.8513664215337400e+00 4.9370362741299578e+00 1.1414266664542673e+01 0 0 0
2006 1 6.4195432204989702e+00 4.4447428380854488e+00 1.0845833607852500e+01 0 1 1
2337 1 1.3742506635639367e+01 3.4666829455552803e+00 1.2959331325363925e+01 0 0 0
972 1 1.5940888420426806e+01 4.4510560428333399e+00 1.2414068589099358e+01 0 0 1
1128 1 1.8675309383711738e+01 5.4104736842095864e+00 1.0748844912842534e+01 0 1 0
2144 1 2.2983085731957281e+01 2.9379782362647795e+00 1.2434127894253853e+01 0 0 0
226 1 1.8112810822780332e+00 1.0054384870847590e+00 9.2265723712471370e+00 0 0 0
3537 1 3.3252510070960244e+00 2.2209943270276458e+01 1.4779858471630284e+01 1 0 0
2219 1 3.0115387682895896e+00 3.8819694963132600e+00 1.4901088635611776e+01 1 0 0
337 1 3.4047932923301949e+00 7.1748353310921020e+00 1.2322206593246053e+01 0 0 0
2974 1 5.4422553485316909e+00 9.6658757279771077e+00 1.2560870678585310e+01 1 0 1
422 1 9.3510951021223914e+00 6.5353324311626508e+00 1.3776662352640686e+01 0 0 0
2240 1 1.3726446873315188e+01 7.6001308325308088e+00 1.3131248578587991e+01 1 0 0
3586 1 2.1785908782418844e+01 8.6424611501118846e+00 1.2237886880515410e+01 0 1 0
577 1 1.9038097571787418e+01 7.5465550734368474e+00 1.2365470128982635e+01 0 0 0
111 1 2.3708043572321031e+01 7.6366261567335076e+00 1.3646020629129517e+01 0 1 0
650 1 2.2642107339478805e+00 9.4423255422822248e+00 1.3941333059133868e+01 0 0 0
273 1 1.0255795985738922e+01 1.0918725827310821e+01 1.0388012631319024e+01 0 0 0
1852 1 8.0661617209422722e+00 1.1971980403702656e+01 1.2546880013740822e+01 0 0 0
218 1 1.0886248702708880e+01 8.7537829992117384e+00 1.3279900600252873e+01 0 0 0
3495 1 1.4748560574154181e+01 1.0136285415054450e+01 1.2831373275041573e+01 1 1 0
860 1 1.7608662936403245e+01 9.8036721880608209e+00 1.1896809512161807e+01 0 0 1
3009 1 1.9285424198002264e+01 1.1866594411222659e+01 1.3056468115403423e+01 0 0 0
2762 1 2.1584375219595152e+01 1.1040403720063772e+01 1.3635864522411854e+01 0 0 0
1421 1 2.2559842653525141e+01 1.3443052403201428e+01 1.2010995259133193e+01 1 0 0
2421 1 2.5615014232329290e+00 1.1511785730981430e+01 8.6776369523646579e+00 1 0 0
2234 1 3.6188955898161375e+00 1.4490115805806727e+01 1.0880720909019521e+01 1 0 0
1313 1 4.2284959578618642e+00 1.6410588201787089e+01 1.3258543718490715e+01 0 0 0
2505 1 9.2745796466211470e+00 1.4278387473561741e+01 1.0804737945813491e+01 1 0 0
1681 1 1.3406259283220312e+01 1.5998650381663074e+01 1.1955248574992082e+01 0 0 0
1265 1 1.5836715832831178e+01 1.4785909978684435e+01 1.2636328804224057e+01 0 1 0
4010 1 1.9557573526651538e+01 1.3743684169882680e+01 1.1126021424623781e+01 0 1 1
1737 1 1.9080870369101000e+01 1.9475102919424579e+01 1.3849400253454952e+01 0 1 0
2425 1 1.9527722224223147e+01 8.5372818222410221e+00 1.6914360320426589e+01 0 0 0
3542 1 1.5758451375627265e+00 1.8557233292939287e+01 1.1339982627429714e+01 0 0 0
89 1 2.6924344325980831e+00 1.8628480924756037e+01 1.3821019762102907e+01 0 0 0
2283 1 1.0669376529913938e+01 1.7869577963215718e+01 1.0424559050873215e+01 0 0 0
1087 1 8.7211552636040963e+00 1.6242055339031459e+01 1.2516097781128751e+01 0 0 0
2784 1 1.3562628815086134e+01 1.7461051634490623e+01 9.4954321398864323e+00 1 0 1
2389 1 1.7483683998954454e+01 1.7085425676970711e+01 1.2403098356486971e+01 0 0 0
2723 1 1.9886003856704278e+01 1.6277714967685931e+01 1.1982767222611166e+01 0 0 0
3283 1 2.1867643889706830e+01 1.8927119068592983e+01 1.4824971977690391e+01 0 0 0
2474 1 2.4666136013134324e+01 1.9403923875273104e+01 1.3822426006071527e+01 0 0 0
1162 1 3.0028020738138967e+00 2.0689414217162852e+01 9.1522446691484323e+00 0 0 0
4062 1 7.2962853003486519e+00 1.8628044956407471e+01 7.8410625186614880e+00 1 0 1
1416 1 6.2665788371430855e+00 1.7709399638630675e+01 1.2108665167564334e+01 0 0 0
2633 1 5.0260870665757915e+00 1.9722450582811128e+01 1.4890504998828597e+01 1 0 0
1709 1 9.7549942952289239e+00 1.9870077965117641e+01 8.5579235869928869e+00 0 0 1
2448 1 1.6264586551460532e+01 1.8578107031545905e+01 1.0560386214212537e+01 0 0 0
39 1 1.4818566411567499e+01 2.0866553852577713e+01 1.1946264639489467e+01 0 0 0
10 1 1.9703332731979490e+01 2.2994886290629264e+01 1.1269968579838437e+01 0 0 0
60 1 1.8001925756476094e+01 2.1157192400651841e+01 1.2197837762777942e+01 0 0 0
362 1 2.5344880587096466e+00 5.2043453703687792e+00 1.7124698011910667e+01 0 0 0
902 1 1.2152892040130325e+01 1.7412698378034108e+01 1.4069493684646378e+01 0 0 1
3335 1 4.9808171763954432e+00 2.4718804106733113e+01 1.1823605236289218e+01 0 0 0
1217 1 7.8321424006413780e+00 2.2146041402328880e+01 1.2549940298517228e+01 0 0 1
1479 1 7.1533157989211507e+00 2.4295113393413530e+01 1.0697346746757143e+01 0 0 0
1325 1 1.0317607410605094e+01 2.1430056281308136e+01 1.1403729061251228e+01 0 0 0
601 1 1.3928431445062252e+01 1.9533517289849559e+01 1.4526169401078553e+01 0 0 0
1848 1 1.4144062759484372e+01 2.2782905739357016e+01 1.0007320585198675e+01 0 0 1
1385 1 6.7124505874175471e+00 2.3188381099556715e+01 1.6967024690138519e+01 0 0 0
807 1 1.8223110746816911e+01 2.3982150589794404e+01 9.2506575545681162e+00 0 0 1
3311 1 1.3456749217696238e+01 1.8161218065319673e+01 9.4508221068519216e-01 1 0 0
3015 1 2.3717871824144698e+01 2.3888935545231984e+01 9.4808479381150335e+00 0 0 1
2845 1 8.0404206687777846e-01 1.4503536833544375e+01 1.4159934247597199e+01 1 0 0
3254 1 2.4775994965018913e+00 1.2960480200938688e+01 1.2759585543800304e+01 1 0 0
2742 1 7.8903844474831262e+00 1.0801915227025920e+00 1.3866835584226839e+01 0 0 0
344 1 2.4876545747633823e+01 1.9856917436100112e+01 8.8715105258360492e+00 0 0 0
3451 1 1.5714307975090856e+01 9.9975192408501112e-01 1.6810593068543163e+01 0 0 0
1751 1 2.0083887018399963e+01 2.2875199150157184e+00 1.3611777644207688e+01 0 0 1
3306 1 2.3063097221821980e+01 1.7663753474222350e+00 1.5697189075007181e+01 0 1 0
2540 1 5.6134272568360215e+00 2.5106782087811399e+00 1.4805945239553127e+01 1 0 0
378 1 3.5823413187283961e+00 1.1000747887249243e+01 1.6171570841358395e+01 0 0 0
707 1 1.1528831394573730e+01 5.1711908718060000e+00 1.4299139623728619e+01 0 0 0
669 1 8.7975868821852199e+00 3.3934183265878373e+00 1.6483761365789857e+01 0 0 1
3524 1 7.7777795362722575e+00 1.6637607876766200e+01 1.6319230395470171e+01 1 1 0
1512 1 1.6747309429564872e+01 5.4314645971247417e+00 1.4940865782012027e+01 0 1 0
599 1 2.3406125521504745e+01 4.9255990162504197e+00 1.4779154082861442e+01 0 0 0
2411 1 2.0647094175676926e+01 4.6230089265716403e+00 1.5508974747859178e+01 0 0 0
802 1 2.0347618441277692e+01 1.0620648039711691e+01 2.2203006601501452e+00 0 0 1
2622 1 5.6453644314480789e+00 5.4388104446415557e+00 1.3541149838173357e+01 0 0 0
361 1 8.5392027090658456e+00 6.0426467615342672e+00 1.6430639011488083e+01 0 0 0
211 1 1.0835781235775963e+01 2.2429719227118124e+01 1.6413357711011088e+01 0 0 0
397 1 1.4381237566537122e+01 7.0957718049387006e+00 1.5688845181352841e+01 0 0 0
403 1 1.8989352570662039e+01 6.6688786631938832e+00 1.4920543373677182e+01 0 0 0
3074 1 6.7074160732772379e+00 8.1105350226080866e+00 1.4164093325533706e+01 1 1 0
328 1 2.4057804317210106e+01 8.8832177930166569e+00 1.5789744364246948e+01 0 0 0
3072 1 4.6493203522826763e+00 1.1894728463807807e+01 1.3716524926668802e+01 0 0 1
2049 1 6.8681118557476104e+00 1.2924485333013115e+01 1.5287931990437057e+01 0 0 0
1191 1 2.4971987499685909e+01 2.3916641130691104e+01 1.1895718305733142e+01 0 1 0
561 1 2.3818242219968369e+01 1.8988682885366042e+00 2.6940444015956326e+00 0 0 1
847 1 9.9139595642952667e+00 1.1031458046475963e+01 1.4890866375163258e+01 0 0 1
513 1 1.3814715954201539e+01 1.1377403071931344e+01 1.5167725683928351e+01 0 0 0
1400 1 1.8160650257767649e+01 1.2700224525831681e+01 1.5568684972058600e+01 0 0 0
2485 1 2.1759545457742874e+01 1.0109055175790143e+01 1.5977432372305200e+01 0 0 0
92 1 6.7655323268527123e-01 1.8688544926926181e+01 3.3562574031226267e+00 0 0 0
1469 1 9.9592020240114010e-01 1.9194861896742461e+00 1.4403952620751244e+01 0 1 0
2462 1 1.2430145048589342e+01 6.8709393004230068e-01 1.5396121814757588e+01 0 0 0
262 1 9.1389477511256239e+00 1.4915950335981503e+01 1.4953737290430853e+01 0 0 0
277 1 2.5223553788523347e+01 2.4934339084988464e+00 5.0774346075228944e+00 0 0 0
1903 1 1.1589228208643645e+01 1.2969810999102618e+01 1.4226794567316050e+01 0 1 1
635 1 2.4878041009796455e+01 1.2517458533051760e+00 8.3007618017635725e+00 0 0 0
349 1 1.5516912224724914e+01 1.3217502867009218e+01 1.4768399043434163e+01 0 0 0
511 1 1.6595299725754995e+01 1.8672826094066249e+01 1.4827513464783475e+01 0 1 0
119 1 2.2982693607323458e+01 1.5086663330151474e+01 1.4229966002992294e+01 0 0 0
94 1 2.0637096168471825e+01 1.6386293374603227e+01 1.4563921810814785e+01 0 0 0
2250 1 1.2921276723020714e+01 2.4509483098142091e+01 2.3442899731504463e+00 1 0 0
3442 1 1.6743784036914413e+01 3.8024338594488323e+00 1.7105331820361144e+01 0 1 0
2258 1 1.5687884282626317e+01 2.5116103793717528e+01 1.0192780208160656e+01 1 -1 0
906 1 1.8846717896185407e+01 1.5251857065304723e+01 1.6487159810550370e+01 0 0 1
694 1 2.5213559825502369e+01 1.3185315209891110e+01 1.4980415089983263e+00 0 0 1
2624 1 1.6273830282141930e+01 1.6836763041993034e+01 1.6737582432609798e+01 0 -1 0
3235 1 7.5758248657529004e-01 2.0524988975559818e+01 7.3812533322269367e+00 0 0 0
2669 1 2.5402414420437996e+01 1.6257792541291057e+01 1.0975215946587344e+01 0 0 0
515 1 4.1689403289154408e+00 2.4667040069715651e+00 2.0111159403295524e+01 0 0 0
260 1 1.1396055583900973e+01 1.0527673059901064e+01 1.7615406002836167e+01 0 0 0
1410 1 2.5352146153032265e+01 7.4366034371355489e+00 2.5786924084338878e+01 -1 1 0
660 1 7.5835630219549577e+00 1.1715359241849654e+00 1.9827763770269133e+01 0 0 0
286 1 1.0142413192598729e+01 1.5253878195444501e+00 2.1919701084677566e+01 0 0 0
2017 1 1.0871833511899888e+01 1.4831947672500378e+01 1.8602907334340511e+01 0 1 0
1589 1 1.3719042977129476e+01 2.9388642387029988e+00 2.0507512790654612e+01 0 1 0
1524 1 1.8777827494853543e+01 2.9573596734203602e+00 1.9257722310471166e+01 0 1 0
418 1 4.7708853831326161e+00 2.5650835757158344e+01 1.9550484772850169e+01 0 0 0
3282 1 2.1268729735058482e+01 5.1636741525521890e-01 2.0220671485696009e+01 0 1 0
3820 1 1.4753850583201348e+01 5.0102172340772038e+00 3.2921391497316307e+01 0 1 0
1644 1 6.6151636800505953e+00 2.0600150567643635e+01 1.7816299340959578e+01 0 0 0
822 1 2.5594085729215291e+01 1.3172608172011572e+01 3.3260616092508997e+01 0 0 0
464 1 8.3935326717496217e+00 5.5825788763228905e+00 2.0608847872474559e+01 0 0 0
1820 1 3.3957557130722116e-01 5.9224496697595335e+00 3.3564432544546037e+01 0 1 0