LAMMPS data file via write_data, version 7 Aug 2019, timestep = 200000

4095 atoms
1 atom types

2.4593828950312968e-01 5.1174061710497469e+01 xlo xhi
2.4593828950312968e-01 5.1174061710497469e+01 ylo yhi
2.4593828950312968e-01 5.1174061710497469e+01 zlo zhi

Masses

1 18.15

Atoms # atomic

953 1 3.1664254053678058e+00 5.0914603053898162e+01 3.6487202019333695e+00 0 0 0
357 1 6.1796197278111820e-01 2.5379728172619014e+01 2.6805768499502179e+01 0 0 0
3182 1 2.7526613616627045e+00 3.0467566040714100e+00 1.1600975246714302e+00 1 0 1
292 1 3.5819807215571995e+00 2.1965893841931265e+00 3.9959284025558006e+01 0 0 -1
3303 1 1.3309379582596264e+00 7.1545269182511664e+00 3.6108221488322143e+00 1 0 0
1040 1 2.9008645538229239e+00 1.7200271500267302e+01 3.2714019638897057e+01 0 0 0
836 1 1.0718797306648598e+00 9.9395605639654558e+00 2.6563296737647871e+01 0 0 0
1173 1 8.3792443617246015e-01 1.1093050855218030e+01 2.8847931483274327e+00 0 1 0
3180 1 2.7960686781820581e+00 1.2626293101624652e+01 4.5531414559800043e-01 1 0 1
470 1 2.7642430080617458e-01 1.4582189618439752e+01 4.0984773540347206e+00 0 0 0
1225 1 5.5737149609935344e-01 1.5596005011146630e+01 1.6047007096422783e+00 0 1 0
1246 1 2.2598862173174017e+00 1.9811855650886688e+01 8.4394554785728881e-01 0 0 0
1611 1 8.4985788767775450e-01 2.4412795984724227e+01 3.5943179446778939e+00 0 0 0
3392 1 3.7424604594422957e+00 2.5549008585112205e+01 2.5116140919616199e+00 1 0 0
1366 1 3.3449651733360901e+00 2.8933242361872111e+01 3.9552092372284844e+00 0 0 1
1880 1 2.2043992717282235e+00 4.8590522271681913e+01 4.7904212378260546e+01 0 0 0
35 1 2.1001259862943336e+00 2.9358649715175236e+01 5.0751759078031156e+01 0 0 -1
3246 1 2.9572438243009835e+00 3.1700738926208963e+01 1.0119808467779756e+00 1 -1 1
3661 1 2.2885068763711716e+00 3.8357350147618199e+01 2.2849348759802495e+00 1 0 1
3456 1 2.8972016811466617e+00 3.4484376897776357e+01 3.0595069635674781e+00 1 0 0
44 1 1.0393572215307987e+00 4.0654879698430321e+01 1.8008064260989514e+01 0 0 0
2017 1 3.7158925580936510e+00 4.3637645127496555e+01 1.2959999806323468e+00 1 0 0
2067 1 8.8751138424823439e-01 4.5397937151206115e+01 2.7105502472376708e+00 1 0 1
898 1 4.3893471711041858e+00 4.8387186787812070e+01 4.1950476803655414e+00 0 0 0
913 1 4.8026244867899953e-01 2.1877911551393119e+01 4.7119083636690471e+00 0 0 0
1674 1 1.7071435015945731e+00 4.8684920374676516e+01 1.2752126662504137e+01 0 0 0
1634 1 2.2587933395783417e+00 4.6167722716598199e+01 2.5995899147678458e-01 0 0 0
2670 1 2.0830811205269537e+00 9.7796205948316739e-01 5.7247079602694813e+00 1 1 0
825 1 2.9638089129737089e+00 5.5762958666406268e+00 5.5565163025185491e+00 0 0 0
2874 1 1.3461717315789397e+00 4.7531447606124345e+01 1.5243944810501919e+01 1 -1 0
2721 1 1.2439337850839860e+00 4.4222013732597382e+01 9.0763706868220897e+00 1 -1 0
270 1 3.4341038086575675e+00 1.0936023118710594e+01 4.9230205200738295e+00 0 1 1
2140 1 1.0637864949066078e+00 4.2065781067048977e+00 4.3403502452328247e+01 1 0 0
460 1 2.6445869356813407e+00 1.3661295801719781e+01 4.6226943267254077e+00 0 0 0
2634 1 4.0439058564334729e-01 3.3266481256055968e+01 4.6306202975992559e+00 1 0 0
406 1 3.7384783943003805e+00 1.8898889571026519e+01 4.9815018265418436e+00 0 0 1
1636 1 2.9149925166316826e+00 2.1249823879114633e+01 3.3682075993268947e+00 0 0 0
3401 1 9.0260311705395035e-01 4.0490298176994038e+01 3.2533980516958394e-01 1 0 0
3809 1 4.7075492028207711e+00 2.2709494481084391e+01 4.8996130460680387e+00 1 0 0
1584 1 2.8951734953089625e+00 2.5949905518723504e+01 7.2607275466894858e+00 0 0 0
938 1 4.7999655210452896e-01 2.1971202893948520e+00 2.7840496753040615e+01 0 0 0
2371 1 7.9520858558831331e-01 1.2152839964796394e+01 2.4261399238002245e+01 1 0 0
473 1 1.8407679728190738e+00 3.1429093548182450e+01 6.1975264724963477e+00 0 0 0
2275 1 3.7109386174632779e+00 3.8198576633425795e+01 5.0072249377348683e+00 1 -1 0
1317 1 5.0680887959131382e-01 1.3060949013887286e+00 1.6547463491203064e+01 0 1 0
2999 1 1.6556074581350264e+00 4.3900385291546073e+01 4.8741955873054010e+00 1 0 0
113 1 2.8307166843775597e+00 4.2031394895192832e+01 3.4984848216906319e+00 0 0 0
3307 1 2.6995232091368262e+00 4.7193679564838028e+01 7.8289274579000425e+00 1 -1 0
1680 1 1.7466762514628429e+00 3.9213794111426687e+01 4.8824726417727611e+01 0 0 -1
3428 1 4.2596387834312415e+00 3.8926463159035080e+01 5.1093314354432870e+01 1 0 0
3086 1 4.9395441412422370e-01 1.3304980846059513e+01 3.3339393653662825e+01 1 0 0
1386 1 4.3820752249182826e-01 9.2801205732383689e+00 4.6536819218046674e+01 0 0 -1
3879 1 8.2713639186916632e-01 3.6088900972198035e+00 8.6539177371384941e+00 1 1 0
3706 1 1.7285707407585202e+00 6.2151280099303161e+00 1.0020452430940022e+01 1 0 0
3913 1 8.6957216799928194e-01 2.1531253422930646e+01 3.9613353303772278e+01 1 0 0
13 1 2.4038694230224271e+00 7.5007583827441531e+00 7.9455393838832666e+00 0 0 0
4085 1 1.2071475237481095e+00 3.1119460649938169e+01 1.8326786765848567e+01 0 0 0
439 1 1.9090663017325964e+00 1.0087970964279918e+01 6.9739750793083859e+00 0 0 0
2053 1 1.8878005458981746e+00 1.2201361008302433e+01 8.8124847752030941e+00 1 0 1
1462 1 2.5465251343305448e+00 1.4370246025174044e+01 7.4659747722003145e+00 0 1 1
97 1 1.3264103184872194e+00 4.0253213030798079e+01 2.7190544147928769e+01 0 -1 0
3915 1 1.9643723447711134e+00 1.9343262044084309e+01 9.8145852073541295e+00 1 0 0
2658 1 4.0916088629176759e+00 2.1257176489771734e+01 9.6967468422232486e+00 1 0 0
737 1 3.4505820912296077e+00 2.3102200258748155e+01 7.4325724858509012e+00 0 0 1
480 1 1.8861572637369615e+00 2.9578263863539895e+01 8.6972891288280394e+00 0 1 0
3805 1 4.2883904722279569e+00 3.0186010528572545e+01 1.0453857775129187e+01 1 0 0
497 1 2.3559414429480290e+00 3.3487069252811274e+01 8.0468534915759058e+00 0 0 0
2539 1 5.6058234997905165e-01 2.2979838508540386e+01 3.5897831892574580e+01 1 0 -1
69 1 2.3778768535849761e+00 2.3650740992405940e+01 4.9716098524469274e+01 1 0 0
3674 1 2.2775007730140930e+00 3.5306692013357299e+01 6.0732979211418021e+00 1 0 1
3665 1 3.4870820195276755e+00 3.8888544244798986e+01 7.9923578048804451e+00 1 -1 0
214 1 1.7143058410114571e+00 4.0537288670123807e+01 8.8362706138475602e+00 0 0 0
1228 1 3.4683581630378786e+00 4.2545375628700576e+01 9.0251597222510487e+00 0 -1 0
78 1 8.9775885467067740e-01 2.4064156196168231e+01 3.3435818576000734e+01 0 0 0
2425 1 7.5313589418713078e-01 4.2953349329414216e+01 3.6372508573825925e+01 1 0 0
1115 1 3.3610487856125193e+00 3.2698800020944020e+01 1.8008696200354198e+01 0 0 0
2309 1 7.0461070112928126e-01 1.4655834555523745e+01 2.0361724427839441e+01 1 0 0
2203 1 7.6005274099903064e-01 4.2648371658630374e-01 9.3044037050705803e+00 1 0 0
3280 1 7.1112496149555637e-01 1.6238656930527895e+01 2.6061090303949868e+01 1 0 0
1193 1 1.1548795405148575e+00 2.3848599166576083e+01 1.2192430842827301e+01 0 0 1
456 1 1.4868537788311007e+00 3.8246100497505662e+00 1.2557815896453778e+01 0 0 0
1354 1 3.0991139913197148e+00 9.1994466348461881e+00 1.0661713681707802e+01 0 0 0
3355 1 1.1005053767756579e+00 4.2617523975991489e+01 4.3132640289019655e+01 1 0 0
587 1 1.3095400802589081e+00 9.1022445354846813e+00 2.3782251139632631e+01 0 0 0
1017 1 1.4267212063541626e+00 1.7809086766363581e+01 2.8641268921867734e+01 0 0 -1
3009 1 4.9236818787608716e-01 1.0807990675809986e+01 1.4065606063837757e+01 1 0 0
1336 1 3.6647800108022723e+00 1.3750732567883274e+01 1.1935901005502318e+01 0 0 0
4095 1 4.6487321670189846e-01 2.6147174892880063e+01 5.8339358352275843e+00 0 0 1
3468 1 2.0280483769864901e+00 1.7513222168418114e+01 1.1915717758166165e+01 1 0 0
168 1 6.5641085770045471e-01 3.5897714607269513e+01 3.7263728795589074e+01 0 0 0
3107 1 2.4095406163019368e+00 2.6988815487623135e+01 9.8493055605679878e+00 1 0 0
3970 1 9.3913949858177204e-01 1.2477574798635651e+01 4.7424309005629901e+01 1 0 0
2911 1 1.0584496952668363e+00 3.0217456365657480e+01 4.3542087810549781e+01 1 0 -1
119 1 2.8757721351484942e+00 3.3055929028552868e+01 1.2179781690810183e+01 0 0 0
2498 1 1.2246187576638821e+00 2.6186756317404967e+01 4.9320299543535072e+01 1 0 0
3707 1 1.0366507737975921e+00 1.5792495700998764e+01 3.6826375779585021e+01 1 0 -1
874 1 1.4563091105372898e+00 3.6674357944479610e+01 1.1564154959476589e+01 0 0 0
91 1 3.6394485332672861e+00 4.2914356804907257e+01 1.1984076194409791e+01 0 0 0
1641 1 9.1454445587873556e-01 3.9512394108760759e+01 1.1238766526874622e+01 0 0 0
3064 1 3.8109422213856394e+00 5.0143053221065671e+01 1.2291066496667941e+01 1 -1 0
462 1 5.2788998025309408e-01 2.9156911887246611e+01 3.3527834949987657e+01 0 0 -1
2178 1 9.1588747817600813e-01 4.4897698065629619e+01 2.1702265116846007e+01 1 -1 0
656 1 2.4746686589846876e+00 2.1935231100164665e+00 1.4630333846133647e+01 0 0 0
4071 1 8.0127579526041837e-01 1.6487854777214537e+01 6.9862271809164138e+00 0 0 0
3000 1 1.1233405694020786e+00 8.2094882716608186e-01 5.1114819668333460e+01 1 1 0
1503 1 2.9051197764700470e-01 8.4890923356399846e+00 3.7160627526456402e+01 0 0 0
875 1 4.7784515534111671e-01 6.7217232314068660e+00 1.5926191004970725e+01 0 1 0
64 1 3.4079471453127210e+00 3.3463585504699127e+00 7.0441494917745855e+00 0 0 0
3155 1 1.1351021411716515e+00 4.3519420932308641e+01 3.0508176017535103e+01 1 0 0
4035 1 2.7507524002134853e+00 1.1352359211096941e+01 1.5187882585964323e+01 1 0 1
1554 1 2.6808035844565006e+00 1.5462855379414922e+01 1.5900588365671952e+01 0 0 1
3215 1 4.4706250123215421e+00 1.3661432809473384e+01 1.4419480050385996e+01 1 0 0
492 1 2.4737631224859427e+00 2.8248017265831908e+01 4.2381031929296398e+01 0 0 -1
3498 1 2.5823079057835159e+00 1.8285423182124870e+01 1.4575593664949734e+01 1 0 0
922 1 4.4993509508283029e+00 1.1813526941142939e+01 9.9363802252032087e+00 0 1 1
967 1 4.2503437909322930e+00 2.2435721521042396e+01 1.1939665065624228e+01 0 0 0
1410 1 5.4289966517357291e-01 4.4873377271236954e+01 1.1782888769640818e+01 0 -1 0
1306 1 1.1008493642739390e+00 2.6098381898773042e+01 1.3813745160190505e+01 0 0 0
1084 1 2.2930292512830786e+00 2.8410942026080669e+01 1.2551099013598042e+01 0 0 0
763 1 3.9181479449633456e+00 2.8773885553417777e+01 1.4399679096934751e+01 0 0 0
1275 1 1.2686181597243844e+00 3.5971086516945732e+01 1.4054709483816797e+01 0 -1 0
2722 1 9.3815964005588270e-01 3.6049503653244770e+01 1.9854248678287019e+00 1 0 0
1203 1 4.8687293289776710e+00 2.4046742995340469e+00 2.9654453759156687e+00 0 0 0
3332 1 2.1987278436827946e+00 4.0525285581836648e+01 1.3501965008493803e+01 1 0 0
2964 1 2.9527501141540089e+00 4.6271276985862904e+01 1.2020431360485116e+01 1 0 1
659 1 3.7624476666978541e+00 4.5907668556755468e+01 1.4512899051767500e+01 0 -1 1
2123 1 1.3178582287307576e+00 2.7483447954068250e+01 2.4982731873201436e+00 0 0 0
3578 1 3.6704048740633368e+00 2.1061187204462559e+00 1.8388511058553338e+01 1 0 0
196 1 1.5718171860391266e+00 1.5665929382535431e+00 2.1616575972968807e+01 0 1 1
1379 1 2.9971906885853228e+00 6.8663381646748629e+00 1.6660584440889448e+01 0 0 0
978 1 2.7036272295245265e+00 6.6053228755841928e+00 1.9450923017385808e+01 0 0 0
327 1 1.1390426848714366e+00 1.2011473717535742e+01 1.7735955602355915e+01 0 0 0
2817 1 1.8495240797888131e+00 4.6598113119945886e+01 2.8562867612073202e+01 1 0 0
2470 1 1.5932056686149680e+00 5.6564286900722189e+00 1.0947467844203227e+00 1 0 1
3739 1 1.0828674919169439e+00 2.0315287388787237e+01 1.5879824048263194e+01 1 0 0
3513 1 2.5365421819380507e+00 2.0843360427480182e+01 1.8101920717770867e+01 1 0 0
3419 1 2.6181477290937476e+00 2.2520357276397334e+01 1.4694703315766366e+01 1 0 0
1424 1 1.8921829828448402e+00 2.4616850850359086e+01 1.6224165451955344e+01 0 -1 0
2002 1 3.1589146351780126e+00 2.4640384185249545e+01 1.9630207550435760e+01 0 0 0
2599 1 2.0204823130012812e+00 2.7104534348122517e+01 1.7522527723848423e+01 1 0 0
230 1 4.3762729734143635e+00 1.4692590111909873e+01 2.9479572234647183e+01 0 0 0
3797 1 1.2030684199101380e+00 2.9126420891299887e+01 1.6066866079435499e+01 1 0 0
2940 1 1.1044667793375891e+00 1.8632412083054920e+01 1.9058670390650345e+01 1 0 0
185 1 1.5225051580680222e+00 3.8493319641569656e+01 1.4983891092967390e+01 0 0 0
238 1 6.3502600888033034e-01 3.1931679057261711e+01 1.4288842318825340e+01 0 0 0
3252 1 2.5408824887202672e+00 3.6917362137052514e+01 1.8806670385089518e+01 1 0 1
1078 1 5.3975914107943801e-01 4.0268719257982838e+01 3.6701916016186665e+01 0 0 0
3585 1 1.1778861804512433e+00 1.6094079015050610e+01 3.4405584793293215e+01 1 0 0
2849 1 1.4916289470670798e+00 4.8228479182399035e+01 3.1117530405062954e+00 1 -1 1
1028 1 1.4544154160706551e+00 4.3063076920519869e+01 1.6785341015877417e+01 0 0 0
1663 1 2.5268499859844744e+00 4.8979043767286967e+01 1.7286575544586324e+01 0 0 0
3034 1 1.6155667322765566e+00 5.1112437491867816e+01 1.8520121298629512e+01 1 -1 0
3628 1 7.2331061852945644e-01 4.8942249822005579e+01 3.4407409503223981e+01 1 0 0
949 1 4.3691655752093750e+00 3.6581035621347645e+01 3.1846007124724384e+01 0 -1 0
231 1 1.2856144600067212e+00 1.5418298582844039e+00 2.4194213904727981e+01 0 1 0
3229 1 3.4985846460311687e+00 3.9535404347250069e+00 2.0815739585070993e+01 1 0 0
3122 1 4.1610172076531740e+00 8.8249252943542746e+00 1.5056972760341527e+01 1 0 1
2966 1 1.6178888645126477e+00 4.2951270347563238e+01 5.0033948753301672e+01 1 0 -1
2713 1 4.6279939695674379e+00 6.5447415589938140e-01 1.4440028211785386e+01 1 1 0
174 1 2.8163885537609783e+00 1.0604844593639147e+01 2.0948636440030246e+01 0 0 0
2102 1 1.0536006346233249e+00 3.5550717979033197e+00 4.0776197780158316e+00 1 0 1
878 1 3.3751439583401246e+00 1.7084881166334014e+01 2.0239158505394531e+01 0 0 0
945 1 4.0679646242687237e+00 2.6939273536335723e+01 2.8642457739601152e+01 0 0 0
2895 1 1.2018262975361833e+00 2.2718127560644234e+01 1.9232893482026910e+01 1 0 0
3877 1 1.1161373681367994e+00 2.1062360878665384e+01 2.1552063294059593e+01 1 0 0
3922 1 3.4130558513032625e+00 2.1334179386649311e+01 2.3020310740776633e+01 1 0 0
2834 1 1.6982767129816105e+00 2.7148835704426357e+01 2.0311124213330285e+01 0 0 0
3333 1 6.4729673789430908e-01 2.5861108515234029e+01 2.2772750584973750e+01 1 0 0
1537 1 1.0712403267699626e+00 4.9078119245592660e+01 5.3574898532286674e-01 0 -1 1
3974 1 2.8704020703212056e+00 2.9913396229001805e+01 2.0120873249473810e+01 1 0 0
2296 1 3.7230860209021888e+00 3.4841194080168954e+01 1.9752060116240816e+01 1 0 0
3544 1 1.5885108639551384e+00 3.8913390550249360e+01 2.2561103001308190e+01 1 0 0
2625 1 2.2389645308567392e+00 3.9431021490315537e+01 2.0190745118345589e+01 1 -1 0
3035 1 3.9110780316881959e+00 4.9591911975207941e+00 4.2288154869246654e+01 1 0 0
3012 1 2.2456627332281558e+00 4.4907770335119487e+01 1.8927757301182684e+01 1 -1 0
2221 1 4.3534609057669309e+00 2.9980391114932132e+01 4.7782256746169281e+01 0 0 -1
2588 1 3.4335671626239774e+00 4.7287741434137317e+01 1.8992280514111521e+01 0 -1 0
2303 1 2.5785968600227136e+00 4.9292529940572379e+01 2.2617743050696813e+01 1 0 0
2551 1 2.9327249826704391e+00 3.5847044148867973e+01 4.6945294039709374e+01 1 0 -1
773 1 9.2179814206648802e-01 3.1562772814714076e+01 1.0416057099296312e+01 0 0 1
1957 1 3.5867069637522211e+00 5.0989281906947639e+01 2.4971974077561345e+01 1 0 0
3178 1 4.0576532929796763e+00 4.2639488872684241e+00 1.6453741045104245e+01 1 1 0
3856 1 3.9862449199103969e+00 4.9453829620316929e+00 2.3459103551797167e+01 1 1 0
1430 1 4.6774105413486815e+00 4.6423280206603707e+01 2.8129557755689859e+01 0 -1 0
3966 1 3.8098126436835233e+00 7.5607068326862894e+00 2.4201623288244036e+01 1 0 1
2513 1 4.6243471066983348e+00 3.2938599489388904e+00 9.6875845557584572e+00 1 1 0
2709 1 2.7206147516699684e+00 1.2809057380300711e+01 1.9792666451772345e+01 1 1 0
2171 1 3.0496623505020928e+00 1.3900344877775103e+01 2.3826061670620664e+01 0 0 1
3474 1 1.5270059431197605e+00 1.5995778329456945e+01 2.2513423897887492e+01 1 0 0
2736 1 2.9893081414800267e+00 2.1165139751282958e+01 2.5466992152943405e+01 1 0 0
3738 1 2.6250293524427804e+00 2.5325950334639693e+01 2.4839669328291986e+01 0 0 0
1454 1 3.5933568216988205e+00 8.7345710465286714e+00 3.2764238275549746e+00 0 0 0
233 1 1.9893448446545416e+00 4.4218497725864720e+00 4.0059149092579524e+01 0 0 0
993 1 2.0764320657366393e+00 2.9491670824717175e+01 2.4682613580582444e+01 0 0 0
263 1 4.3787334111848395e+00 2.3948316369412161e+01 2.2030084349885001e+01 0 0 0
3641 1 1.9173016547577415e+00 3.1294581758721485e+01 2.2628610042922201e+01 1 0 0
3071 1 2.6160594634241447e+00 3.4118120511576606e+01 2.2082069960308775e+01 1 0 0
3719 1 3.2789320769133807e+00 3.6825843757639298e+01 2.3312172915289139e+01 1 0 0
1630 1 8.2747481705088921e-01 4.2740196583865398e+01 1.3987100996116418e+01 0 -1 0
258 1 3.2888221750008548e+00 4.0417364640992837e+01 2.4329891589815006e+01 0 -1 0
465 1 2.4259096092601178e+00 4.4985770513400780e+01 2.3886751812719393e+01 0 0 0
3660 1 3.4045852855001972e+00 4.2930901593465933e+01 2.5225873901144070e+01 1 0 0
690 1 4.6220792110133040e+00 7.2171314488515357e+00 2.6938004349190813e+01 0 1 0
3110 1 1.6695351344986833e+00 4.7436146595743928e+01 2.4704978562587463e+01 1 0 0
3128 1 4.3870417607347809e+00 4.8220698572879670e+01 2.6119856614985743e+01 1 -1 0
677 1 3.3399460184698233e+00 1.9196928816370709e+00 2.7102425037858957e+01 0 0 0
3571 1 2.1783336635053434e+00 6.0888968366833671e+00 2.7177002427173502e+01 1 1 0
3484 1 2.1489441208518225e+00 4.3613177318798577e+00 2.5286578720746231e+01 1 1 0
684 1 3.2194567214757654e+00 4.0509664012175790e+01 4.1898962612404624e+01 0 0 0
3912 1 4.2251874458163141e-01 2.2427356161186289e+01 7.2055576456872634e+00 0 0 1
3430 1 5.0567191578522452e-01 8.7239912548208984e+00 1.1684835890437688e+01 1 1 0
2597 1 3.5428736167427943e-01 4.0346360273812444e+01 4.1431781505542435e+00 1 0 0
2702 1 2.2411313453204524e+00 1.0334584995620215e+01 2.9486177333227943e+01 1 0 0
626 1 3.6121327609376439e+00 1.7160021816920040e+01 2.5596457518860941e+01 0 1 0
3138 1 8.8272142879521898e-01 1.3484609973917562e+01 1.2142877891873725e+01 1 0 1
3611 1 3.5412850740051685e+00 2.0060498678566415e+01 2.9022604715454953e+01 1 0 0
4029 1 1.2012245272470263e+00 3.3206326612306547e+01 3.8206019709880579e+01 1 0 0
3919 1 3.0544739197458912e+00 2.3361538866086565e+01 2.7170092403888063e+01 1 0 0
370 1 7.6650161932057104e-01 4.2942898132629921e+01 2.7782123807821428e+01 0 0 0
3838 1 2.7475421545533334e+00 3.2939434703090235e+01 2.6467353860465749e+01 1 0 0
1039 1 1.2983287844458498e+00 1.5405911132912631e+00 3.8243841334482212e+01 1 1 -1
3467 1 8.1681270627340552e-01 1.9882691887040139e+01 3.3298239995599403e+01 1 0 0
3267 1 4.3521852247786885e+00 3.5613593819544391e+01 2.5805928911403242e+01 1 -1 0
2925 1 4.2783152139381935e+00 3.8607024563504766e+01 2.6066796294627796e+01 1 0 0
3175 1 4.2542184425347678e+00 2.9827046103286779e+01 3.4752355050684550e+01 1 0 0
2893 1 3.8258325594719467e+00 4.9330671857311694e+00 1.1938902003647460e+01 1 0 0
3166 1 1.6146746666410001e+00 4.9116206667154508e+01 2.7494790220950634e+01 1 -1 0
3985 1 9.2683125458720850e-01 6.0715213562110093e-01 3.1547982740984882e+01 1 1 0
498 1 4.6617172890121203e+00 2.7483233585281333e+01 5.9624095516615769e+00 0 0 0
2868 1 3.7597135716982764e+00 6.4948310728923024e+00 3.1331344165262063e+01 1 0 0
3159 1 4.4853237667829386e+00 6.2925593355301404e+00 5.1065417210119378e+01 1 0 0
1741 1 1.9498408455657315e+00 8.5170512539402239e+00 3.1266973205511761e+01 0 1 0
799 1 1.8826702622906897e+00 1.5808906462800469e+01 3.0227093762309675e+01 0 0 -1
1295 1 4.0827603674700033e+00 1.2299189894022710e+01 3.0637339115850054e+01 0 1 0
2649 1 4.5046784056987308e+00 1.9197280348547245e+01 4.0424838307919266e+01 1 0 0
4080 1 3.5949399014025647e+00 1.8360988317056414e+01 4.7955282948965156e+01 1 0 0
1525 1 1.8418070161574187e+00 2.2358684320228164e+01 2.9605925862715253e+01 0 0 0
729 1 2.2959881759374690e+00 2.2084448282139974e+01 3.2186716515569721e+01 0 0 0
1152 1 4.1074753036813538e+00 4.7481575453065886e+01 4.9448655219864584e+01 0 0 0
734 1 3.9488604378998775e+00 1.6415419832640321e+01 4.9832514543833419e+01 0 0 0
1378 1 2.0601556490056456e+00 2.5366610250774183e+01 2.9999115149763110e+01 0 1 0
1413 1 2.7148421118848884e+00 2.9867478678295598e+01 2.7738432507782889e+01 0 0 0
3464 1 4.7659893793231998e+00 9.2173311462907677e+00 5.8602079124829842e-01 1 0 1
1245 1 1.7365761963249045e+00 1.4654634640476900e+01 4.9933568703913970e+01 0 0 -1
3981 1 4.4922692654876526e+00 3.5209796796085264e+01 4.9219701739732940e+01 1 0 0
501 1 3.9324487226345839e-01 3.1424613693530254e+01 2.6305463114285161e+00 0 0 0
3717 1 1.3159980260771289e+00 3.8290034313824265e+01 3.0259334290941624e+01 1 0 -1
565 1 2.2522173690567429e+00 3.5853638181936979e+01 3.0573636609946721e+01 0 0 0
2506 1 3.7297242588554060e+00 3.9005304585723891e+01 2.8751954460691763e+01 1 0 0
3987 1 3.8747308915780474e+00 4.3655003037786898e+01 2.7850170611649080e+01 1 0 0
703 1 4.3159668880709416e+00 3.8171333041246498e+01 4.0858350684832644e+01 0 -1 -1
2794 1 1.8478202644091790e+00 4.6348296174464807e+01 3.1221926388136264e+01 1 0 0
3277 1 4.2320240800216578e+00 4.7350832833262309e+01 3.1674693962038340e+01 1 -1 0
947 1 3.2363933349444038e+00 5.0647679560724377e+01 2.9106353424636605e+01 0 -1 0
1341 1 3.2999914579299636e+00 2.5489606259256403e+00 3.4780846679257436e+01 0 1 -1
1427 1 3.4177014542440149e+00 5.2048956421727768e+00 3.3688313589461643e+01 0 1 0
2875 1 1.9316019562553237e+00 9.2903882106399944e+00 3.3891953964955107e+01 0 0 -1
698 1 3.9614701961702035e+00 4.1757214877440269e+01 1.6186445652610775e+01 0 0 0
2886 1 4.2984185684422878e+00 1.0395152042226337e+01 3.4764870888450467e+01 1 0 -1
2525 1 3.4850243707431763e+00 1.2484628118229175e+01 3.3418072872172445e+01 1 1 0
632 1 4.7197020938444743e+00 2.1223690050618274e+00 3.6995611914880548e+01 0 1 0
3425 1 4.8244272525394010e+00 3.0791386061656759e+01 3.9395878944051773e+01 1 0 0
39 1 4.1514483879185771e-01 2.3599226094707930e+01 1.0080580128166996e+00 0 0 0
3902 1 7.1409496103680958e-01 3.9525877217744302e+01 4.0301360906395054e+01 1 0 0
658 1 4.0214366780374320e+00 1.9729166528408410e+01 3.1817118656226967e+01 0 0 0
1224 1 4.6645843588339533e+00 1.9338374532366323e+01 2.6820229743424289e+01 0 1 0
1338 1 2.6441427352558962e+00 2.6179107698078276e+01 3.5832693183042636e+01 0 0 0
3549 1 3.0567741347538600e+00 2.5801167512228798e+01 3.3147851140960448e+01 1 0 0
549 1 3.0146680782459963e+00 2.8789108127710684e+01 3.2552132730998281e+01 0 1 0
3711 1 3.0988663753943180e+00 3.5049359003340420e+01 1.0284354662053293e+01 1 0 0
3191 1 1.0298553602943759e+00 3.3317080377946418e+01 3.1018034328873302e+01 1 0 0
3259 1 1.8408266823433861e+00 3.3091644460574805e+01 3.3734232514385674e+01 1 0 0
186 1 4.4455716632790789e+00 2.7090158482514550e+01 2.2026071739961896e+01 0 0 0
149 1 1.8893909799506852e+00 4.0129706250055669e+01 3.2275816997051820e+01 0 -1 0
1197 1 3.4566216087229664e+00 4.2117429709704581e+01 3.1288693948655297e+01 0 0 0
84 1 2.3976682794107416e+00 3.3535870673043839e+01 5.0106482430981146e+01 0 0 -1
1903 1 4.6471612442446926e+00 4.3153141151214356e+01 3.3552183941650135e+01 1 -1 -1
3172 1 4.4663825780529063e+00 1.7052407738199229e+01 2.3145117830311779e+01 1 0 0
3914 1 3.5271703051093719e+00 4.8921767606143796e+01 3.3551857616654736e+01 1 -1 0
117 1 3.5612465321319915e+00 5.6901071505268597e-01 3.2871682212610366e+01 1 0 0
958 1 7.7333312699825607e-01 2.1044516587942841e+00 3.5884364048896494e+01 0 0 -1
816 1 4.5767760502996104e+00 3.5403903633506552e+01 3.7988274999648070e+01 0 0 -1
2402 1 1.7757800770105656e+00 6.6098957564646676e+00 3.5547424090190283e+01 1 0 0
2004 1 2.4913998140053124e+00 4.8393949168660466e+00 2.9688553683324155e+01 0 1 0
3274 1 3.4630212707709109e+00 6.7875785722654429e+00 3.7732583517906875e+01 1 0 0
3463 1 2.1811250116230907e+00 1.0839463677074258e+01 3.7174240897277024e+01 1 0 -1
2022 1 3.9027840054647354e+00 9.2452931060747208e+00 3.8164127831603807e+01 0 0 0
636 1 2.2041877935960010e+00 1.3652094312942246e+01 3.8001535225601778e+01 0 0 0
3632 1 3.6830566455646170e+00 1.1309459143765810e+01 2.6296731662593928e+01 1 0 0
3269 1 2.2584458210726845e+00 1.7777719652298689e+01 3.7784185558605564e+01 1 0 0
2385 1 3.0295351220230042e+00 1.9152244083406853e+01 3.5474429930741827e+01 0 0 0
2415 1 3.5188245885093399e+00 2.1807824877185229e+01 3.6447262739062239e+01 0 0 0
38 1 2.0741951216067456e+00 2.4362841630090578e+01 3.7936384315933878e+01 0 0 -1
243 1 2.5465532986272610e+00 2.8726736416779982e+01 3.9214200338468572e+01 0 0 0
3864 1 3.8666193814375731e+00 2.8401632347883329e+01 3.6948232949808023e+01 1 0 0
299 1 4.3997514341555686e+00 1.5866917711854521e+01 1.7885025861094963e+01 0 0 0
2894 1 4.7297118448375253e+00 3.2747428080778143e+01 3.4683764604104688e+01 0 0 0
2483 1 4.0912870100829419e+00 2.7769868508877906e+01 2.4679694165717510e+01 1 0 0
4064 1 4.5475804657012606e+00 1.4569777880097918e+01 3.7248805135643451e+01 1 0 0
803 1 3.2739085662495908e+00 3.8287593048418387e+01 3.4024801750346306e+01 0 0 0
2455 1 3.0400578691078346e+00 3.9226326711474094e+01 3.6937222060290956e+01 1 0 0
1077 1 3.4758503260214870e+00 4.2964022049816514e+01 3.5966757268038428e+01 0 0 0
3093 1 4.1563599965347180e+00 4.5136002189422598e+01 3.7863630083307775e+01 1 0 0
2803 1 1.6103072654039183e+00 4.9889165878523677e+01 3.7381425671162305e+01 1 -1 0
1199 1 1.9651094152866286e+00 3.1144409623412074e+01 4.8517866588956551e+01 0 0 -1
3691 1 3.8788911969935516e+00 4.9128465921902404e+01 3.8108788856085127e+01 1 -1 -1
204 1 3.5694817385725539e+00 3.8151352857502459e+01 1.6541128232367885e+01 1 0 0
508 1 6.1132278910525528e-01 3.7659999105704955e+01 5.5802677490333554e+00 0 0 0
15 1 3.6744862885455518e+00 2.3117143348591735e+01 1.0860550528363160e+00 0 0 0
4033 1 2.2674064974899979e+00 7.5581750240372774e+00 4.1262188697917814e+01 1 0 0
68 1 3.4151659121681930e+00 4.5895561075057365e+01 5.4290303112972440e+00 0 0 1
2587 1 3.8470360246477604e+00 9.6372797570756408e+00 4.0648951433461214e+01 1 0 0
1531 1 1.9749706754289795e+00 1.3899356800085837e+01 4.0490168341225996e+01 0 0 0
2488 1 3.2012270968620342e+00 1.5609722418151545e+01 4.1902280603152612e+01 0 0 0
328 1 3.8554887969725260e+00 1.0935769217459248e+01 4.9485143217444175e+01 0 0 0
491 1 2.3559196869528010e+00 1.7754708652148661e+01 4.0632963896193843e+01 0 0 0
264 1 1.2071080295169936e+00 2.2959562214096508e+01 4.2481703400996444e+01 0 0 0
932 1 3.6169457088297463e+00 2.1602557527668438e+01 3.9226237987015423e+01 0 0 -1
2433 1 4.2704447281648923e+00 4.7777069859799035e+01 2.1297080196390521e+01 1 0 0
3481 1 3.9892065428727257e+00 2.6050907256757899e+01 3.9871771595149795e+01 1 0 0
1469 1 8.2951512895671764e-01 3.1037499187068601e+01 4.0641818202483137e+01 0 0 0
374 1 3.7372941465652976e+00 3.2588176359557224e+01 3.7513875258349117e+01 1 0 0
74 1 4.1190583735466504e+00 4.4722848066485945e+01 4.6522677360304094e+01 1 0 0
3843 1 2.7509797225537085e+00 3.7248537763392569e+01 3.8641329757453867e+01 1 -1 -1
622 1 3.0411890473227858e+00 3.2099973035635173e+01 2.9780042801328278e+01 0 0 0
436 1 4.6296230836678616e+00 2.2349667829880790e+01 4.5113787168928475e+01 0 0 0
579 1 3.3030414903637917e+00 5.0214063518172381e+01 7.4264126832957480e+00 0 -1 1
197 1 4.5289335385320504e+00 4.0465848067932733e+01 1.9943030492194055e+01 0 -1 0
207 1 2.4238097108987415e+00 4.6908197122209685e+01 3.8716288884080534e+01 0 0 0
1468 1 3.0886684712546950e+00 4.6264804949319377e+01 4.1299599356618742e+01 0 -1 0
2048 1 3.6127534466166935e+00 6.9178855324201693e-01 4.2177476079854188e+01 0 1 0
3321 1 1.7455464616471821e+00 3.7270681855630978e+00 4.8079568832493912e+01 1 0 -1
316 1 1.7053742179274205e+00 3.5954633950727718e+01 3.4600494207589264e+01 0 0 0
1681 1 1.8663170423777746e+00 7.6257895528203790e+00 4.5258782738738567e+01 0 0 0
4031 1 3.9213743042573062e+00 8.8242903450143988e+00 4.4265529740411466e+01 1 0 0
424 1 1.9624553106413996e+00 1.1473928186000160e+01 4.1425639568302451e+01 0 1 -1
1419 1 3.3090484217883565e+00 1.1685782683727080e+01 4.3660694862867835e+01 0 1 0
808 1 1.5370137249200606e+00 1.5336300633878087e+01 4.4109868730670357e+01 0 0 -1
792 1 1.1472240331956423e+00 2.0011217548740440e+01 4.2191822509330294e+01 0 0 -1
1190 1 3.8179208811104219e+00 2.0006755586209625e+01 4.3786339884084327e+01 0 0 0
3445 1 2.9114552131098344e+00 2.5152098445954405e+01 4.2581352826119186e+01 1 0 0
915 1 4.6996170424448866e+00 2.3430354687133526e+01 3.3000975986764423e+01 0 0 0
3886 1 3.0397592032965157e+00 3.3060125668218404e+01 4.2186628250306875e+01 1 0 0
1092 1 1.1306277363973134e+00 3.5705781870866126e+01 4.2701942196233368e+01 0 0 0
3839 1 4.7491748944920076e+00 4.6078496722174400e+01 9.5186698123545348e+00 1 0 1
1372 1 3.9027782732303486e+00 3.1789066206755969e+01 4.0924320613219374e+00 0 0 0
2727 1 3.7408681333392457e+00 3.9870841276263974e+01 4.4311897292827638e+01 1 0 -1
3785 1 3.4506487310188478e+00 7.0630753726542772e-01 9.8550807990216676e+00 1 0 -1
93 1 3.4453414212977953e+00 4.3766918051541296e+01 4.2477094194546986e+01 0 0 0
3289 1 1.5759228872293887e+00 4.7508876625612366e+01 4.2851252482874486e+01 1 0 0
791 1 1.1736046472419108e+00 5.0376514183011189e+01 4.2143989473441422e+01 0 -1 0
3397 1 2.3409871386236922e+00 1.8808317507123797e+00 4.4597492862572153e+01 1 0 0
969 1 3.3726842052190649e+00 5.4761039510704421e+00 4.6772442680098727e+01 0 0 -1
2073 1 3.7834948070576222e+00 2.7599203989871349e+01 4.9054664505254898e+01 0 0 0
571 1 2.8581687115484358e+00 1.3473564435599654e+01 4.5955537740366246e+01 0 0 0
114 1 3.0438402432432410e+00 1.7290531951012611e+01 1.3747738570624310e+00 0 0 0
1635 1 2.4478067770062641e+00 1.7795069421833372e+01 4.5225469185544497e+01 0 0 0
454 1 2.2246935164230250e+00 2.0911101787442124e+01 4.9157980444933230e+01 0 0 0
819 1 4.1009721589161110e+00 3.6011364240149987e+01 4.2598443205898896e+01 0 0 -1
845 1 3.2467926154196509e+00 2.4056522256106838e+01 4.6933040220742733e+01 0 0 0
3190 1 2.6063760704424048e+00 2.6308926305485745e+01 4.5292967675078430e+01 1 0 0
1277 1 3.0855383011129329e+00 3.1630000266755456e+01 4.4641257567260297e+01 0 0 -1