LAMMPS data file via write_data, version 7 Aug 2019, timestep = 5000000

4095 atoms
1 atom types

1.2870082409533978e-01 5.1291299175900107e+01 xlo xhi
1.2870082409533978e-01 5.1291299175900107e+01 ylo yhi
1.2870082409533978e-01 5.1291299175900107e+01 zlo zhi

Masses

1 18.15

Atoms # atomic

1211 1 2.3124994414716533e+00 1.3857367694335609e+00 5.7517166414174248e-01 0 1 0
450 1 3.9391058399215386e+00 1.5164064633539196e+00 2.7205394926637902e+00 -1 1 -1
2753 1 3.5084841869028014e+00 5.8679619156408318e+00 1.0412304466617206e+00 -1 0 -1
111 1 2.0188091703342853e-01 9.4787911089809054e+00 4.2849738661410447e-01 -2 1 -1
2606 1 4.1070018379959530e+00 1.0445131737760406e+01 1.6155231105339374e+00 1 1 1
177 1 3.9739256541746184e+00 1.3001205561969877e+01 8.2111387421532478e-01 0 1 3
2281 1 1.2277686146793940e+00 1.3536734415926070e+01 9.8560611093600758e-01 -2 0 -1
3593 1 6.5182838407065891e-01 1.6133833014583598e+01 4.5430929150723981e-01 3 0 1
1809 1 2.1861989868570606e+00 1.7878204435653487e+01 1.9294372065326222e+00 2 1 -1
1436 1 1.3816445783472397e+00 2.0175360866487491e+01 1.0215971941890178e+00 -1 -1 1
908 1 2.9798784191242653e+00 2.1704969417630668e+01 2.4493817251600678e+00 1 0 0
1416 1 2.6075358822619754e+00 2.4214388319837656e+01 1.7732397240037305e+00 2 0 1
3988 1 1.1921520194429345e+00 2.8847245971961875e+01 2.8972411578248987e+00 -1 0 1
2869 1 3.4039804514041081e+00 2.9898015471967092e+01 1.8485672702552092e+00 -1 1 1
242 1 2.2137693131771935e-01 3.2739707223863476e+01 1.4579230857976939e+00 -1 -1 0
1788 1 2.8392381796784618e+00 3.2531327222683601e+01 1.0812082667269667e+00 -2 0 2
2067 1 4.2671423681660352e+00 3.4263215408440296e+01 2.7646357946172873e+00 0 0 1
2033 1 1.2338225631385411e+00 3.7000228528831279e+01 1.6296312097129819e+00 0 3 -1
3572 1 3.7552796578759930e+00 3.6662310565177293e+01 1.3892749037647441e+00 3 -4 1
824 1 7.0125433168058038e-01 3.9782237286169369e+01 1.2368430811346360e+00 -1 -1 0
1152 1 3.4858220760241072e+00 4.4949139014945686e+01 3.3103487088100754e+00 0 0 1
901 1 1.7583632823568862e+00 4.5306227899528565e+01 1.2375633539917099e+00 0 0 0
2985 1 1.2216171284163468e+00 4.7418071481181030e+01 2.0134071512355117e-01 1 0 1
1724 1 1.2921434140141916e-01 4.8765080468367259e+01 2.3564196014852179e+00 1 1 0
3653 1 7.6871386197805014e-01 2.2638077434245920e+00 5.3151651730633898e+00 -1 1 1
2519 1 3.3159062272821598e+00 3.1039050556932062e+00 4.6668774937330966e+00 1 0 2
1058 1 2.6499264965584692e+00 5.6998238418564799e+00 3.6929033219348915e+00 1 -1 2
638 1 4.0491627179589154e+00 7.6166547937063447e+00 5.0048944506745334e+00 0 0 0
2715 1 3.2094024356271218e+00 1.0114874689842154e+01 4.2295358879180416e+00 2 0 1
1109 1 7.9027416307228959e-01 1.0705815074733332e+01 4.4048799695780874e+00 0 0 2
932 1 1.9833917573306843e+00 1.5107376474972142e+01 5.3161668467746663e+00 0 -1 -2
1421 1 7.3677299060917101e-01 1.3275546616120197e+01 3.9458360265511367e+00 1 0 2
3800 1 4.3763114770880520e+00 1.4314804771794796e+01 5.0647123011534267e+00 0 1 0
3446 1 1.4612444311945143e+00 1.7561031494777136e+01 4.4095436729823145e+00 0 2 1
2702 1 3.0577679628829113e+00 1.9370426957323293e+01 6.0644652727647870e+00 1 2 0
805 1 2.5042917142614494e+00 2.1932761635852145e+01 5.1395821770590011e+00 0 0 0
1598 1 1.7566852052424431e+00 2.6336731916548462e+01 3.7429727525885061e+00 2 1 -1
1615 1 3.0579610871177278e+00 2.6434828712909781e+01 6.0710452955666891e+00 2 1 1
2356 1 4.2776556520150484e+00 3.1393612621117736e+01 6.1344763421672290e+00 1 -1 1
1930 1 3.5349138047231783e+00 3.3755722186160213e+01 5.1445207733331308e+00 1 0 1
3396 1 1.0167098969373738e+00 3.4569757078527324e+01 5.5908389699783019e+00 1 0 -1
2692 1 9.0180341139036546e-01 3.6982229599317144e+01 4.2063627192411452e+00 1 0 0
2915 1 4.4464135990896283e+00 3.7992432670600003e+01 5.6761242829561089e+00 -1 0 -1
1756 1 2.0040432999819466e+00 3.8757550484361602e+01 6.0827630376272905e+00 0 0 -1
1644 1 1.8606741430524785e+00 4.1324768713917621e+01 4.9405784181290953e+00 0 0 1
4069 1 4.0135368896472770e+00 4.2412228451003024e+01 3.9797410112992360e+00 2 2 1
2663 1 2.4345119516717433e+00 4.6471646296637445e+01 5.1786342513374146e+00 0 -2 1
2870 1 3.6224380700566883e-01 4.5475320573095154e+01 6.2475195642191936e+00 0 2 0
2590 1 2.2637615432714404e+00 4.8902371913747928e+01 4.3168116574287581e+00 0 -1 -1
641 1 1.3037480528943954e+00 5.0595461098766094e+01 6.1263578319115295e+00 0 -1 2
1197 1 4.3708029634319043e+00 4.9959586110711967e+01 3.3520587713628935e+00 0 0 1
3148 1 4.6599826669643676e+00 2.9273872720511909e+00 6.9370335094155822e+00 0 1 -1
3438 1 3.7733879443768599e+00 4.9751521287541491e+00 8.4439416988039113e+00 -1 0 1
2321 1 1.5053608767199145e+00 3.8510885980869678e+00 9.4944234455311189e+00 2 -1 -1
1938 1 3.1555388439553140e+00 7.2995901377075283e+00 7.4765187313290351e+00 2 0 1
3619 1 8.1262427694030148e-01 8.0400943899325590e+00 8.0906878886587599e+00 0 0 0
1826 1 1.6933907238109749e+00 1.1875853115965784e+01 8.6201691622263823e+00 2 -1 1
668 1 4.4372523527119210e+00 1.1561981095973797e+01 8.6182476238276564e+00 0 1 1
1820 1 1.1755513478160893e+00 1.4643965797908718e+01 7.8313037261273069e+00 1 1 0
37 1 2.8372805961874490e+00 1.6453160488683146e+01 9.0802530361760265e+00 1 1 0
1562 1 2.2672976847051709e+00 1.9068050568626191e+01 8.5739151025992086e+00 -1 -2 0
4080 1 4.5811305222431847e-01 2.3879517253790162e+01 9.3945788025517754e+00 2 3 1
660 1 3.7667484069168475e+00 2.3817537042177317e+01 6.8523831840445766e+00 0 0 1
3527 1 3.0793262586951005e+00 2.3375853505601363e+01 9.3708763060944431e+00 1 3 2
1759 1 1.9125149701973010e+00 2.7996616853169211e+01 7.9398319218351503e+00 -3 -1 -1
2701 1 1.8780039918244416e+00 3.0534891192517136e+01 6.5706042877305553e+00 1 -1 0
2849 1 8.1158844404654074e-01 3.1335669568496947e+01 8.7813662713411578e+00 0 0 2
1175 1 4.2066410232088597e-01 3.4140407073335474e+01 8.1296014029157639e+00 1 -2 0
3179 1 4.2971455877790765e+00 3.5402034678247425e+01 9.3285863960270632e+00 1 -1 0
1974 1 6.7658348516967870e-01 3.8049370694174129e+01 8.1966411683738620e+00 1 0 1
1276 1 1.6150446760498731e+00 3.5847359508890889e+01 9.5519250072079505e+00 0 -1 1
3479 1 4.0859296422886029e+00 4.3886042390130548e+01 7.6329439885653843e+00 0 1 1
4004 1 1.5634232927686473e+00 4.3210070390362411e+01 7.1221805304960046e+00 2 -3 -1
540 1 4.0464683428505541e+00 4.6584260295640021e+01 7.1267181039022809e+00 -1 -2 1
340 1 3.1709374653227442e+00 4.8057495392479481e+01 9.0403191849211240e+00 -1 -1 2
959 1 3.0386029964030707e+00 5.0740991517747361e+01 8.2423528352733335e+00 2 -2 2
664 1 2.0262917190618142e+00 1.0336744183133324e+00 1.0169162624008674e+01 0 0 0
3761 1 3.5536877469016255e+00 1.0633681257788199e+00 1.2400553702198239e+01 0 0 1
699 1 3.5079278601058939e-01 4.9644793997439178e+00 1.1613283908664288e+01 -1 1 0
1190 1 4.6951463367950188e+00 5.8023784853109328e+00 1.2702344754689816e+01 0 1 1
3011 1 4.2115612929846549e+00 8.4403983290836848e+00 1.1676867635380692e+01 1 3 0
3497 1 1.5084948449408708e+00 9.3973290700622201e+00 1.1843957223043384e+01 1 0 0
405 1 7.7130120013644354e-01 1.2234162275295349e+01 1.1346747387348417e+01 1 3 1
1710 1 2.2797256439715721e+00 1.4093370352987863e+01 1.2771255116145449e+01 1 -3 0
2938 1 1.9685009382910441e+00 1.6423652478851679e+01 1.1521678558471624e+01 0 1 3
2014 1 3.8861601967591111e+00 2.0912707059877146e+01 9.9661888215911603e+00 3 -2 0
2417 1 2.6666943768644069e+00 2.0670291669955898e+01 1.2383866066721646e+01 1 1 2
396 1 4.1417539544839714e+00 2.5434746495930664e+01 1.0726462517900352e+01 0 -2 -2
655 1 3.5628306584514626e+00 2.7782080985260212e+01 9.8765922169718898e+00 -1 0 -1
1595 1 2.6134555914746365e+00 2.8986962463090187e+01 1.2234082515821274e+01 1 0 1
1482 1 2.1818335868777403e+00 3.1525311153477471e+01 1.1122362740167706e+01 -2 -1 1
2379 1 4.6671101245532149e+00 3.2860571563969501e+01 1.0346858292615790e+01 4 2 1
1875 1 1.0021800006976056e+00 3.5823551316860232e+01 1.2178394239789899e+01 1 -1 0
2449 1 1.9772953302089054e+00 3.9901970785264609e+01 1.2313235413605623e+01 2 -1 1
3231 1 4.3116010732619054e+00 4.1136532441313875e+01 1.1421004882969006e+01 2 -2 1
1932 1 4.5279749183261231e-01 3.9968138659055867e+01 1.0098324849721896e+01 2 -3 0
866 1 1.4307819655691416e+00 4.4209125881923967e+01 1.0851266589683970e+01 -1 -1 0
3155 1 3.9371922714237662e+00 4.3568386485242605e+01 1.0379168855511852e+01 1 2 -1
1676 1 1.0008305407579074e+00 4.6594825013301460e+01 9.7740055853568517e+00 0 1 2
3881 1 2.2407245806106348e+00 2.4244209867052655e+00 1.4603429111130096e+01 1 0 1
2009 1 2.2350333702524705e+00 5.1395205873100593e+00 1.3655273803112259e+01 1 2 0
982 1 1.2812134393651322e+00 6.5872457785818890e+00 1.5686280318906219e+01 1 -2 0
3496 1 7.5403958452895714e-01 9.0374669474546945e+00 1.4503742648432951e+01 0 -1 1
3452 1 4.4097402684987346e+00 1.0019331363080331e+01 1.5637280837712170e+01 2 2 0
3482 1 1.4495611407584337e+00 1.3128355283004566e+01 1.4987921543401916e+01 1 0 -1
2118 1 2.8209268567749519e+00 1.8170003850241475e+01 1.3482174115213478e+01 0 -1 2
1180 1 2.1967102394865998e+00 1.7778414643086993e+01 1.6017570747578208e+01 1 0 0
3465 1 3.9608803274546083e+00 2.2302830831837188e+01 1.4258196883218911e+01 2 -1 -2
411 1 3.3552559839914888e+00 2.4743731583112726e+01 1.3337089547742954e+01 -2 -1 -1
633 1 6.4249781609440293e-01 2.5336824540922905e+01 1.3470654668622544e+01 0 0 -1
1880 1 4.4715697697776635e+00 2.9063152354576669e+01 1.4202753306955163e+01 -2 3 2
2127 1 1.0022505917323095e+00 3.3264680752691895e+01 1.3009194323441429e+01 2 -2 2
3733 1 3.1027647819463278e+00 3.3193198237703612e+01 1.4918588902420650e+01 0 2 -1
2426 1 2.6700832067858604e+00 3.7404346606646001e+01 1.3386180154006430e+01 -1 0 0
2216 1 1.8936584960271761e+00 3.7067256398261499e+01 1.5942369041673199e+01 -1 0 -1
3887 1 1.0164532577532490e+00 4.1348618722655267e+01 1.4529095364315403e+01 1 -1 1
3505 1 7.4430355062666576e-01 4.3929761073722780e+01 1.3333503927988282e+01 1 0 0
477 1 2.0015696464287194e+00 4.5915540944367308e+01 1.4555410623855602e+01 0 2 1
1354 1 4.4493399653811299e+00 4.5011830303066560e+01 1.4761142223598290e+01 -1 -1 1
861 1 1.6339128354238583e+00 4.8565982505125675e+01 1.3865850232050123e+01 0 0 0
2001 1 3.9273722899811250e+00 4.9505305100429737e+01 1.3292045806981946e+01 1 0 2
1204 1 5.6573252247388361e-01 5.0163377124476078e+01 1.6068081267745622e+01 0 0 -1
138 1 3.9934759204275334e+00 2.3177942872512083e+00 1.6733151418132209e+01 0 0 1
3796 1 3.2002852822411327e+00 4.2347288334340103e+00 1.8957561825802060e+01 3 1 0
4018 1 2.9116205681171183e+00 6.7025306204312605e+00 1.7909559423250517e+01 1 1 0
151 1 1.9818617294837233e+00 1.0761902459574824e+01 1.6147380744622929e+01 1 -1 -2
3468 1 1.9788038159934755e+00 1.0992099792143796e+01 1.8555890563358364e+01 0 -1 0
3884 1 4.3424326706280096e+00 1.1996158826974934e+01 1.9038295878866375e+01 0 0 -1
398 1 2.6947670614410586e+00 1.5286481695451382e+01 1.6248616973330666e+01 1 -3 -1
142 1 1.7946380631937644e+00 1.5148516595692421e+01 1.9151729449720136e+01 -1 2 0
1153 1 4.4038209026682656e-01 1.2921197972553243e+01 1.9118636399520078e+01 0 0 0
1381 1 3.7301504652818571e+00 1.9608571089917067e+01 1.7475002898271587e+01 1 2 1
1566 1 3.0872378775465790e+00 2.2027445897219010e+01 1.6854038676168695e+01 0 0 1
3028 1 4.5394592749982809e+00 2.3814542923400925e+01 1.8589265904603035e+01 1 2 -1
650 1 4.7474056498502770e-01 2.2537568968086958e+01 1.6910502113915804e+01 0 2 0
2633 1 1.4321269766146629e+00 2.6972935513487705e+01 1.7595744982881936e+01 0 1 -1
3766 1 3.9213268358337654e+00 2.6145000842628299e+01 1.7551431219094084e+01 2 1 0
2456 1 3.8095465238920085e+00 3.0811863344594894e+01 1.6144054073278149e+01 1 -1 -3
3149 1 1.4801381841812307e+00 2.9643146796659231e+01 1.6957694216025615e+01 0 1 2
3241 1 2.8186869487765875e-01 3.1022871209272704e+01 1.8904936203751205e+01 2 0 1
162 1 2.7364259743344195e+00 3.4659574647194795e+01 1.6875016659352436e+01 0 0 0
1407 1 3.2526950103077144e+00 3.8750774081157388e+01 1.7379121447694359e+01 1 0 0
1125 1 2.7647016666458284e+00 4.1222441714293829e+01 1.6550139946344981e+01 0 -1 -1
283 1 2.0999849615011335e+00 4.3188876756302534e+01 1.8176009869806560e+01 -1 0 0
2672 1 1.4737354838639403e+00 4.5599631458830494e+01 1.7139665514613103e+01 1 1 0
1056 1 2.6289250160958493e+00 4.7587030721288571e+01 1.8843054425404151e+01 -2 -2 0
571 1 2.1818851476938708e+00 4.9971892932458694e+01 1.8094738280679795e+01 -1 -1 1
2629 1 4.6764463934208100e+00 5.0769524417241030e+01 1.7410725741945154e+01 -1 0 0
250 1 3.6180866441025733e-01 2.8944039954026097e+00 1.9559962208189997e+01 0 1 1
2316 1 2.7530446754194711e+00 5.1221723034893818e-01 2.2189235628814146e+01 1 0 0
2204 1 1.0490233669520226e+00 1.3172834339398737e-01 2.0156600131463268e+01 0 0 3
105 1 2.8281408779039396e+00 5.5133522261914365e+00 2.1465638804196914e+01 -2 -1 1
1077 1 2.9768114098748555e-01 6.1121477279833085e+00 2.1806032997556674e+01 2 1 1
1036 1 1.7362703103547932e+00 8.4580766399524592e+00 1.9528723680410351e+01 -1 0 2
2993 1 3.3000680772857041e+00 9.2465171061580094e+00 2.1673457355764100e+01 2 -2 0
2238 1 4.1679706087423822e+00 1.4295928843810641e+01 2.0211015792583964e+01 1 2 -1
1289 1 9.7350079570602155e-01 1.7556619585890676e+01 2.0409413935939543e+01 -1 1 0
1844 1 3.0759765365399185e+00 1.9367896150429626e+01 2.0170866862832455e+01 -1 -1 1
3353 1 1.7605485831735153e+00 2.1504084413840978e+01 2.1313272132492969e+01 0 -2 0
3731 1 3.3666973456875744e+00 2.3564359108842336e+01 2.1243121341128962e+01 2 1 2
1717 1 4.4690920888065548e+00 2.7637568785623881e+01 2.1958873315027947e+01 1 -2 1
1305 1 2.4826257514524519e+00 2.5957965939423758e+01 2.1845723095320086e+01 -2 0 -2
446 1 7.6569934037473808e-01 2.7063930176595825e+01 2.0199730656180730e+01 -1 -1 2
1019 1 5.3740397602076462e-01 2.9623280814120058e+01 2.0952404137517245e+01 0 2 1
3916 1 3.0945528313864035e+00 3.0061083914873890e+01 2.2106832852118920e+01 1 1 1
351 1 4.1949722771475910e+00 3.1900376095226626e+01 2.0361415697490806e+01 1 1 0
1141 1 1.8950924350735399e+00 3.3298277085408337e+01 1.9390431058133416e+01 0 2 0
1240 1 6.6210936491024985e-01 3.4506319923619024e+01 2.1466838603379145e+01 1 -1 1
1857 1 3.8544008786347739e-01 3.7157071419043852e+01 2.0737452443569726e+01 -1 -2 -1
291 1 4.5217151797979795e+00 3.8004659045165873e+01 2.1701073715857827e+01 0 -2 1
3444 1 4.6427516279389023e+00 3.5341094377427623e+01 2.2357652307456206e+01 0 -2 -1
2809 1 2.3129969659039626e+00 3.9026667849822921e+01 1.9955567241393247e+01 -2 -1 1
1184 1 1.4825085410773191e+00 4.1169799869101197e+01 2.0907610920750031e+01 -2 0 -3
2306 1 2.7498405903004630e+00 4.4475352531956339e+01 2.0759775909349340e+01 1 1 1
1133 1 7.7120479932225661e-01 4.6445013217061799e+01 2.0967159513517121e+01 2 0 0
587 1 3.5576009133824993e+00 3.1730047887475301e+00 2.2808138679981287e+01 1 1 1
3601 1 2.6310290363385200e+00 3.1908133587648551e+00 2.5310617730082981e+01 2 -2 1
2722 1 3.1705981082610973e-01 4.0731356421603007e+00 2.5685756109868226e+01 2 2 1
649 1 3.9446229067093062e+00 7.5722151529003332e+00 2.5202676773251603e+01 -1 -1 1
773 1 4.3468093744263356e+00 7.3688795801045952e+00 2.2736505605047075e+01 -1 0 3
1942 1 3.9369755350732305e-01 6.5304123051870340e+00 2.4602947444126368e+01 -1 -1 -1
3462 1 1.8100495014018276e+00 1.1592616641842069e+01 2.2983565314402352e+01 0 -1 0
1774 1 1.1194714900926730e+00 1.1009046866708529e+01 2.5445099909795552e+01 1 0 0
2481 1 3.5034455422512742e+00 1.3569807170689929e+01 2.3017187822494652e+01 -1 1 1
2708 1 2.5865499591402208e+00 1.6130469620985735e+01 2.3543284632883481e+01 -1 1 0
334 1 3.9678006430291424e+00 1.8296588896320312e+01 2.3932384194909165e+01 0 -1 -1
628 1 3.4889427160226871e+00 2.0567432705065801e+01 2.5338365351023850e+01 -1 0 0
3545 1 1.1386431336573086e+00 2.1613859145374388e+01 2.4384937040989222e+01 2 0 1
3433 1 1.9489790455646026e+00 2.5953117797629673e+01 2.4540815337387428e+01 1 0 0
422 1 2.4691706391962367e-01 3.0407610422494518e+01 2.4647148071773319e+01 1 -1 -2
1568 1 2.4864260704519210e+00 3.1721661761619998e+01 2.4298431167509090e+01 1 1 0
1660 1 2.3574047173529680e+00 3.4525154597411451e+01 2.3379690159721790e+01 0 -1 -3
2117 1 1.1964549740695865e+00 3.5853430815206977e+01 2.5227519243670336e+01 0 -1 1
2 1 9.7062625152894100e-01 3.8711764740924501e+01 2.4565225599422273e+01 -1 -1 1
1038 1 3.2579091726809919e+00 3.9607847292648231e+01 2.3643480906775679e+01 1 -2 -1
3932 1 2.9688652764498245e+00 4.2655395392180921e+01 2.2558127889315710e+01 2 1 3
1690 1 1.2086526244967317e+00 4.3435298656493202e+01 2.4716551441985931e+01 1 0 -2
3261 1 1.2548002418928434e+00 4.5962036483508392e+01 2.3937141538373460e+01 1 0 0
495 1 2.5614848116533135e+00 4.8102609090128873e+01 2.5586974821807356e+01 0 -1 1
4058 1 1.9113389085206218e+00 5.0552734537607279e+01 2.4712102791334217e+01 -1 -1 -1
1725 1 3.4641244313483606e+00 8.3650488560881664e-01 2.6085528615559848e+01 0 3 0
2644 1 2.9316146375324572e+00 3.6932440434753550e-01 2.8782008109315207e+01 0 -2 -1
1949 1 4.3813885543319433e+00 5.0738540225337196e+00 2.6465875814955172e+01 0 1 -1
3035 1 8.3174538992368474e-01 8.0782815752876544e+00 2.8560377776986762e+01 1 -1 2
2593 1 1.4966687814390482e+00 8.5141453932298177e+00 2.6080770962677430e+01 0 -1 1
3112 1 2.7813065160930499e+00 1.2734418961415773e+01 2.6676639260801295e+01 1 2 1
2647 1 2.8489950137595534e+00 1.5312782445180092e+01 2.6411674554194345e+01 1 0 -3
2875 1 1.0415107443903322e+00 1.7049949659499408e+01 2.7317862542650740e+01 0 0 -3
3512 1 6.8737787073749190e-01 1.9636504375329160e+01 2.6734002589511558e+01 0 1 -1
3755 1 3.7325741868619495e+00 2.4607832098610636e+01 2.6009141201850309e+01 -1 1 -1
3749 1 3.1551696993710747e+00 2.4191083435360472e+01 2.8694202514513879e+01 -1 3 0
2829 1 1.0327458370629325e+00 3.1979477985816729e+01 2.8736704988860396e+01 0 -1 0
2312 1 4.4376134729000869e+00 3.1207900129175655e+01 2.6201437964335017e+01 1 1 -1
2980 1 3.2805985547019016e+00 3.2850053151117116e+01 2.7907471035211536e+01 3 -2 1
2996 1 2.9849213346796168e+00 3.5371889613807909e+01 2.7261408600481321e+01 3 -1 1
1099 1 3.8712106836696996e+00 4.0786509723236115e+01 2.7685150347682470e+01 1 -1 0
3007 1 1.4711123724800852e+00 3.9825342257237821e+01 2.8484938209344957e+01 1 -2 -3
171 1 3.0645153424642002e+00 4.3480441838276306e+01 2.6670327729375796e+01 0 -2 1
538 1 2.0563809337307264e+00 4.5216190810112288e+01 2.8850076733572472e+01 1 0 0
2497 1 1.8071521179748578e+00 4.7506912427061785e+01 2.8051829417494680e+01 1 0 2
3792 1 3.0668814387039556e-01 1.3103719771707916e+00 2.9067387579578650e+01 1 1 -1
2709 1 4.2112527751835103e+00 2.3189254332934612e+00 3.0020852975643130e+01 1 1 -1
2124 1 5.0016228084235137e-01 5.3004799919010406e+00 3.1926245180621809e+01 -1 -1 0
666 1 3.7836337062546654e+00 4.8469144692986932e+00 2.9355479020093938e+01 -3 -1 0
1685 1 1.0738031450435574e+00 5.5731624529086563e+00 2.9474976374466774e+01 2 4 1
2949 1 4.4868938466657466e+00 9.1342333217872955e+00 2.9909829545484385e+01 4 0 0
278 1 1.7091776184427756e+00 9.8913972470590164e+00 3.0124456701688420e+01 0 0 -1
3049 1 1.6286489606666898e+00 1.2409391366844311e+01 2.8969058921346377e+01 -1 2 1
2036 1 3.0486559571899314e+00 1.4058498439676782e+01 3.0803174959840632e+01 3 0 -1
249 1 2.7834383774431695e+00 1.6735068240798547e+01 2.9730405076060602e+01 0 0 2
1642 1 1.5225545173695267e+00 1.8303783571652140e+01 3.1429194335567299e+01 1 1 0
309 1 1.0008773680067065e+00 2.0809003062891676e+01 3.0466666989611689e+01 -1 0 -1
228 1 3.4872493128630291e+00 2.1857931924434332e+01 2.9752165801369269e+01 0 1 -1
1230 1 5.1385254796018864e-01 2.5069505856640554e+01 2.9075657222310419e+01 1 0 -2
3248 1 4.3841320219661144e+00 2.6107451304806080e+01 3.0118691804106930e+01 -1 0 -1
1640 1 4.1901535981083615e+00 2.8879949568751947e+01 2.9741188037753894e+01 0 1 -2
373 1 1.3183927493412431e+00 2.9304668561071619e+01 2.9609318034485117e+01 1 -1 0
2581 1 2.2510992886411247e+00 3.7121798016062272e+01 2.8956336474936069e+01 1 -2 2
971 1 3.4232753694750939e+00 3.7272709591782409e+01 3.1609263715635414e+01 1 0 -1
3966 1 6.3057550278139951e-01 4.1236251075347539e+01 3.0345419354186774e+01 0 -1 1
1670 1 4.7206830517798588e+00 4.2152685314149366e+01 3.1842278423008107e+01 2 -1 -1
3940 1 3.6689903703696669e+00 4.4774460051637327e+01 3.1161129389579084e+01 0 -1 0
2035 1 3.0923683900255714e+00 4.9043854273850975e+01 2.9785841464002019e+01 -1 1 0
3745 1 8.4337519157109042e-01 2.7773953770977409e+00 3.3026298973722675e+01 -1 1 1
3981 1 3.7325165536636398e+00 1.8882221726578456e+00 3.2553198513906167e+01 -1 -1 0
2920 1 4.3591365106142090e+00 6.0805480821809565e+00 3.3247029415060780e+01 1 0 -1
1752 1 4.7103374392607540e+00 3.7645493319274923e+00 3.4071240317496041e+01 0 1 1
3180 1 1.7231114407006392e+00 7.1592608976823735e+00 3.3998456025962469e+01 1 1 -1
2551 1 1.0022056254017453e+00 9.4993340769451589e+00 3.2850110194147177e+01 1 1 2
707 1 2.5048202202442282e+00 1.1437615137162258e+01 3.4334444769411995e+01 1 -2 1
3515 1 2.2922455406123348e+00 1.3965613231351373e+01 3.3265577533693701e+01 4 2 0
3065 1 3.6106514063562001e+00 1.5910958828705548e+01 3.4782635733830823e+01 0 0 2
1704 1 3.0969007359726572e+00 1.8456258013495113e+01 3.3705083983406759e+01 -1 3 0
1449 1 1.3820345122054079e-01 2.2291290580562809e+01 3.2613334496931103e+01 -1 0 1
2627 1 1.6565583298711810e+00 2.2548748811317605e+01 3.4759225631472795e+01 2 0 -2
3694 1 4.1537624082336615e+00 2.3342033202766022e+01 3.3919611037828105e+01 1 0 -1
2765 1 3.6474296861396249e+00 2.6107021548387852e+01 3.2815148101287292e+01 1 2 -1
2230 1 1.0891263661379098e+00 2.6659947386382051e+01 3.3320024673694874e+01 1 1 -2
92 1 1.9183852849623575e+00 3.1034885089143437e+01 3.3823612231006955e+01 -2 1 -1
3539 1 4.4968742347161221e+00 3.0430826685729713e+01 3.3814596503572503e+01 2 -1 0
646 1 6.6200618782428489e-01 2.9098375801017188e+01 3.2187977485570855e+01 1 1 1
342 1 6.2034088468637383e-01 3.4923635981487230e+01 3.4929464169055045e+01 1 -1 1
2136 1 3.9662020195731604e+00 3.4715349595219877e+01 3.2134875383215942e+01 1 0 1
2279 1 1.6637255994904290e+00 3.3558561846979764e+01 3.3095293861802240e+01 0 1 0
1076 1 1.5862194321657758e-01 3.7493247496273462e+01 3.4321282977866083e+01 0 0 2
3737 1 2.4970621929004939e+00 3.8695378492635434e+01 3.3589537194326091e+01 3 -1 -2
1929 1 2.2540600752455955e+00 4.1217009208182304e+01 3.2809865826208444e+01 0 -1 -1
298 1 7.6742360354615480e-01 4.2522230515041102e+01 3.4539441376152581e+01 -1 -1 -1
1405 1 2.8164776647196232e+00 4.6366247431808617e+01 3.3220265831324504e+01 1 0 -1
972 1 5.5255945296356868e-01 4.5210392669750718e+01 3.3701000658005690e+01 0 0 1
1798 1 4.7023373050560657e+00 4.6326292592854337e+01 3.5119017763981738e+01 0 -2 1
3969 1 2.4476323344163138e+00 4.8955373796668290e+01 3.2286334434727330e+01 -1 0 -1
1472 1 4.0055687667505548e+00 5.0573286927677685e+01 3.3667158452509305e+01 0 0 0
1739 1 4.5074713606838444e+00 1.0639919112693283e+00 3.7598387404833716e+01 0 -1 -2
1868 1 1.4172446917898895e-01 2.4937740290477528e+00 3.5573582262367538e+01 1 -1 -2
3901 1 4.2099827731668125e+00 3.7791259356374538e+00 3.6830526131632539e+01 0 0 -1
3004 1 1.6402930254848387e+00 4.0214686201851144e+00 3.7006431896728635e+01 0 2 -1
3220 1 9.2424706723669925e-01 6.4694212822335890e+00 3.6288694563547701e+01 2 -1 -1
1654 1 2.3324625585451479e+00 8.4878034452852589e+00 3.7684793245356587e+01 2 1 0
1622 1 1.8685312532692087e+00 1.1036000524013488e+01 3.6918439812455006e+01 2 0 -1
3015 1 3.4063831955199464e+00 1.3098472154731546e+01 3.8044433410850665e+01 1 -2 -1
999 1 2.8434282330778702e+00 1.5759523724387964e+01 3.7188752649834100e+01 0 1 -1
58 1 3.6648970566874470e+00 1.9875341579224319e+01 3.7814088864302157e+01 1 1 1
1440 1 2.0655017875285697e+00 1.9994354724788284e+01 3.5637313198588899e+01 -1 -2 1
3046 1 4.7292062926800389e+00 2.4957431358904408e+01 3.8136872940944308e+01 1 -1 1
3487 1 6.5158758975503162e-01 2.3851797689091534e+01 3.6643512469200061e+01 2 1 1
1351 1 3.3459225620364613e-01 2.6402880180173586e+01 3.5844332558507048e+01 1 -1 1
2474 1 1.5481308519066808e+00 2.8303662003250842e+01 3.6974534779479839e+01 0 1 -1
3157 1 4.3007678583762550e+00 2.7543537059626821e+01 3.6951825666269677e+01 2 2 -1
2665 1 1.1852956321462482e+00 3.0673407844774452e+01 3.6242910350105959e+01 1 0 -1
3182 1 2.4100946709827333e+00 3.2361728490432824e+01 3.7846654918574693e+01 0 0 -1
4063 1 2.3541670248210527e+00 3.4704435272233766e+01 3.7091206761503841e+01 1 0 -1
1003 1 4.1322068980159123e+00 3.8471204037996344e+01 3.5584045602635726e+01 0 -2 -2
2771 1 4.7353081835688746e+00 3.5875473292539269e+01 3.6297748643788680e+01 -1 -1 0
353 1 2.7614424270953433e+00 4.0098881906042379e+01 3.7435972358053419e+01 -2 0 1
1126 1 3.5866152771247573e-01 3.8766306689663672e+01 3.8079904425461926e+01 1 -2 -3
1964 1 2.4794449873236348e+00 4.2581470583359355e+01 3.6623545680698399e+01 1 -1 -2
490 1 1.2219457774718157e+00 4.6576557602535409e+01 3.7412086609242394e+01 1 -1 0
883 1 3.4981640507926959e+00 4.7953826757213562e+01 3.7092521357571023e+01 1 -3 0
1629 1 7.7548269424090477e-01 5.1263182589827629e+01 3.6686865541160536e+01 0 -1 0
97 1 3.2403525344430308e+00 5.0579793467547297e+01 3.6194122555328754e+01 -1 -2 -1
797 1 3.8989648928047629e+00 7.8144436581287868e-01 4.0216540360008324e+01 -1 1 0
3363 1 1.2535193198004584e+00 1.3928379202864971e+00 4.0425833725786525e+01 1 1 1
3138 1 2.2783970850371715e+00 5.7203987465381791e+00 4.1131323743367467e+01 1 0 1
3973 1 9.7620365764056993e-01 4.0029892870602790e+00 3.9745321336012047e+01 -1 1 0
2828 1 1.9508074894816285e+00 8.5380754903312042e+00 4.0276997372531660e+01 2 0 -1
845 1 2.8917389143378611e+00 1.2755463800944064e+01 4.0535687915693032e+01 -2 0 1
808 1 3.2012267530352485e+00 1.0403060374216478e+01 4.1577661077504949e+01 1 1 0
3223 1 3.8379530885168772e-01 1.3065484099716647e+01 4.0829992229687548e+01 2 0 0
2491 1 4.4501653293494448e+00 1.7301021270708137e+01 3.8806697579114633e+01 2 0 1
1789 1 3.6932787480523541e+00 1.7192000496321356e+01 4.1333787381273197e+01 -1 -2 -3
549 1 1.0079994229040192e+00 1.7730385255087285e+01 4.1356255817171792e+01 1 -1 1
3760 1 1.5294607222232104e-01 1.9980805328493876e+01 4.0464271343176478e+01 2 -2 -1
2548 1 2.6160613563888484e+00 2.1186679328450229e+01 3.9826048585388577e+01 2 1 -1
3595 1 2.2753864857198671e+00 2.3699286725731721e+01 3.8784703266322495e+01 0 0 0
369 1 1.4498156144994974e+00 2.5313441152597647e+01 4.0875832576446911e+01 -1 -1 -1
2358 1 7.5172352595508385e-01 2.7812863091375430e+01 3.9679529365983043e+01 -1 1 -4
2409 1 2.0236550357826300e+00 2.9546866637392451e+01 4.1209630136885380e+01 0 0 -1
2815 1 4.6871379575209646e+00 2.9006315604067375e+01 4.1300884517745445e+01 2 -1 -1
3367 1 1.8205853943035741e+00 3.2144013230777915e+01 4.0588456759871377e+01 1 1 0
2038 1 1.0542374120526752e+00 3.6168721712866102e+01 3.9127794315774544e+01 -1 -2 2
84 1 2.9133674767787783e+00 3.6307945688313843e+01 4.1348864592000922e+01 -2 0 -1
431 1 3.5669403276561975e+00 4.1522553131039899e+01 4.1478508190273750e+01 1 2 -1
2110 1 4.7283446747626163e+00 3.9882013356068867e+01 3.9477289873669307e+01 0 -1 2
3908 1 1.4855078589832906e+00 4.4164909911655705e+01 3.8520133308300615e+01 -1 -1 -2
1547 1 3.0997619943173196e+00 4.4001047205583987e+01 4.0510009832515003e+01 1 -1 0
2397 1 1.7620729499552823e-01 4.8024012672607654e+01 3.9528753691979901e+01 0 -1 -2
3233 1 4.1307435845678890e+00 4.9255274207251453e+01 4.0994132462246526e+01 1 1 0
1245 1 4.3862600995232315e+00 2.4370121224326469e+00 4.3988307786180776e+01 0 0 -1
4056 1 1.9494813168186504e+00 3.0612513492046061e+00 4.4661358751556982e+01 3 2 0
1401 1 6.6061390010557197e-01 1.2567237657818404e+00 4.3192584698366247e+01 0 1 -1
2457 1 1.5628684803474377e+00 5.5332294055091920e+00 4.3658900645820523e+01 0 0 1
1673 1 2.2562642363416479e+00 9.7207059891393968e+00 4.4027686053483848e+01 2 -1 0
519 1 4.2335816113695612e+00 1.4713569375241091e+01 4.1957482483776289e+01 2 0 1
1686 1 3.4227538307737047e+00 1.4632394678147314e+01 4.4604289423852272e+01 2 0 1
734 1 6.9112005016012779e-01 1.4954603431721438e+01 4.4644651428464130e+01 0 2 -1
822 1 4.3292259115542056e+00 2.1335280678987491e+01 4.1930754401223361e+01 0 0 -1
3801 1 9.3255781560775475e-01 2.1884856617343619e+01 4.4500230152412847e+01 0 -2 -1
2407 1 3.4486027060837716e+00 2.2798255509644523e+01 4.3845545033980805e+01 1 0 2
3777 1 3.0967947713743413e+00 2.5375956295219851e+01 4.3152576813628372e+01 0 -1 0
3337 1 1.2862092808931478e+00 2.9421821266075391e+01 4.3795241215587929e+01 1 2 0
3886 1 2.9955346305327000e+00 3.3840822608850083e+01 4.2376973010865910e+01 2 -1 2
2459 1 2.1946742868414675e+00 3.3552760579011675e+01 4.4779272683578547e+01 2 0 1
611 1 1.4572448153484407e+00 3.7993302313414482e+01 4.3189474803772953e+01 -1 -2 -1
2682 1 1.1536623344075467e+00 4.0648722610738524e+01 4.2048284232188735e+01 -1 -1 -1
1748 1 1.7945852059031422e-01 4.2164417988793488e+01 4.4003194652182820e+01 0 -1 0
1772 1 3.6729564963234385e+00 4.5370427077035103e+01 4.4570027296879040e+01 0 -1 0
1026 1 2.1925483626801126e+00 4.5586808921328078e+01 4.2483172733618495e+01 -1 0 0
1433 1 1.8357288225862713e+00 4.8229932662614814e+01 4.1826490103223293e+01 1 -1 0
1836 1 8.8087620192979910e-01 4.9812885748562536e+01 4.3915671608404132e+01 1 1 0
3571 1 4.5286394229573954e+00 5.0956928996596460e+01 4.4857691058572684e+01 2 -2 -2
3958 1 9.7993645879109192e-01 2.5006948775216058e+00 4.7057326250780747e+01 2 -1 0
2639 1 3.0176737374875380e+00 7.3032628177672869e+00 4.5104900349554228e+01 0 -1 -2
2160 1 2.3487774166347091e+00 7.3220600007797607e+00 4.7870528364193106e+01 0 1 1
1890 1 3.2217561944221478e+00 1.1379502166059156e+01 4.7953072894839799e+01 0 2 -2
2538 1 3.8436869328124716e+00 1.1673193440645990e+01 4.5230527728551380e+01 -1 0 -1
2487 1 4.7469422097308023e+00 1.5979550345151758e+01 4.6370812806759318e+01 -1 1 1
3513 1 4.1635823281891593e+00 1.8473381846393924e+01 4.5657566825569511e+01 2 1 -1
1554 1 1.0317700654622652e+00 1.8507774246944539e+01 4.7924670443508120e+01 0 1 2