
# Create simulation box and atoms
lattice		    sc 1
Lattice spacing in x,y,z = 1 1 1
region 		    all block 0 51.42 0 51.42 0 51.42 units box
create_box 	    1 all
Created orthogonal box = (0 0 0) to (51.42 51.42 51.42)
  11 by 1 by 1 MPI processor grid

create_atoms	1 random 4457 ${SEED} all
create_atoms	1 random 4457 3206 all
Created 4457 atoms
  create_atoms CPU = 0.0016799 secs

mass		    1 18.15

# Define potential

pair_style 	    sw
pair_coeff	    * * mW_real.sw mW
Reading potential file mW_real.sw with DATE: 2019-02-27

# Run minimization

minimize 	    1.0e-8 1.0e-8 10000 1000
WARNING: Using 'neigh_modify every 1 delay 0 check yes' setting during minimization (../min.cpp:168)
Neighbor list info ...
  update every 1 steps, delay 0 steps, check yes
  max neighbors/atom: 2000, page size: 100000
  master list distance cutoff = 6.3065
  ghost atom cutoff = 6.3065
  binsize = 3.15325, bins = 17 17 17
  1 neighbor lists, perpetual/occasional/extra = 1 0 0
  (1) pair sw, perpetual
      attributes: full, newton on
      pair build: full/bin/atomonly
      stencil: full/bin/3d
      bin: standard
Per MPI rank memory allocation (min/avg/max) = 4.259 | 4.262 | 4.265 Mbytes
Step Temp E_pair E_mol TotEng Press 
       0            0    3074190.7            0    3074190.7    2192827.6 
     723            0   -50296.134            0   -50296.134   -1245.2066 
Loop time of 1.97062 on 11 procs for 723 steps with 4457 atoms

99.5% CPU use with 11 MPI tasks x no OpenMP threads

Minimization stats:
  Stopping criterion = max force evaluations
  Energy initial, next-to-last, final = 
         3074190.74784     -50295.7564135     -50296.1340464
  Force two-norm initial, final = 4.72664e+07 3.98701
  Force max component initial, final = 2.37211e+07 0.633718
  Final line search alpha, max atom move = 0.0685833 0.0434625
  Iterations, force evaluations = 723 1001

MPI task timing breakdown:
Section |  min time  |  avg time  |  max time  |%varavg| %total
---------------------------------------------------------------
Pair    | 1.2767     | 1.6958     | 1.8666     |  11.6 | 86.05
Neigh   | 0.02143    | 0.029658   | 0.032283   |   1.6 |  1.51
Comm    | 0.029973   | 0.17605    | 0.5962     |  35.3 |  8.93
Output  | 0          | 0          | 0          |   0.0 |  0.00
Modify  | 0          | 0          | 0          |   0.0 |  0.00
Other   |            | 0.06913    |            |       |  3.51

Nlocal:    405.182 ave 426 max 396 min
Histogram: 3 2 0 3 1 0 1 0 0 1
Nghost:    1924.18 ave 1958 max 1896 min
Histogram: 2 0 0 3 1 2 2 0 0 1
Neighs:    0 ave 0 max 0 min
Histogram: 11 0 0 0 0 0 0 0 0 0
FullNghs:  13095.5 ave 13859 max 12753 min
Histogram: 1 4 2 2 0 0 1 0 0 1

Total # of neighbors = 144050
Ave neighs/atom = 32.3199
Neighbor list builds = 41
Dangerous builds = 0

# Create Cavity with Hard sphere "indent" potential

region		    cavity sphere 25.71 25.71 25.71 13.8 side in
delete_atoms	    region cavity
Deleted 362 atoms, new total = 4095
fix 		    5 all indent 10.0 sphere 25.71 25.71 25.71 13.8

# Equilibration of molecular water

# Add velocity/set timestep

velocity	    all create ${TEMP} ${SEED} rot yes dist gaussian
velocity	    all create 215 ${SEED} rot yes dist gaussian
velocity	    all create 215 3206 rot yes dist gaussian
timestep	    5.0

# Define output

compute			1 all msd
thermo	    	50
thermo_style	custom step temp press vol etotal ke pe c_1[4]

# Neighbor lists

neigh_modify    delay 0 every 1 check yes

# Set fixes

fix             1 all momentum 10 linear 1 1 1 rescale
fix             2 all nve
fix             3 all temp/csvr ${TEMP} ${TEMP} 500.0 ${SEED}
fix             3 all temp/csvr 215 ${TEMP} 500.0 ${SEED}
fix             3 all temp/csvr 215 215 500.0 ${SEED}
fix             3 all temp/csvr 215 215 500.0 3206
fix             4 all press/berendsen iso ${PRES} ${PRES} 1000.0 modulus 20000
fix             4 all press/berendsen iso 1.0 ${PRES} 1000.0 modulus 20000
fix             4 all press/berendsen iso 1.0 1.0 1000.0 modulus 20000

# Run 1 ns equilibration

dump		    1 all atom 2000 ${DIR}/eq.${NAME}-${TEMP}.dump
dump		    1 all atom 2000 run_0/eq.${NAME}-${TEMP}.dump
dump		    1 all atom 2000 run_0/eq.hardcavity_freeze_0-${TEMP}.dump
dump		    1 all atom 2000 run_0/eq.hardcavity_freeze_0-215.dump

reset_timestep  0

run	            200000
Per MPI rank memory allocation (min/avg/max) = 4.526 | 4.529 | 4.531 Mbytes
Step Temp Press Volume TotEng KinEng PotEng c_1[4] 
       0          215   -424.87457    135955.32   -43051.887    2623.7388   -45675.626 8.6989012e-34 
      50    135.53752   -242.79733    135864.05   -42493.643    1654.0235   -44147.667   0.21615412 
     100    152.48346   -59.777185    135731.55   -42015.142    1860.8222   -43875.965   0.40680154 
     150    166.21514   -115.97914    135702.95   -41688.038    2028.3959   -43716.434   0.60416174 
     200     176.8186   -126.14241    135542.48   -41386.068    2157.7945   -43543.863   0.79023127 
     250     189.9876     -164.674    135316.12    -41171.21    2318.5016   -43489.712   0.95174417 
     300    196.19514   -168.86983    134913.24   -41017.928    2394.2548   -43412.183    1.1225967 
     350    201.49392   -153.42154    134672.16   -40938.827    2458.9182   -43397.745    1.2781795 
     400    203.20213   -173.60944    134439.08   -40847.999    2479.7643   -43327.763    1.4359723 
     450    207.34312   -121.49181    134193.09   -40776.146    2530.2986   -43306.445    1.5886861 
     500    205.14814    19.016308     134204.5   -40685.188    2503.5123     -43188.7    1.7848073 
     550    207.92035    34.679906    134155.73   -40619.416    2537.3428   -43156.758    1.9595847 
     600    209.70712   -225.69882    134065.78   -40607.177    2559.1475   -43166.324    2.1402803 
     650    212.70638   -143.39998    133967.03   -40614.426    2595.7488   -43210.174    2.3286258 
     700    210.81556    -165.3735    133868.47    -40616.82    2572.6742   -43189.494    2.4954736 
     750    214.31256     15.34786    133684.64   -40639.345    2615.3497   -43254.695    2.6436462 
     800    214.86912   -39.758427    133628.07   -40641.831    2622.1416   -43263.972    2.8100115 
     850    212.19219   -227.15504    133450.24   -40601.664    2589.4739   -43191.138    2.9361285 
     900    212.91208    133.86653    133504.16   -40682.411     2598.259    -43280.67    3.0711187 
     950    211.54447     19.64002    133477.52    -40712.37    2581.5694    -43293.94     3.287786 
    1000    210.99442   -141.77905    133235.28   -40739.175     2574.857   -43314.032    3.4985999 
    1050    214.76259    59.469917    133098.23   -40724.175    2620.8416   -43345.017    3.6250531 
    1100    211.56017   -45.985603    132966.26   -40731.344     2581.761   -43313.105    3.7894028 
    1150    213.18587   -3.1367925    132926.87   -40726.212    2601.6002   -43327.812    3.9656032 
    1200    212.22263   -130.76307     132741.9   -40683.719    2589.8454   -43273.565    4.0934773 
    1250     215.5695   -142.52618     132623.1   -40695.566    2630.6887   -43326.255    4.2448141 
    1300    217.97671   -72.342066    132600.03   -40666.474    2660.0649   -43326.538    4.4337076 
    1350    213.42875    138.15997    132538.72   -40700.557    2604.5641   -43305.121    4.5882214 
    1400    215.20948   -7.2759623    132686.02   -40702.935    2626.2952    -43329.23    4.7140172 
    1450    214.83723    182.17708    132805.71   -40708.596    2621.7525   -43330.349    4.8269958 
    1500    208.86452    31.049779    132844.05   -40731.565    2548.8649    -43280.43    5.0302178 
    1550     215.4989   -67.060864    132772.64   -40677.862    2629.8271   -43307.689     5.224174 
    1600    214.30052    -90.86637    132631.03   -40666.701    2615.2027   -43281.904    5.3827467 
    1650    215.70923   -180.64301    132456.76   -40584.415    2632.3939   -43216.808    5.5559207 
    1700    217.10567    1.6329313    132290.28   -40621.795    2649.4353   -43271.231    5.7346425 
    1750     212.3372    -29.82037    132160.11   -40630.456    2591.2435     -43221.7    5.9176466 
    1800    215.64002     120.6711    132089.15   -40625.227    2631.5493   -43256.776    6.0760652 
    1850    219.43273    84.227049    132186.82   -40601.536    2677.8333    -43279.37    6.2955511 
    1900    221.01481   -34.379569    132169.79   -40617.019    2697.1402   -43314.159    6.4900223 
    1950    216.05497    109.78105    132109.81   -40664.076    2636.6131   -43300.689    6.6332477 
    2000    213.00276   -136.70042    132049.04   -40740.853    2599.3656   -43340.219    6.7487732 
    2050    219.87169   -59.816776    131961.47   -40725.288    2683.1902   -43408.478    6.8944665 
    2100    214.30624    119.13106    132009.47   -40743.419    2615.2726   -43358.692    7.0244824 
    2150    217.73837    52.901684    132152.54    -40708.03    2657.1564   -43365.186     7.060325 
    2200    215.83224   -8.7060891    132072.55   -40687.331    2633.8951   -43321.226    7.1671116 
    2250    214.65599    18.861925    132072.74   -40667.461    2619.5407   -43287.001    7.2475139 
    2300    218.22903   -66.553345    132074.96   -40673.983     2663.144   -43337.127    7.4831241 
    2350    218.93494    77.608394    132295.14    -40673.31    2671.7587   -43345.069    7.6842164 
    2400    214.55535   -39.414477    132224.35   -40684.499    2618.3126   -43302.812    7.8825298 
    2450    212.49664    14.163952    132224.03   -40721.337    2593.1892   -43314.526    7.9988979 
    2500    212.71665   -63.017941    132160.85   -40683.869    2595.8741   -43279.743    8.1874672 
    2550    215.75794    37.267304    132122.79   -40721.488    2632.9883   -43354.476    8.3135611 
    2600    212.95019   -90.559537    132040.67   -40688.596    2598.7241    -43287.32      8.49703 
    2650    212.88067   -145.01859    131991.09   -40699.023    2597.8757   -43296.899    8.5584473 
    2700    218.79183    40.605851    132071.55   -40651.186    2670.0122   -43321.198    8.7279765 
    2750    219.18255    -198.8225     132113.7   -40663.208    2674.7803   -43337.988    8.8656662 
    2800    216.08038    161.54413    132168.03   -40614.124    2636.9231   -43251.047    9.0020751 
    2850    214.99974    13.174593    132215.79     -40626.9    2623.7357   -43250.635    9.1703665 
    2900    217.49398    41.493386    132164.55   -40608.528    2654.1739   -43262.702    9.3373547 
    2950    218.14853    105.08712    132159.13   -40602.476    2662.1616   -43264.638    9.4815522 
    3000     215.0757    139.08378    132203.54   -40623.308    2624.6626    -43247.97    9.6363565 
    3050    216.49764    -122.6958    132271.59   -40596.406    2642.0152   -43238.421    9.7724588 
    3100    217.33341   -142.06445    132098.53   -40609.476    2652.2144   -43261.691    9.9174573 
    3150    217.69901   -18.956181    131994.54   -40611.909     2656.676   -43268.585    10.012817 
    3200    218.85609   -23.366641    131971.72   -40578.419    2670.7964   -43249.215    10.146407 
    3250    216.77128   -53.595141    132093.86    -40640.77    2645.3545   -43286.125    10.269483 
    3300    214.38953     19.34714    132001.01   -40706.968    2616.2889   -43323.257     10.42606 
    3350    209.57767    146.11307    132248.23    -40728.26    2557.5678   -43285.828    10.532772 
    3400    211.35673     9.204063    132388.79   -40744.063    2579.2784   -43323.342    10.645187 
    3450    213.41086    -141.2009    132298.21   -40739.397    2604.3458   -43343.743    10.839367 
    3500     211.9299   -108.46402    132162.89   -40773.643     2586.273   -43359.916    10.946019 
    3550    214.59765   -61.142192    132031.97   -40780.927    2618.8288   -43399.756    11.093168 
    3600    213.38184    32.688226    132029.89   -40770.475    2603.9917   -43374.466    11.163913 
    3650    211.37122    1.2263583    131909.77   -40775.726    2579.4553   -43355.181     11.27934 
    3700    211.16892    168.72613    131972.32   -40785.508    2576.9865   -43362.495    11.391629 
    3750    213.47459    72.874028    132216.22   -40807.081    2605.1235   -43412.204    11.517391 
    3800     212.4912    84.007669    132333.43   -40756.915    2593.1228   -43350.038      11.7391 
    3850    214.93417   -64.211266    132375.04   -40745.086    2622.9355   -43368.021    11.858087 
    3900    217.72853    11.364221    132384.82   -40704.217    2657.0362   -43361.253    12.049525 
    3950    218.17255   -66.057052     132349.4   -40679.614    2662.4549   -43342.069    12.134517 
    4000    216.03996   -4.5778375    132427.57    -40678.59    2636.4299    -43315.02     12.21739 
    4050    220.92645   -84.575236    132362.64    -40706.71    2696.0618   -43402.772     12.21694 
    4100    219.52011    121.09419    132537.49   -40728.149    2678.8997   -43407.049     12.24902 
    4150    215.95868   -111.30559    132441.95   -40774.663     2635.438   -43410.101    12.368451 
    4200    214.06076    62.781375    132424.52   -40734.587    2612.2769   -43346.864     12.51991 
    4250    217.55269    80.929776    132458.35   -40749.015    2654.8903   -43403.906    12.631173 
    4300    214.32676    47.050403    132434.32   -40767.155     2615.523   -43382.678    12.741203 
    4350    216.18881   -82.279654    132439.03   -40784.553    2638.2463   -43422.799    12.790678 
    4400    211.36579    4.2936647    132469.31   -40770.244    2579.3889   -43349.633    12.992373 
    4450    213.81733   -49.548166    132360.54   -40802.234    2609.3061    -43411.54    13.173856 
    4500    214.10788   -119.90648    132289.41    -40802.02    2612.8519   -43414.872    13.303365 
    4550    213.00245   -29.157105    132273.78   -40778.305    2599.3618   -43377.667    13.394287 
    4600    213.00724    16.478242    132233.01   -40817.674    2599.4203   -43417.095      13.5434 
    4650    213.36437   -212.11101    132099.51    -40824.45    2603.7785   -43428.229    13.654566 
    4700    212.52776   -65.031239    132003.42   -40821.785     2593.569   -43415.354    13.824031 
    4750    212.57795     160.9934    132055.75   -40821.213    2594.1814   -43415.394     14.01902 
    4800    213.92157    71.570185    132251.68   -40813.888    2610.5783   -43424.466    14.118349 
    4850     216.9259   -188.07447    132170.38   -40756.187    2647.2414   -43403.428    14.262035 
    4900     216.5862    148.36731    132278.08   -40758.668    2643.0959   -43401.764     14.43812 
    4950    217.51646   -45.910072    132399.26    -40755.14    2654.4483   -43409.588    14.620249 
    5000    211.97096    157.78782    132385.39   -40781.006    2586.7741    -43367.78    14.717848 
    5050     218.1061   -61.763922    132312.66   -40727.791    2661.6439   -43389.435    14.766658 
    5100    215.58007    74.800041    132254.76   -40739.151    2630.8177   -43369.968    14.813111 
    5150     213.8444   -61.559846    132319.78   -40766.192    2609.6365   -43375.828    15.004458 
    5200    213.38626    52.921383    132308.33   -40756.384    2604.0456   -43360.429    15.105651 
    5250    215.25395   -34.360826    132374.75   -40843.151    2626.8379   -43469.989    15.326919 
    5300    215.68932   -2.2599635     132419.3   -40847.907    2632.1509   -43480.058    15.580302 
    5350    217.13906   -13.073222    132317.63    -40769.21    2649.8427   -43419.052    15.745926 
    5400    216.26959   -35.308722    132280.93   -40784.888    2639.2322    -43424.12    15.884744 
    5450    217.82898    160.92688     132333.4    -40766.77    2658.2622   -43425.033    16.072623 
    5500    221.46517    9.9029562    132448.62   -40704.044    2702.6361    -43406.68    16.164842 
    5550    216.25074   -95.999388    132279.35   -40731.776    2639.0022   -43370.778    16.313101 
    5600    212.59936   -139.66195    132177.81   -40740.104    2594.4428   -43334.547    16.430153 
    5650    215.39188   -168.50951    131975.68   -40756.139    2628.5211    -43384.66    16.640807 
    5700    214.56843   -74.320828    132045.06   -40764.538    2618.4722    -43383.01    16.848358 
    5750    212.55873    60.879424    132097.43    -40737.46     2593.947   -43331.407    16.833826 
    5800     217.0176   -92.141568    132206.84   -40690.654    2648.3605   -43339.015    16.933636 
    5850    218.68928    64.118427    132233.41   -40663.308    2668.7607   -43332.068    17.005962 
    5900    221.17065   -162.93352    132153.18   -40663.677     2699.042   -43362.719    17.239302 
    5950    217.56991   -73.233701    132082.23    -40681.62    2655.1006   -43336.721     17.31864 
    6000    215.66471    197.30887    132089.06   -40692.806    2631.8506   -43324.656    17.436957 
    6050    214.06525   0.50604192    132227.74   -40666.857    2612.3316   -43279.189    17.581507 
    6100    215.55645    4.1682189    132249.12    -40654.56    2630.5294   -43285.089    17.696006 
    6150    220.04119    6.7934723    132211.34    -40648.54    2685.2586   -43333.799    17.840518 
    6200    215.27894    91.904097    132241.89   -40698.631    2627.1428   -43325.774    18.186181 
    6250    216.88322   -84.809784    132191.33   -40689.911    2646.7206   -43336.632    18.499217 
    6300    216.43185   -152.38736    132107.05   -40727.923    2641.2123   -43369.135    18.551674 
    6350    218.21945   -67.803309    131954.64   -40763.913    2663.0271    -43426.94    18.569181 
    6400    217.82562    77.278739    131916.99   -40779.515    2658.2211   -43437.737    18.638811 
    6450    213.63332     127.3448    132025.44   -40764.356    2607.0606   -43371.417    18.762036 
    6500    218.72652    3.0604573     132275.8    -40772.63    2669.2152   -43441.846    18.954829 
    6550    212.47337  -0.58639334     132335.1   -40725.217    2592.9052   -43318.122    19.060291 
    6600     217.8424   -6.5643436    132217.28   -40737.899    2658.4259   -43396.325    19.236917 
    6650    214.54629    10.771091     132171.6   -40779.486    2618.2019   -43397.687     19.55805 
    6700    215.03158   -240.88361     132037.6   -40760.871    2624.1241   -43384.995    19.722047 
    6750    220.06379   -70.914251    131973.15   -40764.699    2685.5345   -43450.233    19.818664 
    6800    213.80863    205.44923    131996.32   -40776.153    2609.1999   -43385.353    19.965128 
    6850    215.14396    155.10189    132234.13   -40803.869    2625.4956   -43429.365    20.059081 
    6900     209.4423    195.48247    132464.41   -40850.136    2555.9158   -43406.052    20.194355 
    6950    213.03774   -34.799924    132342.31   -40813.328    2599.7925   -43413.121    20.420947 
    7000    212.72307    79.723566    132433.66   -40803.002    2595.9525   -43398.954    20.438571 
    7050    213.05192    59.307812    132443.01   -40789.746    2599.9655   -43389.712    20.453729 
    7100    214.04731   -45.025602    132346.97   -40761.217    2612.1128   -43373.329    20.463884 
    7150    216.96169    41.596192    132198.05   -40803.134    2647.6782   -43450.813    20.577078 
    7200    213.95626   -46.720487    132218.88    -40826.44    2611.0016   -43437.441    20.763851 
    7250    214.62762    66.110719     132102.8   -40831.973    2619.1945   -43451.168    20.938191 
    7300    218.50996    69.450659    132151.72   -40796.426    2666.5724   -43462.998    21.024785 
    7350     218.5319   -12.687397    132258.85   -40757.467    2666.8401   -43424.307    21.259635 
    7400    217.67226    63.822057    132268.59   -40741.119    2656.3496   -43397.469    21.512161 
    7450      215.904      30.7288    132457.58   -40743.633    2634.7707   -43378.404    21.617298 
    7500    215.50361    -22.18618    132559.12   -40763.849    2629.8846   -43393.733    21.668877 
    7550    216.73771    -96.43411    132555.85   -40774.908    2644.9448   -43419.853     21.74762 
    7600    217.88476    140.08618    132592.93   -40757.044    2658.9428   -43415.987    21.837836 
    7650    220.88601    103.61801    132678.32   -40760.121    2695.5684   -43455.689    21.925371 
    7700    217.85599   -128.47988    132656.32   -40732.451    2658.5917   -43391.043    22.133235 
    7750    208.81753    -89.59821    132537.43   -40790.663    2548.2915   -43338.955    22.215884 
    7800    212.50511    33.776469    132641.25   -40840.428    2593.2926   -43433.721    22.311017 
    7850    209.60462   -28.117311    132703.55   -40891.935    2557.8966   -43449.832    22.428425 
    7900    212.00247   -40.543007    132696.59   -40851.594    2587.1586   -43438.752    22.546913 
    7950    212.12533   -51.741299    132628.89   -40854.903    2588.6579    -43443.56    22.608855 
    8000    212.64649   -49.898342    132456.88   -40854.343    2595.0179   -43449.361     22.56769 
    8050    209.13537   -114.28949    132388.23   -40874.414    2552.1701   -43426.585    22.664559 
    8100    211.82773    21.056191    132259.97    -40892.62    2585.0262   -43477.646    22.848825 
    8150    211.65729   -63.111573    132236.27   -40823.391    2582.9462   -43406.337    23.037201 
    8200    214.26538    110.39199    132310.11   -40812.849    2614.7739   -43427.623     23.16839 
    8250    216.23541    20.161533    132282.63   -40855.516    2638.8151   -43494.331    23.286806 
    8300    215.33758   -25.132825    132280.18   -40791.197    2627.8584   -43419.056    23.481385 
    8350    214.58559   -41.093805    132263.42    -40819.05    2618.6816   -43437.732    23.658151 
    8400    217.55014   -47.361462    132168.25   -40797.576    2654.8593   -43452.435    23.795344 
    8450    215.15716    117.69766    132146.03   -40830.708    2625.6567   -43456.365    23.921266 
    8500    215.04306    14.678197    132019.88     -40855.1    2624.2643   -43479.364    24.112345 
    8550    215.40586   -24.933187    132021.15   -40802.996    2628.6917   -43431.688    24.345118 
    8600    217.39027    61.704827    132061.86   -40754.794    2652.9083   -43407.702    24.517747 
    8650    214.50023    74.051713    132147.65   -40740.032    2617.6398   -43357.671    24.572308 
    8700    209.51839   -63.413496    132139.15   -40794.754    2556.8444   -43351.598    24.604005 
    8750    214.56386    24.420806    132063.21   -40790.908    2618.4164   -43409.325    24.775165 
    8800    211.96147   -85.921268    131993.25   -40792.619    2586.6583   -43379.277    24.979761 
    8850    216.05555   -140.81687    131975.97   -40773.112    2636.6201   -43409.732    25.102128 
    8900    214.19032   -71.563248    131934.39   -40756.725    2613.8579   -43370.583    25.277631 
    8950    215.55944   -31.643187    131801.97   -40750.856    2630.5659   -43381.422    25.517585 
    9000    216.84594   -36.653785    131841.18   -40778.194    2646.2657   -43424.459    25.710379 
    9050    214.77354   -75.802478    131815.06   -40782.834    2620.9753   -43403.809    25.811416 
    9100    215.36124    39.648507    131713.79   -40749.639    2628.1471   -43377.786     26.00453 
    9150    214.06342    133.99953    131666.48   -40762.107    2612.3093   -43374.416    26.165916 
    9200    215.60121    78.069246    131801.34   -40736.177    2631.0756   -43367.252    26.282515 
    9250    222.35897   -149.09252    131857.06   -40722.539    2713.5435   -43436.083    26.378175 
    9300    215.39424   -75.812325    131794.74   -40726.592    2628.5499   -43355.142     26.62919 
    9350     219.9477    164.39365    131806.52   -40718.987    2684.1178   -43403.105    26.787653 
    9400    208.65712   -91.995329    131811.33   -40769.375    2546.3339   -43315.708     27.00359 
    9450    214.89102    1.0233609    131812.59   -40726.276    2622.4089   -43348.685    27.105904 
    9500     217.6097    29.231251    131849.43   -40727.407    2655.5861   -43382.993    27.294559 
    9550    212.38556     -85.7252    131808.21   -40769.403    2591.8337   -43361.237    27.431608 
    9600    218.40107   -38.902561    131669.63   -40755.042    2665.2436   -43420.286     27.68255 
    9650    214.53982     28.81181    131663.44   -40732.817    2618.1231    -43350.94    27.868832 
    9700    210.84356   -111.14061    131731.56   -40747.941     2573.016   -43320.957    27.862884 
    9750    212.75869    30.295627    131744.43   -40767.183    2596.3871    -43363.57    27.947598 
    9800    212.63798   -22.162611    131772.45   -40752.924     2594.914   -43347.838    28.182157 
    9850    212.62536   -72.086464    131770.26   -40736.688    2594.7601   -43331.448    28.390326 
    9900    215.12846   -67.304282    131774.12   -40722.354    2625.3065   -43347.661    28.678836 
    9950    211.69745   -67.693087    131648.93   -40780.987    2583.4363   -43364.423    28.914008 
   10000    209.92782   -122.42873    131493.18   -40734.206    2561.8408   -43296.047    29.120433 
   10050    213.69509    84.340674    131484.81   -40709.085    2607.8144     -43316.9    29.120997 
   10100     217.2027   -9.3484866    131450.66   -40677.933    2650.6193   -43328.552    29.287556 
   10150    215.91234    34.821653    131520.16   -40696.032    2634.8725   -43330.904    29.349994 
   10200    216.53408    73.203047    131411.46   -40641.139    2642.4599   -43283.599    29.443438 
   10250    218.55511    94.440706    131457.39    -40610.45    2667.1233   -43277.574    29.666047 
   10300    214.28658    202.41518     131638.4   -40621.815    2615.0326   -43236.847    29.868853 
   10350    213.69843    70.973474    131808.62   -40632.567    2607.8552   -43240.422    30.071073 
   10400    212.46055    -75.99987    131720.39   -40661.451    2592.7488     -43254.2    30.202214 
   10450    216.60185    119.42793    131682.34   -40691.674    2643.2869   -43334.961    30.308061 
   10500    215.83737   -66.104994    131700.32   -40727.225    2633.9577   -43361.183    30.534477 
   10550    209.76853   -43.632056    131591.21   -40757.925    2559.8969   -43317.822    30.698601 
   10600    216.56944   -58.304626    131505.76   -40758.302    2642.8914   -43401.193    30.633789 
   10650    215.50513   -88.418634    131419.13   -40706.363    2629.9031   -43336.266    30.740239 
   10700    213.81305    102.18457    131595.86   -40759.408     2609.254   -43368.662    30.857876 
   10750    209.82116    97.433974    131733.52   -40792.813    2560.5392   -43353.352    30.848954 
   10800    210.80303     104.6774    131841.64   -40824.639    2572.5213    -43397.16     30.99245 
   10850    212.46151    74.010849    132074.42   -40809.126    2592.7605   -43401.887    31.108688 
   10900    215.00741    109.23842    132067.93   -40786.208    2623.8292   -43410.037     31.28091 
   10950    219.49671    123.51271    132232.83   -40766.289    2678.6141   -43444.903    31.444955 
   11000    213.24329    9.9475773    132249.84    -40811.88    2602.3009   -43414.181    31.554979 
   11050    213.77638    37.031528     132389.8   -40768.432    2608.8064   -43377.238    31.649073 
   11100    212.13743   -281.30601    132231.22   -40789.586    2588.8056   -43378.391    31.868079 
   11150    212.72019    70.022073    132075.07   -40795.045    2595.9173   -43390.962    31.998702 
   11200    213.42435   -61.180567    132051.22   -40765.107    2604.5105   -43369.618    32.233283 
   11250    216.63994    11.738739    132066.85   -40762.481    2643.7517   -43406.232    32.432145 
   11300    216.77935    66.538585    132107.17   -40728.342     2645.453   -43373.795    32.721369 
   11350    212.10623    176.70223    132062.42   -40684.693    2588.4249   -43273.118    32.681105 
   11400    221.02345    53.590504    132037.14   -40662.625    2697.2456   -43359.871    32.788232 
   11450    217.18727   -9.8040787    132202.81   -40672.941     2650.431   -43323.372    32.884489 
   11500    216.51767   -101.66386    132327.18   -40634.804    2642.2596   -43277.064    33.014786 
   11550    217.71008   -60.946682    132230.17    -40638.29    2656.8111   -43295.101     33.26251 
   11600    220.08396   -155.13476       132025   -40631.252    2685.7806   -43317.033    33.337034 
   11650    219.76427    16.055109    132042.95   -40640.306    2681.8793   -43322.185    33.527539 
   11700    214.05823    19.903183    131977.94   -40700.703     2612.246   -43312.949    33.554137 
   11750    215.13157   -178.18672    131857.77   -40714.975    2625.3444    -43340.32    33.632475 
   11800    217.07384     6.338853     131796.7   -40684.241    2649.0467   -43333.288    33.774381 
   11850    216.58029     31.91237    131767.74   -40660.101    2643.0237   -43303.124    33.994028 
   11900    217.84842   -10.269536    131787.09   -40660.192    2658.4993   -43318.692    34.081547 
   11950    219.32794    90.303724    131877.95   -40660.011    2676.5545   -43336.566    34.281613 
   12000    219.09312    75.295157     131909.3   -40695.195    2673.6889   -43368.884     34.39038 
   12050    215.70349    104.95044    132211.95   -40727.367    2632.3239   -43359.691    34.569586 
   12100    214.98603     91.40554    132314.71   -40749.258    2623.5683   -43372.826    34.758824 
   12150    215.12285   -44.294647     132263.8   -40730.803     2625.238   -43356.041    34.745818 
   12200    213.42924    32.192436    132233.96   -40728.578    2604.5701   -43333.149     34.95321 
   12250    214.11061    32.885581    132175.92   -40764.694    2612.8852   -43377.579    35.193788 
   12300    210.46875   -147.99304     132071.2   -40797.326     2568.442   -43365.768    35.318594 
   12350    213.97927   -27.842731    132013.68   -40768.811    2611.2824   -43380.093    35.368983 
   12400    216.07361   -76.692703    131865.25   -40755.864    2636.8406   -43392.704    35.423467 
   12450    216.64215   -113.55084    131893.82   -40734.526    2643.7787   -43378.305    35.601712 
   12500    209.28264    15.233496    131844.94   -40767.481    2553.9673   -43321.449    35.614526 
   12550    211.90851    43.038178    131794.72   -40757.961     2586.012   -43343.973    35.676996 
   12600    213.66715     107.4322     131774.7   -40718.921    2607.4735   -43326.394    35.710159 
   12650    215.12773    42.608201     131945.3   -40752.586    2625.2975   -43377.884    35.826537 
   12700    215.57276    134.72662    132175.71   -40703.862    2630.7284    -43334.59    36.053288 
   12750    216.42324    87.257642    132230.78   -40692.852    2641.1072    -43333.96    36.215077 
   12800    215.92337   -74.935585    132151.82    -40682.55    2635.0072   -43317.557     36.31642 
   12850    221.78928   -43.683442    132174.86   -40648.455    2706.5914   -43355.046    36.326656 
   12900    219.95653   -101.03251     132010.9    -40649.25    2684.2255   -43333.476    36.394795 
   12950    214.75152   -73.793374    131842.98   -40649.075    2620.7065   -43269.781    36.662807 
   13000     218.0847    31.041294    131772.24   -40664.657    2661.3827   -43326.039    36.780787 
   13050    218.12308    103.92486    131897.59   -40714.592    2661.8511   -43376.443    37.085945 
   13100    219.23709   -29.459418     132014.5   -40684.664    2675.4459    -43360.11     37.22724 
   13150    219.36981   -50.926897    131898.71   -40704.926    2677.0655   -43381.992     37.46534 
   13200    215.57112   -33.337659    131948.28   -40691.976    2630.7084   -43322.684    37.756707 
   13250     217.9169    137.32287    131972.85   -40699.194     2659.335   -43358.529     37.87147 
   13300    218.21492    -37.76415    132191.94   -40727.068    2662.9719   -43390.039    38.085403 
   13350     211.9703    111.21471    132265.82   -40787.059     2586.766   -43373.825    38.294376 
   13400    219.39936    4.6667137    132167.26   -40716.054    2677.4261    -43393.48    38.399529 
   13450    215.30754    18.385781    132243.99   -40719.652    2627.4918   -43347.144     38.58635 
   13500    217.39989    25.561218    132172.71   -40685.877    2653.0258   -43338.903    38.766285 
   13550    217.24039   -67.346565    132121.45   -40704.019    2651.0792   -43355.098    39.046908 
   13600    222.13066   0.26723504    132079.02   -40671.699    2710.7574   -43382.456    39.310877 
   13650    216.08078    79.857307    132038.97   -40715.893     2636.928   -43352.821    39.390518 
   13700    215.17912   -32.022741    131987.04   -40668.263    2625.9247   -43294.188    39.591488 
   13750    217.18517    72.180265    132108.93   -40636.142    2650.4054   -43286.548    39.583376 
   13800    220.64433   -110.17732       132184   -40692.036     2692.619   -43384.655    39.632158 
   13850    221.43899    61.789404    132181.35   -40721.129    2702.3167   -43423.446    39.665735 
   13900    214.84053   -55.131672    132142.51   -40775.907    2621.7927     -43397.7    39.833023 
   13950    213.07563  -0.55393696    132191.87   -40791.252    2600.2549   -43391.507    40.033036 
   14000    210.80483    75.966729     132213.2   -40827.833    2572.5433   -43400.377    40.254124 
   14050    210.35601    -84.57617    132190.28   -40808.391    2567.0662   -43375.457    40.400373 
   14100    213.57833    92.300049    132269.61   -40748.122    2606.3895   -43354.511    40.647525 
   14150    218.76628    19.353805    132431.16   -40705.017    2669.7004   -43374.718    40.846715 
   14200    218.94322   -116.44418    132391.21   -40727.748    2671.8596   -43399.608    41.022511 
   14250    218.48035    58.325842    132337.52   -40760.716     2666.211   -43426.927    41.164474 
   14300    216.29417    128.51788    132343.53   -40701.473    2639.5321   -43341.005    41.365335 
   14350    217.00511    173.77918    132404.02   -40719.538     2648.208   -43367.746    41.395006 
   14400    215.60821    10.454889    132434.08   -40705.615    2631.1611   -43336.776    41.587788 
   14450    219.09632    90.268713    132458.33   -40690.443     2673.728   -43364.171    41.651753 
   14500     218.6011    22.272484    132562.27   -40722.511    2667.6846   -43390.196    41.754204 
   14550    219.62855   -72.631872    132505.39    -40715.55     2680.223   -43395.773    41.964952 
   14600    220.62896     13.88804    132588.82   -40685.333    2692.4314   -43377.764    42.179089 
   14650    219.42203    147.63275    132674.79    -40707.76    2677.7028   -43385.462    42.383156 
   14700     216.4794   -158.82815    132440.62   -40759.257    2641.7926   -43401.049    42.433066 
   14750    219.27609    46.974582    132367.45   -40698.323    2675.9219   -43374.245    42.570898 
   14800    217.82688   -122.64877    132405.56   -40672.305    2658.2364   -43330.542    42.668153 
   14850    218.89343    198.13573     132409.3   -40727.215     2671.252   -43398.468    42.615101 
   14900    217.17041   -52.033526    132542.29   -40739.161    2650.2252   -43389.386    42.629848 
   14950    211.53177    6.7549566    132491.01   -40762.118    2581.4145   -43343.533    42.781611 
   15000    217.49381   -145.60916    132417.44   -40787.599    2654.1719   -43441.771     42.71568 
   15050    209.50873   -109.66386    132358.59   -40789.809    2556.7264   -43346.535    42.753075 
   15100    213.79143    117.86028    132357.62   -40764.767    2608.9901   -43373.757    42.979822 
   15150    215.14014   -12.208431    132268.82   -40754.382    2625.4491   -43379.831    43.296865 
   15200    214.50078    36.020654    132349.53   -40724.666    2617.6466   -43342.313    43.465391 
   15250    217.82096   -103.75522    132363.49   -40730.839    2658.1643   -43389.003    43.447169 
   15300    212.53057    228.55693    132366.08   -40731.095    2593.6033   -43324.698    43.497901 
   15350    218.12457   -175.79484    132311.29   -40749.749    2661.8693   -43411.619    43.706416 
   15400    213.78602   -12.876178     132275.4   -40748.085     2608.924   -43357.009    43.961073 
   15450    211.63067   -216.89177    132189.07   -40725.765    2582.6214   -43308.387    44.165185 
   15500    216.85489   -167.18616    132079.58   -40766.238    2646.3748   -43412.612    44.383739 
   15550    212.03531    94.655921    132098.56   -40789.852    2587.5595   -43377.411    44.625017 
   15600    212.98743   -92.226361    132323.14   -40755.426    2599.1785   -43354.604    44.795723 
   15650    215.09727   -125.13563     132264.2   -40751.656    2624.9258   -43376.582    45.069952 
   15700    215.38429   -8.4951772    132051.57   -40778.044    2628.4284   -43406.472     45.03335 
   15750    213.00491   -108.92917    131922.25   -40766.305    2599.3919   -43365.697    45.183829 
   15800    211.96062   -131.60887    131865.56   -40790.234    2586.6479   -43376.882    45.422046 
   15850    213.77904    86.940537    131900.44   -40799.142    2608.8389   -43407.981    45.567519 
   15900    216.27114    48.342001    131985.07   -40773.479     2639.251    -43412.73     45.74467 
   15950      212.761    143.27692    132015.37   -40764.776    2596.4153   -43361.191    45.773429 
   16000    214.38516   -27.312993    132031.89   -40774.706    2616.2357   -43390.942    45.884097 
   16050    220.44211    90.202858    132076.06   -40774.974    2690.1513   -43465.125    46.012401 
   16100    214.52869    -75.87444    132082.52   -40795.754    2617.9872   -43413.741    46.141923 
   16150    213.51572    198.93427    132122.06   -40773.262    2605.6256   -43378.888    46.284902 
   16200    215.32747   -210.37153    132059.79   -40763.462    2627.7351   -43391.197    46.464607 
   16250    213.63495    75.075685    131979.51   -40747.561    2607.0805   -43354.641    46.674703 
   16300    213.96775   -80.727931    131913.18   -40765.443    2611.1419   -43376.585    46.625864 
   16350    216.97063   -23.196472    131759.14   -40797.574    2647.7873   -43445.361    46.645597 
   16400    211.58021     18.42078    131693.71   -40818.146    2582.0057   -43400.152    46.956555 
   16450    215.76015    111.63291     131706.8   -40813.949    2633.0153   -43446.964    47.095426 
   16500    211.50941   -81.522027     131812.8     -40811.9    2581.1417   -43393.041    47.159961 
   16550     213.4775   -71.662478    131747.29   -40788.534    2605.1591   -43393.693    47.229553 
   16600    212.88249    172.84446    131796.86   -40794.456     2597.898   -43392.354    47.341762 
   16650    212.70479   -37.879069    131929.47    -40773.82    2595.7293    -43369.55    47.485383 
   16700    214.00631   -21.502678    131878.94   -40702.191    2611.6124   -43313.803    47.641372 
   16750    212.36135   -114.34023    131788.04    -40738.88    2591.5382   -43330.418    47.923513 
   16800    213.84905    48.071468    131484.48   -40742.536    2609.6933   -43352.229    48.097797 
   16850    211.60949    95.900333    131507.71   -40730.412     2582.363   -43312.775    48.382952 
   16900      217.764     119.1417    131622.82   -40684.151    2657.4691   -43341.621    48.623408 
   16950    213.93521    12.901279     131674.6    -40681.18    2610.7447   -43291.925    48.645926 
   17000    211.54831    67.670713    131765.02    -40705.06    2581.6163   -43286.676    48.893672 
   17050     212.3473   -221.19028    131729.39   -40743.113    2591.3668    -43334.48    49.155369 
   17100    219.81736   -6.6018348    131698.34   -40685.015    2682.5271   -43367.542    49.218213 
   17150    216.86279    124.02571    131638.42   -40718.149    2646.4712    -43364.62    49.427292 
   17200    214.64237    104.25889     131781.2   -40710.155    2619.3745   -43329.529    49.673851 
   17250     213.4155   -118.93209    131779.06   -40757.915    2604.4025   -43362.317    49.812935 
   17300      214.936   -85.265991    131592.33   -40722.885    2622.9578   -43345.843    49.863071 
   17350    214.10638   -198.80335    131454.02   -40749.483    2612.8335   -43362.317    49.937908 
   17400     213.0326    187.35554    131438.61   -40743.687    2599.7298   -43343.417    50.209063 
   17450    212.97045    54.069484    131513.77   -40744.766    2598.9713   -43343.737    50.350106 
   17500    209.93202    205.88764    131687.32    -40799.15     2561.892   -43361.042    50.518404 
   17550    213.42261    104.21656    131821.43   -40717.764    2604.4893   -43322.253    50.679217 
   17600    215.66005    177.50212     131837.3   -40704.464    2631.7937   -43336.258    50.756337 
   17650    216.16507   -88.660549    131837.93   -40701.479    2637.9566   -43339.436    50.750527 
   17700    216.38702    94.799687    131960.58   -40695.977    2640.6653   -43336.642    50.894642 
   17750    215.20426   -65.468596    131933.44   -40724.701    2626.2314   -43350.933    51.119429 
   17800    215.18085    24.974867    131940.23   -40749.631    2625.9458   -43375.577    51.362641 
   17850    215.29338    116.39207    131925.97   -40717.984    2627.3191   -43345.304    51.463518 
   17900    211.89462   -25.186639    131979.06   -40671.701    2585.8425   -43257.544    51.551785 
   17950    213.03974     118.3328    132063.58   -40706.884     2599.817   -43306.701    51.707079 
   18000    216.03175   -45.102797    132149.95   -40722.422    2636.3297   -43358.752    51.828386 
   18050     215.5223   -25.400958     132044.1   -40672.604    2630.1127   -43302.716    51.917845 
   18100    218.79021    141.35642    132288.35   -40659.601    2669.9925   -43329.594     52.32926 
   18150    215.71827   -217.08627     132177.9    -40667.95    2632.5041   -43300.454     52.39495 
   18200    215.76665    9.3990292    132047.61   -40712.276    2633.0945    -43345.37    52.544283 
   18250    214.04329   -7.9416554    131989.49   -40727.984    2612.0636   -43340.048     52.70431 
   18300    218.92449   -83.885835     131896.4   -40728.458    2671.6311    -43400.09    52.687902 
   18350    214.75472    199.46474    131932.93   -40715.064    2620.7456   -43335.809    52.780061 
   18400     213.6995     80.15528    132161.71   -40730.561    2607.8682   -43338.429    52.996677 
   18450    217.31514    60.908695    132186.15   -40800.047    2651.9915   -43452.038    53.052733 
   18500      220.388    14.768617    132395.96   -40772.016     2689.491   -43461.507    53.094276 
   18550    220.72168   -54.787764    132243.11   -40730.379    2693.5629   -43423.942    53.033887 
   18600    221.04262    70.637637    132273.33   -40698.042    2697.4796   -43395.522    53.300414 
   18650    214.49518   -131.28575    132122.63   -40781.152    2617.5783    -43398.73     53.41555 
   18700    213.39766    5.5743859    132118.83    -40777.99    2604.1848   -43382.175    53.547803 
   18750    211.27793    35.585226    132119.41    -40826.51    2578.3167   -43404.826    53.584708 
   18800    212.07237    3.6403212    132039.59   -40814.754    2588.0117   -43402.766    53.719262 
   18850    214.04375   -31.788284     132101.5   -40811.846    2612.0692   -43423.916    53.929384 
   18900    219.93005    14.187003    132157.46   -40799.769    2683.9023   -43483.671    54.007673 
   18950    216.98916   -108.30805    132037.81     -40772.5    2648.0134   -43420.513    53.998406 
   19000    216.18439   -181.29431    132128.07   -40771.547    2638.1924   -43409.739    54.274163 
   19050    217.92645      69.3537    131973.47   -40774.159    2659.4516   -43433.611    54.385534 
   19100    217.61615     75.21576    132137.42   -40729.489    2655.6648   -43385.154    54.520093 
   19150    216.08217    7.3855474    132344.45   -40688.343     2636.945   -43325.288    54.765309 
   19200    217.28034   -49.218214    132279.08   -40732.392    2651.5668   -43383.959    54.883497 
   19250    214.55793   -165.86875    132240.87   -40777.349     2618.344   -43395.693    54.964457 
   19300    218.03474     106.8292    132255.95   -40773.817    2660.7731    -43434.59    55.212913 
   19350    218.72537    11.311095     132199.6    -40751.01    2669.2011   -43420.211    55.458597 
   19400    218.14697    5.6873704    132233.22   -40745.431    2662.1427   -43407.573     55.53394 
   19450    215.52837    101.82334    132314.04     -40776.1    2630.1867   -43406.287    55.549563 
   19500    217.88857    41.158571    132489.22   -40772.176    2658.9893   -43431.165    55.617972 
   19550    214.89046    22.056776    132454.89   -40802.502     2622.402   -43424.904    55.891186 
   19600    212.75886   -18.239247    132467.25   -40828.336    2596.3892   -43424.725    55.998068 
   19650    218.32735    36.023866    132337.57   -40797.645    2664.3439   -43461.989    56.133039 
   19700    213.66738    71.932466    132482.61   -40812.215    2607.4763   -43419.692    56.257029 
   19750    213.98835   -18.383094    132485.23   -40813.257    2611.3932    -43424.65    56.588482 
   19800    217.52758    -69.28784    132438.76   -40790.207     2654.584   -43444.791    56.616292 
   19850    212.92917    1.0872706    132303.17   -40865.385    2598.4676   -43463.853    56.794864 
   19900    211.56786   -16.777203     132243.2   -40894.968    2581.8549   -43476.823    57.047772 
   19950    217.19036     68.80369    132313.19    -40871.31    2650.4687   -43521.779    57.369932 
   20000    218.38159   -116.97504    132298.86   -40823.417    2665.0059   -43488.422     57.39121 
   20050     212.6441   -16.311176    132397.93   -40852.174    2594.9887   -43447.163    57.644059 
   20100     210.5801    65.090534    132405.52   -40824.919    2569.8009    -43394.72    57.808946 
   20150    215.37093   -22.486944    132340.34   -40833.327    2628.2655   -43461.593    57.821536 
   20200    210.07855    84.104135    132310.32   -40858.158    2563.6802   -43421.838    57.944032 
   20250    212.23642   -89.570238    132222.85    -40865.87    2590.0137   -43455.883     58.16146 
   20300    216.07531   -40.438882    132203.99   -40815.805    2636.8613   -43452.667    58.193521 
   20350    212.51683    7.1782588    132207.49    -40859.97    2593.4357   -43453.406    58.497358 
   20400    210.45908    6.9074675    132213.86   -40915.065     2568.324   -43483.389    58.746193 
   20450    215.61104   -49.883252    132253.87   -40838.996    2631.1956   -43470.192    58.982971 
   20500     215.0861   -34.734086    132172.61   -40858.695    2624.7895   -43483.485     58.97938 
   20550    216.35708    208.58875    132308.07   -40831.448    2640.2998   -43471.748    59.294962 
   20600     215.9031   -49.094042    132334.31   -40826.373    2634.7597   -43461.133    59.468851 
   20650    216.32127   -75.387568    132093.64   -40837.319    2639.8628   -43477.182    59.597131 
   20700    210.15832   -57.631894    131974.95   -40856.285    2564.6537   -43420.938    59.633473 
   20750    217.85484    60.066447    132042.88   -40856.641    2658.5776   -43515.219    59.733682 
   20800    213.14317    45.320395    132033.77   -40884.627    2601.0792   -43485.706    59.755592 
   20850    213.68566    81.929636    132117.62   -40906.028    2607.6994   -43513.728    59.749833 
   20900    212.98051    -52.18046    132125.19   -40882.048     2599.094   -43481.142    59.756236 
   20950    211.93501   -14.087493     132162.7    -40880.41    2586.3354   -43466.745     59.90971 
   21000    211.82225   -17.634329    132150.89   -40915.817    2584.9593   -43500.776    60.045708 
   21050    212.13793    43.280153    132081.43    -40911.77    2588.8118   -43500.582    60.416485 
   21100     211.8619    7.0142025    132064.22   -40944.212    2585.4432   -43529.655    60.385791 
   21150    214.37464    74.309101    132085.27   -40886.458    2616.1072   -43502.565    60.499383 
   21200    215.73427       100.89    132234.38   -40898.985    2632.6994   -43531.685    60.671004 
   21250    214.93411   -151.82085    132135.56   -40870.133    2622.9347   -43493.068     60.56212 
   21300     214.8156   -121.04985    132098.25   -40884.764    2621.4885   -43506.253    60.477779 
   21350    209.18633     1.342563       132074    -40890.44    2552.7921   -43443.232    60.611117 
   21400    212.99261     -70.4066    132069.87   -40925.613    2599.2417   -43524.855     60.57358 
   21450    215.73898    129.65332    132119.88   -40898.137     2632.757   -43530.894    60.590321 
   21500    213.48061   -18.969915    132221.98   -40905.893    2605.1971    -43511.09    60.788409 
   21550    214.16441    62.569006    132214.83   -40915.476    2613.5418   -43529.017    60.904785 
   21600    216.56205    88.607441    132283.49    -40888.59    2642.8012   -43531.391    60.841359 
   21650    213.00822    166.00404    132396.73   -40884.521    2599.4322   -43483.953    60.911043 
   21700     215.1465   -50.083516    132301.36   -40867.384    2625.5266    -43492.91    61.237771 
   21750    215.77987   -32.892458    132240.67   -40863.123    2633.2559   -43496.379     61.42548 
   21800    215.81056     178.7681    132215.01   -40874.715    2633.6305   -43508.345    61.447435 
   21850    214.31682   -37.043769    132297.83    -40938.34    2615.4017   -43553.742    61.694851 
   21900    212.64644    186.50023    132311.63   -40908.088    2595.0173   -43503.106    61.693057 
   21950    214.35864   -78.884905    132258.22   -40946.863    2615.9121   -43562.775      61.9738 
   22000    210.14558   -7.2223988    132274.62   -40954.736    2564.4981   -43519.234    62.037793 
   22050    213.63195    105.96942    132245.65   -40958.075    2607.0439   -43565.119    62.243494 
   22100    208.74986     156.5331    132229.36   -40965.681    2547.4656   -43513.146    62.575039 
   22150    214.44657    53.206617    132471.85   -40942.159    2616.9851   -43559.144    62.691146 
   22200    216.17959   -30.656795    132533.92   -40904.913    2638.1338   -43543.047    62.676174 
   22250    215.58517   -46.293202    132502.47    -40885.39    2630.8799    -43516.27    62.515293 
   22300    213.86987   -54.522119     132453.3   -40918.957    2609.9474   -43528.904    62.548801 
   22350    211.37313   -134.96397    132327.49   -40927.213    2579.4785   -43506.691    62.582003 
   22400    212.70697    170.27583    132332.63   -40923.798     2595.756   -43519.554    62.610034 
   22450    215.01963    1.6830676    132410.68   -40942.125    2623.9783   -43566.104    62.588213 
   22500    214.21192    96.017482    132438.93   -40946.126    2614.1215   -43560.248    62.718829 
   22550    212.77644    84.475221    132388.94   -40996.072    2596.6037   -43592.675    62.728181 
   22600    212.31113    14.852856    132486.01   -40988.878    2590.9253   -43579.804    62.724732 
   22650    210.61948   -176.06051    132428.42   -40966.157    2570.2814   -43536.438    62.887677 
   22700    216.85365    12.158958    132338.71   -40942.435    2646.3597   -43588.795    62.978463 
   22750    212.26198    102.93811    132287.36   -40956.453    2590.3255   -43546.778    62.898263 
   22800    215.04269    53.719279    132366.37   -40907.708    2624.2598   -43531.968    63.078206 
   22850    207.51032     4.256382     132378.7   -40955.827     2532.339   -43488.166    63.267361 
   22900    210.83095   -19.186171    132292.19   -40911.267    2572.8621   -43484.129    63.338797 
   22950    208.35272    153.59593    132256.64   -40941.441    2542.6191    -43484.06      63.4996 
   23000    209.92185   -7.8812225    132276.56   -40988.546    2561.7679   -43550.314    63.558044 
   23050     207.8446   -50.520297    132221.54   -40975.576    2536.4183   -43511.994    63.702612 
   23100    215.40913   -16.292651    132164.49   -40945.149    2628.7316   -43573.881    63.900257 
   23150    213.52446    73.908378    132311.75   -40948.978    2605.7321    -43554.71    64.138019 
   23200    212.31416    114.23904    132325.01   -40915.022    2590.9623   -43505.984    64.136694 
   23250    215.71054     55.86934    132395.19   -40865.269    2632.4099   -43497.679     64.19481 
   23300    210.98301   -156.04252     132414.3   -40913.986    2574.7177   -43488.704    64.437024 
   23350    212.02425   -102.02242    132425.16   -40921.647    2587.4244   -43509.072     64.60052 
   23400    216.69992   -118.07253    132212.27   -40915.995    2644.4837   -43560.479    64.708666 
   23450    214.27553   -70.735288    132013.47   -40919.071    2614.8978   -43533.969    64.610168 
   23500    209.51764     149.1799    132153.51   -40959.046    2556.8352   -43515.881    64.806982 
   23550    211.17121    268.30798    132514.59   -40981.409    2577.0144   -43558.424    65.036926 
   23600    211.17791   -88.333239    132607.07   -40976.988    2577.0962   -43554.084    65.216991 
   23650    217.82339   -32.319137    132529.46   -40929.499    2658.1939   -43587.693    65.409084 
   23700    216.07831   -108.92141    132501.62   -40923.757    2636.8979   -43560.655    65.670183 
   23750    215.66055   -182.42791    132309.61   -40913.409    2631.7998   -43545.209    65.650043 
   23800    213.12522    3.3189756    132234.38   -40925.328      2600.86   -43526.188    65.619113 
   23850    211.76482    14.886166    132230.96   -40919.293    2584.2585   -43503.551      65.7979 
   23900    211.50275   -21.246828    132271.05   -40955.795    2581.0603   -43536.855    65.804657 
   23950    214.20423   -6.2958364    132194.45   -40972.871    2614.0277   -43586.899     66.04994 
   24000    210.63598    90.186059    132292.41    -40933.22    2570.4827   -43503.702    66.372619 
   24050    213.28391    206.48609    132397.92   -40931.006    2602.7966   -43533.803    66.500807 
   24100    214.68014  -0.35301609    132541.43   -40929.872    2619.8355   -43549.708    66.564042 
   24150    213.43263   -21.826209     132582.9   -40872.603    2604.6115   -43477.214    66.717878 
   24200    217.67103   0.88172935    132459.38    -40861.18    2656.3346   -43517.515    66.739608 
   24250    211.34605    79.148123    132501.62   -40888.662     2579.148    -43467.81    66.948857 
   24300     212.7989    9.6624576    132585.75    -40887.89    2596.8778   -43484.768    67.123615 
   24350    215.46272   -75.697458    132472.25    -40873.37    2629.3856   -43502.756     67.16193 
   24400    218.02024    220.87553    132517.26   -40809.693    2660.5961   -43470.289     67.34467 
   24450    217.42245   -43.915964     132569.1   -40808.842     2653.301   -43462.143    67.505984 
   24500    210.28586    52.044335    132509.25    -40854.61    2566.2101    -43420.82    67.853605 
   24550    215.39234   -74.295628    132425.24   -40843.601    2628.5267   -43472.127     67.95264 
   24600    214.06577    82.915834    132425.07   -40850.785     2612.338   -43463.123    68.096816 
   24650     216.2142     47.30575    132299.18   -40839.286    2638.5562   -43477.842    68.220423 
   24700     212.9424   -86.632895    132300.11    -40836.25    2598.6291   -43434.879    68.489403 
   24750     212.8685    44.172248    132309.43   -40904.539    2597.7272   -43502.266    68.533765 
   24800    212.37667   -59.163609    132298.97   -40914.512    2591.7251   -43506.237    68.527814 
   24850    210.72698    115.90341    132411.58   -40914.986    2571.5933    -43486.58    68.541276 
   24900    210.97326    125.70777     132522.1   -40922.296    2574.5988   -43496.895    68.802772 
   24950    211.76714     6.643423    132542.05   -40852.602    2584.2868   -43436.889    69.034011 
   25000    217.70646   -237.26369       132535   -40878.127     2656.767   -43534.894     69.20239 
   25050      210.821   -121.29692    132423.73   -40902.762    2572.7407   -43475.503    69.354137 
   25100    214.79357     98.32816    132321.33   -40912.223    2621.2197   -43533.443    69.524412 
   25150     214.7257     17.41303    132433.35   -40854.696    2620.3914   -43475.087    69.548923 
   25200    217.09969   -4.4862873    132444.25   -40797.454    2649.3623   -43446.816    69.659232 
   25250    214.13051   -5.7739994    132425.54   -40783.163     2613.128   -43396.291    69.930895 
   25300    214.06177   -41.808817    132344.68    -40746.44    2612.2891   -43358.729    69.907956 
   25350    219.23055   -15.411429    132255.65   -40752.541     2675.366   -43427.907    69.925112 
   25400    216.57723    128.96752    132262.86   -40775.534    2642.9865   -43418.521    70.007817 
   25450    215.54336    150.21052    132377.11   -40801.875    2630.3697   -43432.245    70.298856 
   25500    219.85945    161.00692    132522.94   -40792.902    2683.0408   -43475.943    70.590816 
   25550    215.56478     77.33644    132651.94   -40840.498    2630.6311   -43471.129    70.941894 
   25600    215.09671    34.308317    132728.09   -40800.617    2624.9191   -43425.536    71.182318 
   25650    213.86362   -49.823719    132650.53   -40891.122     2609.871   -43500.993    71.112645 
   25700    212.52215   -26.693278    132581.12   -40866.161    2593.5005   -43459.661    71.169087 
   25750     213.9335   -137.12876    132538.55   -40863.836    2610.7239   -43474.559    71.017648 
   25800    214.06078    50.690888    132382.52   -40889.221    2612.2771   -43501.498    71.074402 
   25850    215.41219    17.118421    132505.46    -40864.24     2628.769   -43493.009    71.286198 
   25900    214.91165    113.26355    132664.44   -40846.333    2622.6607   -43468.994    71.262584 
   25950    214.21182   -17.592404    132584.77   -40902.099    2614.1203   -43516.219    71.351164 
   26000    220.18685    103.42995    132660.11   -40859.347    2687.0362   -43546.384    71.374257 
   26050    213.39146     40.48751    132714.22    -40876.84    2604.1091   -43480.949    71.316019 
   26100    212.07178   -92.794478    132625.16   -40856.911    2588.0044   -43444.916    71.286553 
   26150    217.36751   -14.317574     132589.5    -40824.74    2652.6306    -43477.37    71.180236 
   26200    216.44472   -170.02462    132632.01   -40866.332    2641.3694   -43507.702    71.435476 
   26250    212.87549    9.1916298    132648.01   -40898.272    2597.8125   -43496.085    71.558801 
   26300    209.12014    12.755515    132593.78   -40870.856    2551.9843    -43422.84    71.731865 
   26350    214.63579   -66.932333    132592.23   -40858.676    2619.2942    -43477.97    71.736079 
   26400    213.48837   -65.035351    132441.59   -40824.749    2605.2917   -43430.041    71.888105 
   26450    214.80653   -18.119924    132464.93   -40723.119    2621.3778   -43344.497    72.078835 
   26500     217.9468   -107.19424    132545.48   -40700.012    2659.6999   -43359.712    72.273969 
   26550    221.10089   -317.44905    132283.01   -40680.128    2698.1907   -43378.319    72.501638 
   26600    216.73215    72.518543    132256.43   -40706.007    2644.8769   -43350.884    72.773076 
   26650    215.56843    117.73156    132182.04    -40759.79    2630.6756   -43390.466     73.03037 
   26700    214.97916    45.161919    132294.01   -40780.068    2623.4845   -43403.553    73.329212 
   26750    220.45784      164.656       132406   -40708.625    2690.3432   -43398.968    73.326345 
   26800    215.02744    97.306562    132574.09   -40742.804    2624.0737   -43366.878    73.579921 
   26850    216.82966   -36.764285    132493.54   -40731.051    2646.0669   -43377.118    73.529823 
   26900    215.55547   -4.6349466    132424.57   -40737.819    2630.5175   -43368.336    73.603235 
   26950    214.06197   -14.093323    132307.52   -40795.413    2612.2916   -43407.704    73.608913 
   27000    214.99232   -100.40475     132378.8   -40810.679    2623.6451   -43434.324    73.671779 
   27050    216.03618   -15.336491    132392.26   -40749.865    2636.3838   -43386.249    73.822604 
   27100    216.17444    150.24464    132438.56   -40735.954     2638.071   -43374.025    73.920108 
   27150    220.01744    5.0752341    132449.79   -40737.658    2684.9688   -43422.627     73.87136 
   27200    215.97545     9.758305    132339.95   -40713.261    2635.6427   -43348.904    73.953888 
   27250    217.63136   -105.67529    132306.75   -40688.112    2655.8504   -43343.962    74.376281 
   27300    219.39217   -215.10959     132061.7   -40740.239    2677.3383   -43417.577    74.438524 
   27350    216.09813    115.84788    132004.08   -40763.134    2637.1398   -43400.273    74.794672 
   27400    212.59202   -76.060606    132139.49   -40780.976    2594.3532   -43375.329    75.111412 
   27450     210.6659    22.343736    132108.92   -40738.535    2570.8479   -43309.383    75.148873 
   27500     216.2114    16.604362    132203.74   -40727.074     2638.522   -43365.596    75.327792 
   27550    222.56461    38.789255    132223.77   -40658.428     2716.053   -43374.481    75.541493 
   27600    219.13682    170.58236    132148.57   -40666.112    2674.2222   -43340.334    75.600974 
   27650    213.44512     97.88577    132417.19   -40709.938    2604.7639   -43314.702    75.700944 
   27700     214.6175    9.7677951    132429.23   -40728.585     2619.071   -43347.656    75.850926 
   27750    211.05993   -48.201574    132338.41   -40812.334    2575.6565    -43387.99    76.018227 
   27800    214.86207    28.784077    132487.05   -40781.199    2622.0557   -43403.255    76.249376 
   27850     215.8526    74.127869    132485.82   -40783.122    2634.1435   -43417.265    76.557728 
   27900     213.5759    18.854073    132467.27   -40808.108    2606.3599   -43414.468     76.64832 
   27950    211.93204   -43.795531    132198.23   -40807.604    2586.2991   -43393.903    76.770065 
   28000    209.55092    13.946794    132278.79   -40824.922    2557.2413   -43382.163    76.985271 
   28050    215.58679   -9.9325273    132309.27   -40789.174    2630.8997   -43420.074    77.443627 
   28100    213.12003   -141.02426    132229.71   -40726.086    2600.7967   -43326.882    77.568435 
   28150    217.46881    1.5389726    132284.02   -40704.669    2653.8668   -43358.536    77.577225 
   28200    219.64409    134.47442    132452.54   -40712.489    2680.4126   -43392.902    77.787793 
   28250    214.65297   -108.31028     132496.5   -40721.991    2619.5038   -43341.495    78.004912 
   28300     216.9711   -38.908788     132443.1   -40693.391     2647.793   -43341.184    78.150716 
   28350     213.9494    8.5733428    132279.02    -40751.12    2610.9179   -43362.038     78.22646 
   28400    215.42722    29.289126    132182.57   -40728.922    2628.9523   -43357.874    78.370132 
   28450    214.38411   -62.889425    132212.08   -40756.827    2616.2228    -43373.05    78.541086 
   28500    215.77046   -7.5949974    132268.24   -40750.914     2633.141   -43384.055     78.72166 
   28550    213.39457   -56.418418    132169.78   -40773.689    2604.1471   -43377.837     78.69201 
   28600    213.77804   -142.37277    132128.59   -40751.236    2608.8268   -43360.063     78.97632 
   28650    213.40573    76.107092    131911.22   -40767.859    2604.2833   -43372.142    79.158706 
   28700    214.71384    36.852124    131967.33   -40794.133    2620.2467    -43414.38    79.250803 
   28750    214.59398    13.550073    131978.28   -40738.511     2618.784   -43357.295    79.517595 
   28800    214.55449    7.6537542    132021.21   -40688.499    2618.3021   -43306.801     79.85937 
   28850    215.56408    16.071901    131856.16   -40710.797    2630.6225    -43341.42    80.090691 
   28900     218.3748   -42.439507    131758.13     -40699.2     2664.923   -43364.123    80.240633 
   28950    215.32678   -1.0432649    131568.73    -40716.06    2627.7266   -43343.787     80.24575 
   29000    216.78401    53.217193    131543.69   -40705.675    2645.5099   -43351.184    80.386102 
   29050    215.31505      125.403    131576.37   -40729.534    2627.5835   -43357.118    80.652531 
   29100    214.51428    114.38012     131734.5   -40745.677    2617.8114   -43363.488    80.756024 
   29150    210.34235    53.563266    131796.56   -40756.781    2566.8995   -43323.681    80.800996 
   29200    215.51066   -67.190659    131780.21   -40741.991    2629.9706   -43371.961     80.85297 
   29250    214.86726    179.69245    131812.04   -40798.238    2622.1189   -43420.356    81.091443 
   29300    215.06692   -226.23326    131837.04   -40797.198    2624.5554   -43421.753    81.459876 
   29350    212.86949    98.741893    131823.09   -40816.998    2597.7392   -43414.738    81.521032 
   29400     214.7912    57.389029    131883.66   -40825.732    2621.1908   -43446.923     81.66787 
   29450    214.61031   -90.207709    131915.18    -40805.73    2618.9832   -43424.713    82.014313 
   29500    214.82842  -0.51504462    131909.98   -40806.509     2621.645   -43428.154    82.211703 
   29550    213.31292   -28.069061    131873.76    -40830.06    2603.1507   -43433.211    82.479184 
   29600    210.17452    66.294558    131947.02   -40867.731    2564.8514   -43432.583    82.478133 
   29650    213.18069    70.168147    131957.46   -40855.039     2601.537   -43456.576    82.503718 
   29700    211.87962   -72.007638    131933.72   -40859.148    2585.6594   -43444.807    82.450593 
   29750    214.61904    98.338412    132056.44   -40780.587    2619.0898   -43399.677    82.521147 
   29800    218.83739    295.13431    132271.42   -40759.044    2670.5681   -43429.612    82.758567 
   29850    220.97709   -80.948313    132283.66   -40773.332    2696.6799   -43470.012     82.82728 
   29900    218.02576   -73.445915    132295.45   -40774.243    2660.6635   -43434.907    83.036949 
   29950    215.14649    4.2470586    132379.43   -40800.811    2625.5265   -43426.337    82.899896 
   30000    210.56547    11.529193    132303.73    -40839.76    2569.6223   -43409.382    83.155717 
   30050    212.63705     30.74502    132299.35   -40840.475    2594.9027   -43435.378     83.20028 
   30100    213.22532    5.9131615    132400.79   -40802.882    2602.0817   -43404.964    83.401382 
   30150    212.51341    30.966428    132448.29   -40787.385    2593.3939   -43380.779    83.601157 
   30200    214.22195    49.704451     132491.5   -40779.984    2614.2439   -43394.228    83.857822 
   30250    216.93684   -101.93614    132474.59    -40751.31     2647.375   -43398.685    84.080874 
   30300    214.56092   -15.439539    132358.12   -40761.487    2618.3805   -43379.868    84.230961 
   30350    213.32876    58.056268    132445.81    -40767.11    2603.3439   -43370.454    84.433968 
   30400    214.43923    95.270893     132398.8   -40761.906    2616.8955   -43378.801    84.619221 
   30450    214.04771    86.922749    132369.22   -40768.763    2612.1176   -43380.881    84.841598 
   30500    214.35329     53.07105    132327.94   -40799.694    2615.8468    -43415.54     84.81937 
   30550    209.94716    35.742017    132359.44   -40836.277    2562.0768   -43398.354    85.205024 
   30600    212.35722   -25.921434    132390.72   -40811.746    2591.4878   -43403.234    85.495253 
   30650    215.52006    -8.975874    132397.99   -40787.332    2630.0853   -43417.417     85.92293 
   30700     216.1207   -33.554234    132303.11   -40752.702    2637.4152   -43390.117    86.209088 
   30750    216.04073    29.700174    132370.37   -40756.044    2636.4393   -43392.483    86.428072 
   30800    215.80565    27.821758    132466.78    -40764.99    2633.5705   -43398.561    86.612354 
   30850    217.12579   -164.84757    132289.76   -40758.446    2649.6807   -43408.127    86.571616 
   30900    217.62492   -7.9202854    132142.86   -40747.063    2655.7718   -43402.835    86.654325 
   30950    217.24347    40.535988     132197.4   -40765.143    2651.1168    -43416.26    86.651351 
   31000     210.2631    119.08634    132249.77    -40763.86    2565.9324   -43329.792    86.690346 
   31050    217.13399    73.145151    132341.67   -40710.995    2649.7808   -43360.775    87.004267 
   31100    213.65751    161.51383    132362.75   -40698.818    2607.3559   -43306.174    86.915312 
   31150    215.05156    128.26444    132497.39   -40676.296     2624.368   -43300.664    87.013432 
   31200    217.70983   -159.60253    132602.03   -40669.469    2656.8081   -43326.277    87.005339 
   31250    214.68632   -85.008841    132517.28   -40676.017    2619.9109   -43295.928    87.224469 
   31300    214.73725    1.8392989    132396.79   -40677.697    2620.5324   -43298.229    87.222443 
   31350     219.1634   -160.84754    132219.17   -40696.306    2674.5466   -43370.853    87.346451 
   31400    217.38851    -79.94351    132181.64   -40705.888    2652.8868   -43358.775    87.430239 
   31450    218.37231   -50.858486    132127.29   -40741.137    2664.8926    -43406.03    87.612335 
   31500    212.76407    134.39006    132358.65   -40742.508    2596.4528   -43338.961     87.68666 
   31550    219.85059    99.503199    132458.63   -40731.384    2682.9327   -43414.317    87.848192 
   31600    218.29663   -80.856038    132599.16   -40716.477     2663.969   -43380.446     88.17275 
   31650    220.71476   -153.87341    132601.67   -40693.271    2693.4785   -43386.749    88.420308 
   31700    219.88519   -104.03624    132536.52   -40731.741    2683.3549   -43415.096    88.792107 
   31750    214.32735   -10.571503    132452.05   -40775.314    2615.5302   -43390.844    88.786372 
   31800    211.48241    27.700243    132456.14   -40802.006    2580.8122   -43382.818    88.888264 
   31850    215.81637    148.65809    132714.17   -40758.937    2633.7013   -43392.639    88.909231 
   31900    209.26129   -6.3134271    132700.05   -40778.104    2553.7068   -43331.811    88.906966 
   31950    218.27032   -30.764135     132536.2   -40745.874     2663.648   -43409.522     89.27823 
   32000    212.41846   -32.782776    132605.32   -40717.622    2592.2352   -43309.858    89.601031 
   32050    213.08005   -75.316725    132424.13   -40738.701    2600.3088    -43339.01    89.796211 
   32100    213.80974   -62.147816    132321.64   -40746.629    2609.2136   -43355.842    90.228997 
   32150    211.46777   -74.319004    132350.36   -40767.962    2580.6334   -43348.595    90.365784 
   32200    212.71768   -81.893593    132255.67   -40738.655    2595.8867   -43334.541    90.442756 
   32250    215.01521    72.590413    132325.78   -40724.909    2623.9244   -43348.834    90.378675 
   32300    212.32134   -16.353614    132428.11    -40717.54    2591.0499    -43308.59    90.512129 
   32350     217.2238    16.914798    132476.57    -40675.95    2650.8768   -43326.827    90.571644 
   32400    215.47559   -173.35329    132363.34   -40660.061    2629.5427   -43289.604    90.779955 
   32450    216.47909     58.30719    132443.17   -40689.392    2641.7888   -43331.181    91.176795 
   32500    216.14401    61.074363    132432.38   -40655.973    2637.6996   -43293.673    91.301298 
   32550    211.82477   -10.816796    132510.03   -40748.636      2584.99   -43333.626    91.596728 
   32600     209.8416    20.674377    132456.55   -40749.308    2560.7886   -43310.097    91.544441 
   32650      218.084    42.079152    132521.07   -40684.141    2661.3743   -43345.515    91.797519 
   32700    216.14357   -184.36448     132476.7   -40707.142    2637.6942   -43344.836    92.090274 
   32750    215.41692    105.29284    132360.33   -40680.668    2628.8267   -43309.494    92.151962 
   32800    213.14521    21.142812    132376.78   -40698.107     2601.104   -43299.211    92.129446 
   32850    213.90813     29.54752    132277.05    -40702.36    2610.4142   -43312.774    92.056431 
   32900    215.51902    25.835463    132333.86   -40648.099    2630.0726   -43278.171    92.263707 
   32950    218.55384    76.337456    132479.18   -40684.377    2667.1079   -43351.484    92.296512 
   33000    215.78235    30.168857    132537.93   -40691.492    2633.2862   -43324.779    92.431001 
   33050    217.79881    21.197076    132533.09   -40685.532    2657.8939   -43343.426    92.558548 
   33100    215.96252   -139.22069    132468.19   -40699.284    2635.4849   -43334.769    92.687576 
   33150    212.90264   -87.004764    132331.81   -40683.918    2598.1439   -43282.062    92.671979 
   33200    215.53036     27.17674    132277.55   -40713.678     2630.211   -43343.889    92.632841 
   33250    216.51249    -133.4444    132300.29   -40705.402    2642.1963   -43347.598    92.699292 
   33300    218.11357   -106.92844     132262.6   -40677.269     2661.735   -43339.004    93.072608 
   33350    214.64788    111.21322    132294.81   -40664.047    2619.4418   -43283.489    93.249981 
   33400    217.07185    156.00477    132372.66   -40663.494    2649.0226   -43312.517    93.612492 
   33450    218.36589   -37.230148    132410.97    -40638.68    2664.8142   -43303.494    93.928823 
   33500    212.68822   -130.26926     132356.7   -40689.851    2595.5272   -43285.378    94.068446 
   33550    214.59164    40.865917    132276.67   -40697.442    2618.7555   -43316.198     94.20647 
   33600    212.05183    5.5987597    132234.97   -40693.959     2587.761    -43281.72     94.37973 
   33650    218.01022   -87.372944    132146.62   -40705.501    2660.4739   -43365.975    94.426209 
   33700    214.76851    93.051026     132094.8   -40710.482    2620.9138   -43331.396     94.40907 
   33750    213.74117   -13.136156    132228.53    -40665.04    2608.3768   -43273.416    94.663335 
   33800    216.11026   -13.051854    132283.92    -40682.34    2637.2879   -43319.628    94.944498 
   33850    217.24451    26.874324    132265.05   -40699.879    2651.1296   -43351.008    95.307693 
   33900    218.04628    21.980026    132194.86   -40658.285    2660.9139   -43319.199    95.489377 
   33950    216.74834   -7.4593845    132248.62   -40691.544    2645.0745   -43336.619    95.745437 
   34000    215.08963   -93.657678    132131.97    -40688.72    2624.8326   -43313.553    96.007401 
   34050    216.15173    105.72135    132179.77   -40682.374    2637.7939   -43320.168    96.215027 
   34100    213.85845    18.247037    132151.97   -40703.742     2609.808    -43313.55    96.190714 
   34150    212.76915   -124.74441    132064.47   -40731.929    2596.5148   -43328.444    96.480308 
   34200    213.62076   -91.923042    131957.05   -40772.917    2606.9074   -43379.824    96.401334 
   34250    213.55211   -8.3922518     131831.6   -40729.375    2606.0696   -43335.444    96.445466 
   34300    215.75396    6.5324428    131744.38    -40706.39    2632.9398    -43339.33    96.700568 
   34350    215.84349   -141.20762     131802.8   -40667.759    2634.0323   -43301.792    96.791745 
   34400    215.98354    117.17345    131932.66   -40708.875    2635.7414   -43344.617    96.824015 
   34450    219.20872    46.486511    131909.93   -40703.066    2675.0996   -43378.165     96.70632 
   34500    217.69025   -2.1446954    131940.57   -40697.565    2656.5691   -43354.134    96.821866 
   34550    213.63194    43.053872    131882.51   -40742.184    2607.0438   -43349.228    97.108714 
   34600    216.75248   -18.411249     131845.7   -40756.925    2645.1251    -43402.05    97.177478 
   34650    210.07495    113.49434    131955.88   -40787.288    2563.6363   -43350.924    97.429111 
   34700    212.44509   -29.830635    131946.23   -40779.966    2592.5601   -43372.526    97.711413 
   34750    213.71377   -160.37101    131888.04   -40819.261    2608.0423   -43427.304    97.970931 
   34800    210.93449   -12.319443    131798.58   -40805.712    2574.1256   -43379.838     98.12489 
   34850    212.74456    81.999904    131858.58   -40791.735    2596.2147    -43387.95    98.593059 
   34900    216.13528    82.122234       131869   -40724.194    2637.5931   -43361.788    98.852036 
   34950    212.20161    152.20284    131905.75   -40756.836    2589.5888   -43346.424    99.276902 
   35000    216.20431   -33.976483    131953.68    -40755.07    2638.4356   -43393.506    99.687135 
   35050    210.61248   -1.0196863    131861.26   -40793.853     2570.196   -43364.049    99.565613 
   35100    212.20462    104.77198    131925.56   -40808.295    2589.6256   -43397.921       99.808 
   35150    214.78519    3.0247187    132054.56   -40796.602    2621.1174    -43417.72    100.19288 
   35200    208.13754    36.625073    132065.43   -40756.274    2539.9933   -43296.268    100.10946 
   35250    208.34296   -66.450493    131992.55   -40737.553       2542.5   -43280.053    100.32292 
   35300    216.06499    20.515253    131917.72   -40624.012    2636.7353   -43260.748    100.58766 
   35350    216.93939    31.141825    131820.99   -40688.146     2647.406   -43335.552    100.65624 
   35400    213.06626   -143.71264    131765.02   -40720.639    2600.1405   -43320.779       100.61 
   35450    218.33149    84.635624       131873   -40691.447    2664.3944   -43355.841    100.87083 
   35500     212.7355    14.110348     131855.6   -40668.619    2596.1041   -43264.723    100.98156 
   35550    218.02699    11.893863    131896.36   -40648.513    2660.6785   -43309.191    101.29855 
   35600    213.84822   -97.711768     131824.6   -40696.538    2609.6831   -43306.221    101.43826 
   35650    210.04342   -38.087213    131576.07   -40721.351    2563.2515   -43284.602    101.62926 
   35700    214.56189    66.013534    131686.68   -40723.768    2618.3924   -43342.161    101.47504 
   35750     212.0701    148.47391    131934.05   -40721.736     2587.984    -43309.72    101.41161 
   35800    212.35199    46.707678    132029.52   -40752.599    2591.4239   -43344.023    101.86524 
   35850    210.35279   -98.892579    132100.76   -40721.467    2567.0268   -43288.494    102.06905 
   35900    216.45641   -31.648107    132037.14   -40726.671    2641.5121   -43368.183    102.12518 
   35950    212.12716   -99.986939     131960.1   -40745.837    2588.6803   -43334.518    102.08394 
   36000    216.73767   -51.283784    131849.45   -40759.101    2644.9443   -43404.046    102.28564 
   36050    220.18585   -18.928753    131863.76   -40734.062    2687.0239   -43421.086    102.36011 
   36100    214.58079   -51.356405    131810.43   -40690.862     2618.623   -43309.485    102.27293 
   36150    213.61618    96.709175    131849.99   -40674.371    2606.8515   -43281.223    102.58225 
   36200    216.40173    58.314473    131934.31   -40669.084    2640.8447   -43309.928    102.88172 
   36250    212.98507   -64.522131    131990.96   -40649.637    2599.1498   -43248.787    103.16911 
   36300     218.9806    209.55181    131936.77   -40620.751    2672.3158   -43293.067    103.11478 
   36350    212.27481   -114.85718     131954.3   -40621.462    2590.4821   -43211.944     103.4943 
   36400    218.57413    199.15523    132108.98   -40658.552    2667.3554   -43325.907    103.82932 
   36450    212.45394    -147.4368    132196.93   -40692.025    2592.6681   -43284.694    103.94797 
   36500    212.13807   -96.871264    132066.82   -40730.317    2588.8134   -43319.131     104.0138 
   36550    215.84072     10.54028    132000.56   -40711.652    2633.9984   -43345.651    104.32126 
   36600    214.09936   -149.39079     131967.4    -40696.26    2612.7479   -43309.008    104.54902 
   36650    216.74918    53.330196    131876.57   -40691.594    2645.0848   -43336.679    104.49465 
   36700    213.68532   -0.2120193    131906.88   -40696.637    2607.6952   -43304.332    104.58243 
   36750     216.5027   -14.690902    132076.81   -40704.656    2642.0769   -43346.733    104.99423 
   36800     213.9061    75.162665     132067.7   -40697.043    2610.3895   -43307.432    105.33971 
   36850    216.07501   -41.987734    132104.81   -40661.384    2636.8576   -43298.241    105.41854 
   36900    214.42478    38.431064    132069.03   -40661.409    2616.7192   -43278.128    105.48944 
   36950    216.57736   -14.603907    132057.89   -40674.496    2642.9881   -43317.484    105.35274 
   37000     210.3801    4.7229381    132186.05   -40672.064    2567.3602   -43239.424    105.51791 
   37050    209.17162   -38.291697    132167.23   -40771.198    2552.6126    -43323.81    105.80211 
   37100    208.67558    123.04456     132112.8   -40761.474    2546.5591   -43308.034    105.93796 
   37150    215.66602    133.68384    132296.42   -40683.982    2631.8666   -43315.849    106.20434 
   37200    213.74494    41.996237    132386.78   -40717.149    2608.4228   -43325.572    106.31442 
   37250    218.33468   -74.234465    132396.78   -40669.781    2664.4334   -43334.214    106.12906 
   37300    219.53959    48.357293    132390.48   -40721.562    2679.1375   -43400.699    106.25882 
[...]
  191000    212.11912   -44.544832    131772.46   -40773.001    2588.5822   -43361.583    522.52145 
  191050    212.53323    43.337618    131749.21   -40798.732    2593.6357   -43392.368    522.28949 
  191100    212.86278    -125.8904     131810.8   -40778.187    2597.6573   -43375.844    522.67754 
  191150     212.9825   -59.072653    131743.51   -40756.634    2599.1184   -43355.752    522.61849 
  191200    211.68077   -24.019073    131709.24   -40741.294    2583.2328   -43324.526    522.84838 
  191250    217.24078   -13.322119    131670.73    -40733.46     2651.084   -43384.544    523.02476 
  191300    215.11626    122.76472    131671.31   -40735.877    2625.1576   -43361.035    523.47212 
  191350    218.62668   -7.3543033    131641.73   -40771.291    2667.9967   -43439.288    523.63185 
  191400    216.22347    29.954721    131665.65   -40812.314    2638.6694   -43450.983    524.04832 
  191450    218.34632    81.014531    131687.34   -40784.235    2664.5754   -43448.811    524.92552 
  191500    211.98386    157.10079    131583.12   -40853.698    2586.9316   -43440.629    524.83687 
  191550    209.67753    41.927763    131781.26   -40858.819    2558.7864   -43417.605    525.13297 
  191600    212.75958    45.739682    131915.12   -40812.183     2596.398   -43408.581    525.29957 
  191650     211.9789   -2.3402649    131949.72   -40823.789     2586.871    -43410.66    526.07684 
  191700     216.6915   -2.7714793    131936.62   -40817.422    2644.3809   -43461.803    526.49256 
  191750    211.50253   -64.509237    132076.57   -40846.804    2581.0577   -43427.862    526.99839 
  191800    215.18472    80.529577    132092.96   -40844.131     2625.993   -43470.124    527.12145 
  191850    214.61691    -98.88145    132152.28   -40826.735    2619.0638   -43445.799    527.16401 
  191900     214.0522    157.00476    132243.93   -40794.007    2612.1723   -43406.179    527.09391 
  191950    214.72262   -98.162664    132297.68   -40784.368    2620.3539   -43404.722    527.33605 
  192000    214.12018    129.45645    132105.49   -40806.382     2613.002   -43419.384    526.76222 
  192050    212.81392    98.112589    132265.48   -40809.318    2597.0611   -43406.379     526.9572 
  192100    214.77539    42.505932     132331.1   -40805.031    2620.9978   -43426.028    527.17334 
  192150    212.47408    41.961541    132304.33   -40778.348    2592.9139   -43371.262    527.52608 
  192200    217.08464   -37.911542     132311.4   -40738.436    2649.1786   -43387.614     527.4314 
  192250    215.14635   -53.381077    132297.04   -40786.217    2625.5248   -43411.742    527.12437 
  192300    212.10608   -72.408911    132179.08   -40795.791    2588.4231   -43384.214    527.22538 
  192350    216.75572    78.764764    132334.49   -40740.988    2645.1646   -43386.153    526.90525 
  192400    215.90646   -25.056444    132253.45   -40742.155    2634.8008   -43376.955    526.94286 
  192450     212.4955   -50.451769    132264.14   -40761.799    2593.1753   -43354.974     527.3951 
  192500    215.39155   -38.014932       132284   -40758.898     2628.517   -43387.415    527.76308 
  192550    218.18691    55.897692    132367.51   -40723.087    2662.6301   -43385.718    528.10397 
  192600    214.22547    156.01917    132432.39   -40691.625    2614.2869   -43305.912    527.93334 
  192650     212.0864    -158.7439    132327.64   -40670.855    2588.1829   -43259.038    527.64948 
  192700    212.97924   -44.532452    132257.09   -40693.006    2599.0786   -43292.085     527.6958 
  192750    217.62508   -25.400655    132163.78   -40638.249    2655.7738   -43294.023    527.19952 
  192800    218.62795   -70.092868    132219.17   -40581.601    2668.0123   -43249.613    527.91348 
  192850    217.37108    -247.4038     132039.3    -40622.13    2652.6741   -43274.804    527.46755 
  192900     221.2168    119.71121    132052.33   -40641.126    2699.6051   -43340.731    526.90066 
  192950    214.24707    -32.88872    132214.74   -40656.996    2614.5505   -43271.547    527.69993 
  193000    215.16472    29.460537     132174.6   -40693.158    2625.7489   -43318.907    527.97057 
  193050    215.87085   -241.91852    132287.67   -40689.623    2634.3661   -43323.989    528.45658 
  193100    213.05804   -45.834609    132098.59   -40739.959    2600.0403   -43339.999    528.27826 
  193150    216.07633   -175.36481    131912.35   -40741.193    2636.8738   -43378.067    528.04611 
  193200    215.26958   -58.937154     131925.8   -40762.943    2627.0287   -43389.972    528.10481 
  193250     215.9089   -141.27903    131981.37   -40760.585    2634.8305   -43395.416    528.54653 
  193300    209.68595   -10.556714    131817.26   -40799.054    2558.8891   -43357.943    527.82563 
  193350    213.84955    129.93815       131887   -40792.028    2609.6993   -43401.728    528.02989 
  193400    217.98737    62.963107    132142.44   -40762.647     2660.195   -43422.842    528.94023 
  193450    209.91532   -219.94843    132080.64   -40812.332    2561.6882    -43374.02     529.1102 
  193500    210.33363    19.795451    132063.67    -40844.64     2566.793   -43411.433    529.13248 
  193550    216.46882   -198.22549    131997.34    -40785.59    2641.6635   -43427.253    529.14442 
  193600    213.91124    231.72323    132063.99   -40800.863    2610.4522   -43411.316    529.57282 
  193650    211.02254   -133.69113    132024.71   -40834.136    2575.2002   -43409.336    529.56228 
  193700    210.81813   -67.520985    132075.35   -40878.464    2572.7056    -43451.17    529.37375 
  193750    213.92314    17.452864    131983.43   -40904.779    2610.5974   -43515.377    529.56577 
  193800    209.86003   -71.821038    131974.77   -40854.285    2561.0136   -43415.298    529.92023 
  193850    212.57433    91.048909    131933.53   -40879.746    2594.1373   -43473.883    530.17233 
  193900    215.97447    68.477127    131964.36   -40856.098    2635.6306   -43491.729    530.36054 
  193950    215.24048    93.059362    132070.69    -40876.55    2626.6734   -43503.224    530.41262 
  194000    211.19815    22.884698    132134.79   -40858.633    2577.3431   -43435.977    530.49352 
  194050    215.21954   -179.74794    132121.28   -40801.895    2626.4179   -43428.312    530.37281 
  194100    216.50611    140.70755    132141.45   -40782.032    2642.1185   -43424.151    530.56719 
  194150    213.93834   -40.095699    132124.32   -40786.251     2610.783   -43397.034    531.04485 
  194200     218.0362    43.471616    132156.85   -40715.622    2660.7908   -43376.413    530.93163 
  194250    216.06563   -108.42828    132136.82   -40688.162    2636.7432   -43324.905    531.00624 
  194300      217.717    79.152307    132263.49   -40703.159    2656.8956   -43360.055    531.33111 
  194350    214.27247   -104.15876    132294.43    -40762.46    2614.8604    -43377.32    531.63494 
  194400    219.72975    113.98257    132235.07   -40730.278     2681.458   -43411.736    531.97051 
  194450    215.50035   -139.84922    132131.88   -40753.982    2629.8448   -43383.827    531.91734 
  194500    214.60621    21.027674    132070.68   -40792.199    2618.9332   -43411.132    531.53991 
  194550    215.60175    201.80475    132168.62   -40787.135    2631.0822   -43418.217    532.24567 
  194600    214.59325    79.318737    132398.77   -40835.572    2618.7751   -43454.347    532.69977 
  194650    215.78427   -33.216444    132371.15   -40823.996    2633.3096   -43457.306    532.87998 
  194700    219.66688   -100.31847    132268.66   -40814.155    2680.6907   -43494.846    533.10777 
  194750      219.041    17.481802    132197.29   -40858.059    2673.0529   -43531.112    533.28557 
  194800    215.05013    33.549026    132178.16    -40788.41    2624.3505   -43412.761    533.20715 
  194850    213.42386   -13.176826    132240.09   -40815.381    2604.5045   -43419.886    533.35657 
  194900    216.85134   -100.98797     132433.9    -40853.66    2646.3315   -43499.991    534.33262 
  194950     214.6633    81.386174    132363.53   -40863.926    2619.6299   -43483.555    533.79735 
  195000    215.35018    84.172988    132391.76   -40857.017    2628.0122   -43485.029    534.07654 
  195050    216.35855    29.814626    132447.43   -40840.892    2640.3178    -43481.21    533.71661 
  195100    213.60221   -19.053922    132335.11   -40859.922     2606.681   -43466.603    533.65842 
  195150    218.63852    52.203176    132285.64   -40795.367    2668.1413   -43463.508     533.8649 
  195200    216.18571   -20.050207    132299.62   -40807.151    2638.2085    -43445.36    534.11164 
  195250    218.67258    -60.97163    132460.69    -40800.65    2668.5569   -43469.207    534.32284 
  195300    215.01808   -167.04817    132426.19   -40803.724    2623.9595   -43427.684     534.8065 
  195350    222.00146   -13.710144     132289.1   -40754.398    2709.1807   -43463.579    534.21655 
  195400    215.67026   -129.53742    132313.68   -40801.667    2631.9183   -43433.586    535.15589 
  195450    217.60097   -18.053647    132261.22   -40795.027    2655.4796   -43450.507    535.49023 
  195500    220.85449   -31.153344     132255.5   -40767.553    2695.1837   -43462.736    535.34052 
  195550    222.04009    36.418992    132306.85   -40718.574     2709.652   -43428.226    535.66315 
  195600    220.31137   -192.17592    132353.67   -40707.451    2688.5558   -43396.007    535.77835 
  195650    215.89429   -130.45583    132249.82   -40787.724    2634.6522   -43422.376    535.38763 
  195700    216.93752    100.18736    132296.06   -40796.653    2647.3833   -43444.036    535.26881 
  195750    214.88239    11.958693     132294.4   -40825.968    2622.3036   -43448.271    535.39126 
  195800    215.66486   -50.761078    132257.39   -40844.043    2631.8524   -43475.895    535.60959 
  195850    211.34797    76.431375    132306.46   -40868.364    2579.1715   -43447.536    536.08843 
  195900    215.18029    182.95805    132295.06   -40842.578    2625.9389   -43468.517    535.91229 
  195950    211.61304   -49.631286    132303.45   -40884.381    2582.4062   -43466.787    536.05864 
  196000    209.29138   -41.515823    132290.12   -40926.019     2554.074   -43480.093    536.41203 
  196050    213.22559   -26.020464    132382.03   -40934.568     2602.085   -43536.653    537.12982 
  196100    215.59052   -59.177483    132287.78   -40897.819    2630.9451   -43528.765    536.72311 
  196150    213.73284    133.33295    132460.49    -40863.54    2608.2751   -43471.816    537.28577 
  196200    210.65551   -88.180682    132489.14   -40897.337    2570.7212   -43468.058     537.8366 
  196250    212.97111    168.51304    132492.43   -40905.467    2598.9794   -43504.446    537.22996 
  196300    214.40227   -39.422331    132399.18   -40899.244    2616.4444   -43515.689    536.35585 
  196350    219.88161   -52.927465    132446.67   -40912.395    2683.3113   -43595.706    536.33126 
  196400    218.44947    108.23736    132423.71   -40929.572    2665.8342   -43595.407    536.50711 
  196450    208.86937   -64.974812    132440.79   -40960.891    2548.9241   -43509.815    536.62485 
  196500     215.3209    59.601105    132482.48   -40959.925    2627.6549    -43587.58    537.16146 
  196550    212.70663    -39.35359    132470.45   -40888.767    2595.7518   -43484.519    537.08802 
  196600    213.62294    18.232362    132536.95   -40972.242     2606.934   -43579.176    537.32313 
  196650    213.11239   -16.366211    132430.22   -40956.318    2600.7034   -43557.021    537.08594 
  196700     211.6521   -14.811806    132408.27   -40965.361    2582.8829   -43548.243     537.6474 
  196750    212.62999   -32.773379    132269.43     -40968.6    2594.8166   -43563.417    537.54333 
  196800    218.91258    83.087679    132336.09   -40971.666    2671.4857   -43643.151    537.87526 
  196850    217.29712   -52.419309    132362.97   -40908.642    2651.7716   -43560.413    538.18565 
  196900     214.5795   -130.50154    132265.01   -40918.515    2618.6073   -43537.123    537.71674 
  196950    217.38722    41.469823    132133.87   -40899.874    2652.8711   -43552.745    537.63439 
  197000    218.41211    45.089662    132177.89   -40903.106    2665.3783   -43568.484    537.97434 
  197050    220.90951   -107.01921    132238.93    -40865.93    2695.8551   -43561.785    538.03738 
  197100    215.68063    14.160654    132184.38   -40879.012    2632.0449   -43511.057    537.80735 
  197150    214.74898   -33.171535    132188.43   -40890.514    2620.6755    -43511.19    538.44705 
  197200    212.18928    70.392221    132238.81   -40907.964    2589.4384   -43497.402    538.62963 
  197250     217.7359    121.79261    132276.06   -40890.202    2657.1262   -43547.328    538.50534 
  197300    215.06003   -62.531014    132233.54     -40929.7    2624.4714   -43554.171    538.68838 
  197350    210.16241   -189.84929    132199.03   -40966.171    2564.7036   -43530.874    538.81421 
  197400    213.02915   -49.107485    132018.45     -40940.9    2599.6876   -43540.588     538.3293 
  197450    215.47885   -41.187707    131926.46   -40892.444    2629.5824   -43522.027    538.46806 
  197500    216.08618    47.337687    131896.97   -40887.093     2636.994   -43524.087    538.41833 
  197550    215.57188    9.9733599     131907.1   -40890.703    2630.7177   -43521.421    538.05836 
  197600    211.48201   -148.92474    131993.01   -40888.445    2580.8073   -43469.252    538.40336 
  197650    215.34105   -2.5532933    131818.08   -40889.819    2627.9008    -43517.72    538.12107 
  197700    213.40951    -52.61387    131861.37   -40855.072    2604.3294   -43459.401    538.38464 
  197750    215.21326    4.6818791    131769.85   -40874.657    2626.3413   -43500.998    538.16762 
  197800    213.08021   -115.33148    131785.78   -40882.022    2600.3108   -43482.333    538.49235 
  197850    214.05868    38.829073    131689.16   -40889.398    2612.2515    -43501.65    538.62171 
  197900    217.67124    229.05133    131722.96   -40885.149    2656.3371   -43541.486    539.04977 
  197950    216.97158    92.760181    131902.97   -40846.892    2647.7989   -43494.691    539.42676 
  198000    213.27683   -94.923972    131938.97   -40858.201    2602.7103   -43460.911    539.43246 
  198050    212.81034   -27.842915    131859.05   -40830.215    2597.0175   -43427.233    539.04939 
  198100    211.03916    50.618482    131729.44   -40873.991     2575.403   -43449.394    538.97608 
  198150    214.12229    73.763432    131907.07   -40877.414    2613.0277   -43490.442    539.48709 
  198200    212.73998   -72.854758    131992.68   -40889.613    2596.1589   -43485.772    539.37603 
  198250    212.57551   -61.335758     132066.1   -40876.693    2594.1517   -43470.845    539.95409 
  198300    220.10056   -147.47302    131944.11   -40811.602    2685.9832   -43497.585    540.00822 
  198350    214.46117    -13.85069    132025.53   -40748.435    2617.1632   -43365.598    539.85111 
  198400    217.66992   -173.44296    131938.61   -40786.382    2656.3211   -43442.703    540.20457 
  198450    216.70542    261.48578    132028.71    -40754.92    2644.5508   -43399.471    540.21531 
  198500    213.28347   -51.873161    132082.24   -40766.345    2602.7912   -43369.137    540.53196 
  198550    217.05788    145.25677    132212.53   -40769.011    2648.8521   -43417.863     540.9967 
  198600    217.49333    -35.91326    132308.36   -40751.948     2654.166   -43406.114    541.16663 
  198650    217.36197    135.40202    132341.25   -40725.888    2652.5629   -43378.451    541.17386 
  198700    217.87493    92.230848    132382.59   -40742.587    2658.8228    -43401.41     541.5342 
  198750    217.14062   -243.61111    132392.71   -40760.693    2649.8618   -43410.555    541.84829 
  198800    222.01734   -71.507621    132278.94   -40742.695    2709.3744   -43452.069    541.50279 
  198850    220.58653   -41.261004    132393.31   -40745.266    2691.9137   -43437.179    542.37618 
  198900    214.65101    58.010948    132480.64   -40813.023    2619.4799   -43432.503    542.55502 
  198950      217.048   -23.135831    132493.37   -40825.273    2648.7315   -43474.005     542.7047 
  199000    214.54161    56.856492    132473.05   -40807.812    2618.1449   -43425.957    543.34565 
  199050    214.96504    53.134144    132571.36   -40808.413    2623.3121   -43431.725    543.39916 
  199100    212.89813   -11.958116    132563.35     -40796.8    2598.0888   -43394.889    543.60159 
  199150    215.27747   -210.41962    132528.48     -40829.2    2627.1249   -43456.325    543.71888 
  199200    207.33878   -109.69693    132371.43   -40843.387    2530.2456   -43373.632    543.47648 
  199250    211.03935   -138.29774    132220.49   -40807.034    2575.4053   -43382.439    542.88352 
  199300    211.37098    20.061245     132055.8   -40846.741    2579.4523   -43426.194    542.60921 
  199350    210.90163   -66.314609     132008.1   -40858.982    2573.7246   -43432.707    542.66974 
  199400    214.82663   -100.35328    131906.51    -40833.92    2621.6231   -43455.543    542.75292 
  199450    212.32508    104.71542    132002.44   -40765.306    2591.0955   -43356.401    542.94437 
  199500    213.92845    11.707842    132057.18   -40753.961    2610.6623   -43364.623    543.41897 
  199550    215.23184   -67.881795    132093.54   -40783.102     2626.568    -43409.67    543.08789 
  199600    212.11029    7.9861959    132123.37   -40750.649    2588.4744   -43339.123    543.35586 
  199650    211.28888   -127.13722    132145.89   -40779.003    2578.4504   -43357.453     543.8551 
  199700    219.38861    56.273614    132049.55   -40683.637     2677.295   -43360.932    543.97255 
  199750    215.64042    64.378777    132061.67   -40721.491    2631.5542   -43353.045    544.31721 
  199800    220.37034   -23.965327    132242.58   -40679.834    2689.2754    -43369.11    545.07357 
  199850    214.53043    44.777935    132314.32   -40700.021    2618.0084    -43318.03     545.3194 
  199900    215.08797   -93.812133    132315.32   -40744.828    2624.8124    -43369.64    545.80465 
  199950    210.12192   -65.903246    132300.68   -40781.211    2564.2095   -43345.421    546.23534 
  200000    218.07525    -105.3438    132090.94   -40738.327    2661.2674   -43399.594    546.29788 
Loop time of 367.767 on 11 procs for 200000 steps with 4095 atoms

Performance: 234.932 ns/day, 0.102 hours/ns, 543.823 timesteps/s
99.5% CPU use with 11 MPI tasks x no OpenMP threads

MPI task timing breakdown:
Section |  min time  |  avg time  |  max time  |%varavg| %total
---------------------------------------------------------------
Pair    | 254.78     | 297.76     | 336.38     | 158.6 | 80.96
Neigh   | 6.6822     | 7.8397     | 8.7456     |  24.6 |  2.13
Comm    | 12.999     | 43.89      | 66.449     | 319.7 | 11.93
Output  | 0.16152    | 0.16625    | 0.20556    |   3.1 |  0.05
Modify  | 5.6874     | 16.808     | 45.007     | 281.0 |  4.57
Other   |            | 1.308      |            |       |  0.36

Nlocal:    372.273 ave 412 max 315 min
Histogram: 2 0 1 0 1 1 0 1 4 1
Nghost:    1847.64 ave 1940 max 1729 min
Histogram: 2 0 1 1 1 1 0 1 1 3
Neighs:    0 ave 0 max 0 min
Histogram: 11 0 0 0 0 0 0 0 0 0
FullNghs:  12130.2 ave 13736 max 9925 min
Histogram: 2 0 1 0 2 0 1 1 3 1

Total # of neighbors = 133432
Ave neighs/atom = 32.5841
Neighbor list builds = 11817
Dangerous builds = 0

write_data		${DIR}/data.eq-${NAME}-${TEMP}
write_data		run_0/data.eq-${NAME}-${TEMP}
write_data		run_0/data.eq-hardcavity_freeze_0-${TEMP}
write_data		run_0/data.eq-hardcavity_freeze_0-215
undump          1

reset_timestep  0

unfix           2
unfix           3
unfix           4


################################################
#######         Run Simulation         #########
################################################

log				${DIR}/log.run_${NAME}
log				run_0/log.run_${NAME}
log				run_0/log.run_hardcavity_freeze_0
