LAMMPS data file via write_data, version 29 Oct 2020, timestep = 100770

7151 atoms
1 atom types

-2.6388927205136667 272.6388927205214 xlo xhi
-2.6388927205136667 272.6388927205214 ylo yhi
-0.029321030227952294 3.029321030228003 zlo zhi

Masses

1 18.015

Atoms # atomic

858 1 4.2170909423208105 -0.025048132128888678 0.5615758240372898 0 0 -6
1078 1 13.139590940020703 -1.6770272410541114 1.9326988997273336 0 0 -20
4364 1 134.34331677077552 43.03677824573023 0.7252133176516632 0 0 -11
48 1 15.826071844795074 -0.9598897629263543 2.4752909034591974 0 0 10
723 1 -2.235588457611073 11.754917876511593 1.0542934520951799 0 0 6
575 1 25.019577046467877 0.6358072849626866 2.6545727285496623 0 0 23
200 1 103.61386516137846 88.06589541715766 0.7696477431491374 0 0 4
1136 1 28.849792304250528 -0.24039164610801134 -0.027228278693548838 0 0 27
881 1 0.4393029192140241 -1.879140864181613 3.022775013469605 0 0 -39
4256 1 -0.229517999220056 17.396791211841304 1.610467329737323 1 0 4
3764 1 -1.7043158149792024 7.428398726171654 1.8987231566188236 1 0 11
751 1 70.02731742739965 88.61640685576057 2.217321898086121 0 0 17
596 1 80.21658158501793 -1.9535306751546422 0.9495116475842015 0 0 23
1119 1 77.34689594553217 -2.2051679978158556 0.8516070550865106 0 0 19
613 1 62.45491014068175 0.16985043689573587 0.8614448967429184 0 0 29
203 1 67.06427398627454 -0.9380283085351451 0.6912965166569608 0 0 10
543 1 65.16471059312806 1.0480318012565992 0.4339522123881242 0 0 -5
1054 1 69.72482739364997 0.2888802368391863 0.35116336007932114 0 0 0
869 1 72.21993414548216 -0.8552982886656413 2.934067672437564 0 0 14
438 1 75.07975665063152 -0.4529188150437524 0.6389540400573174 0 0 13
1168 1 80.73900255200824 0.6230911623516353 0.5269514623243681 0 0 19
6 1 83.47202182768503 0.9017859691201253 0.5452372888678422 0 0 -10
980 1 85.31636217778593 -1.2878957931251145 0.23307204681850163 0 0 17
672 1 87.87500552369386 -0.2387319575505713 2.434987427970947 0 0 12
872 1 92.67469591241701 -1.022383829579788 2.4148573806026388 0 0 6
295 1 95.5254158870141 -0.8399084129691394 2.1010613690453877 0 0 -21
298 1 97.08635691249702 1.3657122800425094 2.503793389232979 0 0 -28
682 1 99.66517126589844 0.9400001419552964 2.1332436971160567 0 0 -22
949 1 104.72872632328068 -1.9581045294842665 -0.011292048241028318 0 0 4
3909 1 133.8208365923586 60.86189672747497 2.7501495532299387 0 0 -36
3097 1 109.85058648673285 -1.6173176855919777 0.9984125611313357 0 1 -12
3805 1 -1.7411513530139149 47.37985450687204 2.1727617891902176 1 0 -22
590 1 53.73032143709224 88.2618759011383 0.5923341748141335 0 0 27
628 1 115.35894849662368 0.07570733678097286 0.01264265632015605 0 0 -17
815 1 121.97117651685943 2.3911775474996197 0.0592144733596095 0 0 11
3504 1 124.69860046501732 1.1479634570203823 0.9980294797835438 0 1 16
238 1 124.08974815454204 -1.7514539106826619 2.8232358025289326 0 0 22
3266 1 130.084179382909 -0.7313632738686251 0.33541287336208686 0 1 30
2772 1 132.36708923553337 -1.9226668687946549 2.670028523891288 0 1 53
4595 1 -2.1720854647173375 67.57808297214879 0.8738882713416859 1 0 -29
536 1 118.19403710781148 -0.9092728407912924 2.336556320575345 0 0 19
3795 1 134.10978387073692 50.198141283831866 0.8557582806147296 0 0 -2
3539 1 6.877897683672437 0.7635633178616863 2.4943166568787083 0 1 -6
711 1 12.40547081924307 1.2315440052512527 0.16705867813411512 0 0 9
716 1 15.590561802791008 1.8375035883899358 1.5435689280001157 0 0 -1
925 1 18.41031991460763 2.6477236436967306 1.993640412208747 0 0 38
577 1 19.624855528927906 0.2259138683147195 2.846849383896817 0 0 7
794 1 22.25578887047325 0.8224099346523865 1.9995032876014631 0 0 19
687 1 27.19706706362411 2.2487404064705165 0.38120647012491315 0 0 1
70 1 31.66917434683898 -0.8056899368079531 2.8762217820728964 0 0 18
192 1 34.16060633116704 -2.284802018987513 1.5015729154827802 0 0 35
948 1 66.88095941703499 3.1747346111866293 0.7723430810126517 0 0 31
171 1 70.14873533023787 3.2643385422981943 0.46968013671927755 0 0 -10
550 1 72.95340202921031 2.3346827397527417 0.48812610393985123 0 0 1
302 1 75.91874410341157 2.5924030563899425 0.37863665877382874 0 0 -7
100 1 78.76925009353877 3.0247272216476073 1.5454616753506805 0 0 4
518 1 83.62672463154198 3.665591665849293 0.36613333923697533 0 0 1
833 1 89.10261257206004 2.0700040062283023 2.5668872466792534 0 0 -8
1003 1 91.7761648568142 1.4774840111412173 2.215773815740045 0 0 -14
954 1 93.02329385373268 3.970861969412261 0.8986161679370873 0 0 -16
1042 1 95.75389052036515 3.7171993562589423 1.7713064649479795 0 0 -25
525 1 100.85907895120857 3.651264266940707 2.425571201067407 0 0 -8
665 1 105.05731455850406 1.0383932797773552 0.19489296610054577 0 0 15
165 1 103.58042076142964 3.1962086334345026 2.272622037208839 0 0 16
812 1 107.80781409575815 2.1594723903246544 0.4364472223998106 0 0 31
1146 1 110.39573480837014 1.3631267762273147 0.525192736465045 0 0 -22
10 1 112.84230296163403 -0.2424823630818298 2.578150658024943 0 0 5
125 1 119.17324378415378 1.7177693407659458 2.6474490694000634 0 0 18
101 1 121.97844435937397 5.1326842139189415 0.8831849349031187 0 0 5
2420 1 126.76240014104422 2.951013893974552 1.196701499624441 0 1 22
2434 1 129.6301742656572 2.0022172475355475 1.6993690607038827 0 1 14
3814 1 134.0094537293101 2.570162097208076 2.3246735496107087 0 0 19
342 1 132.9035970183315 86.69439195887594 0.74682429480921 0 0 7
4792 1 2.2243722938827792 1.9254956635938418 0.841938506952316 1 0 -17
592 1 5.651992763991116 3.182426579770045 0.24909498929520857 0 0 9
541 1 7.994298209073783 4.896429574818285 2.9867681880944845 0 0 27
2637 1 9.498531830948403 1.6292552543500944 0.3091726119834642 0 1 13
544 1 13.630203510997529 3.728605585218596 2.2302922590100884 0 0 20
234 1 18.10905931953049 5.458737542868585 0.005647408675476147 0 0 42
305 1 21.343687668795322 3.4224342239597005 1.5520391709210652 0 0 38
205 1 22.913859024328907 5.760601011166669 1.3751545772074971 0 0 15
587 1 25.446827644835665 4.794375249975845 2.5918834196958613 0 0 19
822 1 65.63304365670915 5.53573468942726 2.7320488348760206 0 0 -7
1109 1 68.67121747481745 5.990877845163348 2.3214520790760496 0 0 -40
1135 1 71.65339792339665 5.504454453256063 2.954921872785497 0 0 2
837 1 74.29364693176944 5.118194750975603 2.0797149180049557 0 0 5
57 1 74.57960559280758 8.051057196298071 2.127482524110971 0 0 -13
804 1 79.03032258107814 5.853498131758952 0.6754973809368713 0 0 16
91 1 81.68556979070671 5.942308441514156 0.7439408698471937 0 0 -36
103 1 86.47956292780212 3.807123011682859 2.378953393766791 0 0 -5
814 1 88.34681650039477 6.237754506310408 1.9608206479408434 0 0 -30
5 1 91.38979336564948 6.419448181636829 1.60163113337235 0 0 -16
856 1 98.12727635166392 5.366374805990274 2.5204638972017905 0 0 -3
598 1 104.99685307821333 5.729038811026911 1.6779709188294125 0 0 -8
330 1 107.46440930913509 4.878525399416955 2.1967927740970516 0 0 26
632 1 112.17995657091363 3.5710557658183335 3.015899210209178 0 0 40
138 1 115.18454617134933 2.9692897665599913 0.049484712329866454 0 0 17
467 1 117.85464058045997 4.2745364650247994 2.8133015140752464 0 0 16
607 1 119.54208121150837 6.642213727814763 0.6066532285673861 0 0 35
328 1 124.24466486022304 6.581069951612827 1.4847722179229643 0 0 4
558 1 126.91277615426128 6.012749088903741 0.6888737348046656 0 0 32
3793 1 131.5648270805431 3.895739310773031 2.262865064941616 0 0 -20
557 1 -0.3188085813419046 4.973009174346416 2.763057773112366 0 0 -35
119 1 74.73054332023983 87.70887870888957 0.25071884209092277 0 0 -7
241 1 3.311022420893015 4.680951094854346 1.9860234694235832 0 0 -2
1057 1 6.959241763668183 7.6539066734790975 0.6263256163040266 0 0 -19
673 1 10.820783641986074 4.2000204171540005 0.3729362567022385 0 0 -7
621 1 15.319153804368838 5.915723872903749 0.0036109740203515983 0 0 11
225 1 19.036401925805187 8.095743455712952 2.7771886705779005 0 0 5
142 1 21.71242835040926 8.393955541412138 0.7597320724601876 0 0 0
285 1 65.74077877094047 8.468424537358349 2.8028025602134274 0 0 13
409 1 68.69003421988609 9.098547584103132 2.5074463407376912 0 0 -9
897 1 71.68827896423078 8.299068043814176 0.06503886364025048 0 0 -18
583 1 73.4535569569389 10.999687621630347 2.347803112414825 0 0 0
873 1 77.68785253543254 8.328779901099246 1.7764153469232067 0 0 -7
999 1 81.6454223066893 8.562332540576996 2.652897409295581 0 0 -16
357 1 79.43256334429837 10.25896906988193 2.8694205743282204 0 0 3
1125 1 84.23812411112529 9.405066772025751 2.8972419386626598 0 0 -19
887 1 87.34215105308219 8.585417992137662 3.009321131979881 0 0 11
191 1 93.02557285295731 8.585451588213887 1.8187234970701434 0 0 -16
12 1 95.68125703899902 9.659146533974388 1.8336805359960278 0 0 -21
113 1 97.96244690834435 8.078664211673063 2.2614090587531352 0 0 -36
612 1 101.06953083261345 8.813809374195552 2.466256493372791 0 0 -5
1134 1 103.72082086877869 8.066787771348746 0.9837913216210841 0 0 14
380 1 109.04694286529764 7.456214403236038 2.014710230804133 0 0 5
680 1 111.61410618756285 6.425591142215529 2.83309799362831 0 0 8
257 1 113.5929978266547 8.337488885534693 0.12494153475103204 0 0 19
164 1 116.3149031217641 7.113183479800595 2.923278633199012 0 0 19
98 1 120.33978821923854 9.465762715492442 0.03277734219843925 0 0 -5
861 1 128.06912160814045 8.421105074363682 0.7895270521094845 0 0 -14
4547 1 130.86838553444113 8.909570006117127 1.114140834584465 0 0 -7
3919 1 132.2559606891831 6.512159150148085 1.5771941034313555 0 0 -16
1304 1 47.662462255404044 88.51657613265498 0.8585432967872288 0 0 25
157 1 -0.38638719205035876 9.668723565545791 0.5752355262506743 0 0 -9
217 1 4.160120770256392 7.183561687728455 1.333453878524613 0 0 -17
3 1 2.303592914598654 9.514890007591621 1.3693039681984784 0 0 16
3838 1 8.711336859567863 9.509370457087849 1.1373958984707262 1 0 44
906 1 10.759344832096023 7.330258329838001 0.5296013388940083 0 0 24
451 1 13.687958609639917 8.115742461194529 0.37809669491477776 0 0 25
759 1 14.939353866495892 10.727757203652581 0.30431991491123955 0 0 23
1035 1 17.73066631546184 10.44399747815003 0.36538743173606886 0 0 24
562 1 21.9771253445563 11.39197542316134 1.1105589194797114 0 0 4
314 1 23.686425957471094 13.643767102720862 0.4091760608205874 0 0 27
475 1 70.64427487364108 11.416173869384288 1.7915431225514216 0 0 14
771 1 75.56087024267677 13.24102846180386 2.620654750586552 0 0 -19
903 1 79.98722674540203 13.148008253450838 0.9083164447638313 0 0 13
917 1 84.05584418560602 12.247214005303391 -0.003460346197819847 0 0 -21
206 1 86.79645630174227 13.058915443616534 0.09843838306941627 0 0 -11
726 1 88.6700802291363 10.937947653055621 0.11619779902863073 0 0 18
372 1 91.40838477162096 10.770834315326068 0.05838530790151708 0 0 -11
637 1 95.85710461483086 12.443486854714303 1.7838398863688478 0 0 1
641 1 100.94069757199215 11.725853103802187 2.3870660855019468 0 0 4
706 1 105.31428469252495 10.229352057107711 2.1909032766687533 0 0 -6
381 1 108.11717593629444 9.926487695865886 0.664602368773535 0 0 4
573 1 112.44390906234656 10.749766364981298 2.7975605853121728 0 0 3
1090 1 117.63875517259497 9.552389445787504 2.545687000753733 0 0 22
468 1 123.17206008532344 9.141400944509652 1.4973839602292625 0 0 7
928 1 126.1263556077138 10.2633450958225 1.4885742950479801 0 0 12
178 1 125.96614696726047 12.905804124415374 1.742391749131038 0 0 -13
4507 1 132.01656234698893 11.503921258202615 1.5614028836022245 0 0 -9
1727 1 58.29988306543225 87.704792174633 0.562901217647606 0 0 -7
1056 1 99.93583511993182 -1.8744851561356666 2.657344382784557 0 0 -29
4363 1 3.2687646573374822 12.108206293620245 0.7497082136417906 1 0 -11
3563 1 6.0114682859938675 12.765307612773844 2.8878855470051823 1 0 1
259 1 8.749528683953375 12.408138959133776 1.0962069556106042 0 0 12
216 1 13.13815367884806 12.8374862197802 0.48313205341785226 0 0 14
108 1 19.414999317719023 12.620448402712421 1.3649131104181331 0 0 14
614 1 21.49762284812747 15.13357707328744 2.3978851979422178 0 0 -2
567 1 73.0232533442819 14.510582875913233 2.038690669955278 0 0 -5
992 1 73.86573454105145 17.13860172511203 1.7623290468535298 0 0 6
602 1 77.80788243727895 14.903313783839028 0.7749621915534988 0 0 0
236 1 82.3088624613076 14.611293242243658 0.2705420207097731 0 0 -14
1022 1 82.27798206606923 17.608556474814375 0.30787423691705623 0 0 11
97 1 87.51282354646514 15.910001619740797 0.9289280311307453 0 0 -17
229 1 93.14175959471976 13.213661438937454 0.37736770549094684 0 0 -19
392 1 98.60433869317686 13.134230572439225 1.5912838699388723 0 0 -13
184 1 103.54775889097043 12.599193372090403 2.357282470456182 0 0 -10
228 1 109.71377336865554 12.14963229109324 0.7595489723910399 0 0 9
967 1 114.23871977508017 12.8982123456349 2.9852268757198326 0 0 27
786 1 116.73849567627805 12.026980167933507 0.020803055568237916 0 0 13
272 1 118.7689561245041 13.93500777338242 2.7462173712316513 0 0 -7
77 1 120.98397715413375 12.115715297154637 2.8192638865124424 0 0 7
4540 1 123.2420500756107 13.593518547859844 1.0877161164206424 0 0 7
547 1 127.76132603831755 17.05671519749936 0.9973364472851001 0 0 -3
3776 1 128.21239417968985 14.437844010397363 1.40882777008274 0 0 -24
1128 1 126.11830823436478 88.2170118833106 2.8717210986277184 0 0 -2
965 1 130.8031895037227 14.208886095466685 1.3805290595409032 0 0 -16
3845 1 -1.3157769558097003 14.13376660958632 2.6535126808336873 1 0 18
483 1 1.4245241781954068 14.164647946257983 0.21869608653023154 0 0 22
3660 1 2.7710686427315325 16.570341718181158 2.309072237599467 1 0 -5
222 1 5.692305242362677 15.562323536080491 2.2339153233252427 0 0 0
423 1 10.738991917132635 14.480803614391188 1.0159229184832959 0 0 10
4027 1 15.47629172655046 14.878461383439628 0.8117253990965149 1 0 5
900 1 18.283274483152997 15.409855360616927 1.4012346965848965 0 0 30
993 1 18.70100525131099 18.145089781367922 0.7741455646341693 0 0 -16
14 1 23.222161794802535 17.447492798303745 0.07404700034936063 0 0 -5
289 1 70.18232231418983 14.374812263970899 0.6190145723882083 0 0 11
548 1 69.31778884193362 17.24486169741689 0.7933849576794961 0 0 -4
182 1 71.45513969239029 18.58271795157812 1.496821196161849 0 0 -7
501 1 75.38948312420223 20.471659243269396 0.3465991055481385 0 0 -1
681 1 76.58038448878017 17.888426104579988 0.2596077014269236 0 0 1
334 1 79.66425599944341 18.544559480442015 0.5879389520387888 0 0 30
455 1 83.80014320661954 19.733958031205983 1.0039733232481363 0 0 -1
312 1 86.48621505955586 18.605575274246874 0.8388372544688965 0 0 3
94 1 90.39420511406455 16.754894404878797 2.392367462107761 0 0 -6
311 1 93.05414453329404 15.85360995596724 2.3917897596965476 0 0 -13
92 1 95.69451457934345 16.94222988373079 2.8928354795655533 0 0 27
1029 1 98.44108693795887 16.0172946906438 2.3857621054449387 0 0 -17
995 1 101.38349071079647 16.802268231854388 2.7504187408049106 0 0 -13
959 1 103.72368399290568 15.267085736718876 1.9066533944297837 0 0 -7
829 1 106.34001454232938 16.134121640462023 1.7658082703752218 0 0 -24
798 1 108.61851363617474 14.829562345014065 2.0064278781793643 0 0 -3
950 1 110.84060461972324 16.55070944077938 1.903519843156616 0 0 25
805 1 113.4087260405408 15.481172806748184 2.618623873636049 0 0 2
1173 1 115.51065916822179 17.742358009165333 1.45575500618017 0 0 16
750 1 118.16358175664183 16.789770126074444 0.3583948313564315 0 0 20
754 1 120.97209081809532 17.33902116152909 1.3725780026932022 0 0 -5
224 1 123.67681861294814 16.341415132049935 1.2693836002846908 0 0 -7
41 1 130.04417425438857 18.699586882579755 0.6998301100357189 0 0 -23
735 1 132.0642543853475 16.667125503631702 0.6198005335893833 0 0 -3
4695 1 2.3091968094790154 19.57647036767517 2.3855549949384347 1 0 0
185 1 7.596796714870928 17.814514736257 2.770786687761027 0 0 9
322 1 10.285933294953956 17.202699251377496 2.908642801372266 0 0 20
507 1 12.109510524811366 19.2564473417981 3.028267914165329 0 0 1
250 1 14.47320607546801 17.43123721678211 0.08916971621334593 0 0 19
150 1 13.537661003073922 23.9137661265734 0.5432129096252941 0 0 33
854 1 16.140640982424266 19.507015098728022 0.48175704186799184 0 0 14
407 1 21.270818013488658 19.257670255187538 0.46723479758172365 0 0 22
46 1 72.77251344472432 21.387588574396666 0.1735523581983576 0 0 -20
817 1 79.2467500116679 21.256682246976098 2.7335788942472217 0 0 5
539 1 80.8243592992722 23.3405462167874 0.3218933089849769 0 0 -30
530 1 83.20413418839368 22.47503184893798 0.018999311833968878 0 0 -14
913 1 88.39601878373267 20.411321497126796 1.28153413294365 0 0 11
1027 1 90.90965211275339 19.429296092379367 2.000095526833231 0 0 -22
728 1 93.31829433102111 20.932291800473507 0.3708076958510096 0 0 -21
187 1 95.75185586078621 19.66631047031683 2.304414978689498 0 0 7
162 1 100.97710249463442 19.609994168695593 1.8387047504757839 0 0 -28
220 1 107.27314354576716 18.691425926693892 2.076176856234074 0 0 -9
292 1 109.90994438634213 19.267776865529754 2.8974049823627404 0 0 24
1032 1 116.96212077569977 20.17768489625534 2.0992132871290785 0 0 -8
398 1 122.23728678348978 19.84737279974192 1.9173833910811513 0 0 15
275 1 125.19844846376681 18.898985588251616 1.7089938358014092 0 0 -13
615 1 125.02517345013908 21.8086317344358 2.0354647727982487 0 0 -28
37 1 130.22523716953273 21.67924547698183 1.7848498735785927 0 0 -4
1064 1 133.34728738177424 19.261112356698046 1.9291606520579527 0 0 -28
4199 1 -0.6732549393484402 20.508657387937195 1.9908979970605662 1 0 -13
3755 1 6.933134862010416 20.568962578576166 1.1256461454630247 1 0 -8
345 1 4.215061398787404 21.68270712349227 1.7606704174438692 0 0 18
3862 1 8.572709501118332 22.672619001334883 0.4911058056599703 1 0 -1
586 1 11.325539407313206 22.319363351321844 2.7421120157165317 0 0 8
174 1 16.302362931980955 26.121210915569367 1.1777480673568714 0 0 13
1171 1 16.013980334740538 22.53421974567276 0.27300982850452166 0 0 5
434 1 18.701524395839275 23.985953871300012 2.8850441886894487 0 0 34
50 1 20.928102841068462 21.99657881610187 2.5792013725143956 0 0 12
386 1 74.01012252505518 24.00457085552032 0.03847877613704653 0 0 -18
2 1 76.78560534457382 22.716926654279796 0.14946735639194517 0 0 9
45 1 80.55381935566015 26.30452737285979 1.076271349532209 0 0 29
452 1 85.4636244861583 24.283550698886227 1.0650887630733106 0 0 -30
194 1 87.95758478187761 23.269717296488572 1.007173297544093 0 0 6
896 1 92.68633341483554 23.64328276598021 2.1155792835705274 0 0 -13
640 1 90.12228196413757 24.901786810693196 1.9036709450846825 0 0 -11
942 1 98.36044188202204 20.667655822508145 0.16499280957310547 0 0 -14
190 1 97.52065694357078 23.19240587243688 2.551270527782597 0 0 -16
886 1 103.09239375212441 21.455599270777363 1.5758727708143545 0 0 -34
1098 1 106.10327420719254 21.281530109617364 1.8378829211677994 0 0 -15
1166 1 106.9770224033723 23.785628889061403 2.3317534609758575 0 0 -1
215 1 111.78865504903433 21.906849266962777 2.6529036153960988 0 0 31
258 1 114.69472001236474 22.321172384924925 2.772928312561846 0 0 16
40 1 119.68540477735263 21.242736716645478 1.8247076016814854 0 0 7
419 1 120.4522518469099 23.93525256816141 1.4689301552553795 0 0 4
1037 1 123.1104344728291 24.244801044231355 1.406086694381409 0 0 8
719 1 127.63114416090278 23.01028563138614 1.5523370092915187 0 0 -18
287 1 133.03774978701716 22.334616268796157 1.9002422766728848 0 0 -20
4154 1 132.44841303171498 25.19025765926423 1.2514917941225507 0 0 -3
1162 1 -1.2884133027598785 23.24682846554888 -0.02397475241456526 0 0 -25
625 1 3.46884029506612 24.47670293817252 0.6667391540263171 0 0 6
3636 1 0.9260808970912913 25.222949002824492 1.007319190065805 1 0 0
4128 1 5.479702302010018 26.803409163250333 0.5865922523162317 1 0 -23
448 1 7.7977934960828765 25.264584477115974 0.8792708501825909 0 0 -7
776 1 12.754137752353586 26.5360108327956 1.1805574332831368 0 0 -11
4353 1 17.603102258695813 28.689860318323873 2.6532426057685186 1 0 -10
664 1 19.742342620452774 26.702180503491928 2.858697165174579 0 0 0
474 1 73.61296304422065 26.963379131223736 0.6272347303960407 0 0 14
818 1 76.32228050590703 28.271278972159507 0.7478703228973566 0 0 -10
186 1 78.93603547948531 28.431859497087977 0.5392490776497819 0 0 -9
1105 1 85.45307026908874 26.98302912138543 0.3256605775424392 0 0 -3
842 1 88.26819128492194 27.039842383758835 0.7018507337220322 0 0 12
87 1 95.03929645884777 25.084474087401144 2.681540596112571 0 0 7
860 1 101.59566222587702 23.922691222979378 1.7984178837782256 0 0 -4
126 1 99.11119919726127 25.29146778660397 1.7181599838841366 0 0 -30
1157 1 102.86556856591675 26.32057926675346 1.9897589896998145 0 0 -2
930 1 105.57195542833732 26.274735555927858 2.86321640453896 0 0 -29
9 1 109.74391410587175 23.918999714592626 2.7941075964760937 0 0 1
463 1 111.10683816586575 26.423671457146604 2.409347242794432 0 0 1
696 1 113.74941791631775 26.742474086871365 2.616004150992767 0 0 -15
268 1 115.82992120794675 25.00191594021483 2.892822523804357 0 0 13
652 1 118.40415575082581 25.999314550660923 1.279051960572045 0 0 8
1045 1 122.97586858567645 26.965508645098698 1.2953161522940335 0 0 -3
358 1 125.50228517863678 27.831984564529282 1.1701683921694006 0 0 -19
724 1 127.49074298189669 25.987183126178603 1.4469502483828407 0 0 -15
979 1 130.10368639582762 26.997686450528278 0.925532281479558 0 0 -2
1178 1 89.83714055891593 -1.998677660067384 1.9232910072932046 0 0 8
4747 1 0.3420174251972772 28.090763850458742 0.2126360470521581 1 0 -11
369 1 2.522649039210397 29.818679635037277 2.4366570379188266 0 0 -19
740 1 5.5525297086220995 29.415335779234006 2.875368400292774 0 0 -13
4281 1 9.831014091954811 27.22461549060798 0.9694808661004533 1 0 -4
745 1 14.6514324302033 28.618488522182105 0.6945296429509971 0 0 -2
984 1 71.6850429266682 29.15621971362528 0.40416138893870146 0 0 -5
713 1 73.05162814618389 31.723361304608062 0.5023301561326131 0 0 -1
172 1 75.80338613911604 30.675916964333446 1.3061504802109651 0 0 -30
299 1 80.72293331178847 30.934799598283675 1.2377334209113184 0 0 -8
71 1 82.571857126044 28.487960751862673 0.942314834077846 0 0 -7
339 1 84.96842261056125 30.154839234982695 2.1073269228530425 0 0 -2
752 1 90.32047951940804 28.91974808215535 2.9057605226116694 0 0 7
1169 1 93.07306793184698 29.30849626430041 0.09493641903812457 0 0 3
554 1 95.5063953124102 27.89692269302421 2.554433920069867 0 0 -7
969 1 98.37564729552415 28.197268326610693 2.327393068461342 0 0 -7
1073 1 101.42732782476912 28.568578386968177 2.102778249711446 0 0 12
581 1 106.68653221116985 28.853546654218746 2.7574386305057637 0 0 2
436 1 109.60926500976872 28.817546195200507 2.670497275109361 0 0 -4
746 1 114.61346774677732 29.437569751186302 0.004055774462413453 0 0 0
799 1 117.39681136762213 28.704283394717983 2.6337574125095538 0 0 -1
1070 1 125.65859911934879 30.654229336596842 2.00501209357813 0 0 -8
1182 1 130.35041603688654 29.8827374136401 1.6930211187843347 0 0 6
770 1 132.9362278502866 30.953887963489287 0.45642197829277203 0 0 -6
4249 1 -1.4395388346513773 31.993485413981993 1.6344494317972216 1 0 4
141 1 1.2012104132296955 32.2305991508216 2.7133545589306545 0 0 -11
44 1 7.331127686007145 31.37402275192767 2.892386322803204 0 0 -1
303 1 9.836010384132148 30.202440740406864 1.2175235850534742 0 0 -20
1038 1 12.603711110496073 30.593282226630905 0.2531535895427568 0 0 13
1020 1 73.84762571512057 34.447674243835735 0.545782265102712 0 0 -9
80 1 78.16809908706963 32.055089773871316 1.9360140115780076 0 0 9
382 1 85.06027437900354 33.08909763908774 2.4317938754767683 0 0 -23
840 1 87.89429237425908 30.37537611852091 1.784292738310839 0 0 7
284 1 94.35551974598602 31.73322280959023 2.036616534772363 0 0 9
522 1 96.85965516345952 30.779675487961363 1.1682356306580257 0 0 11
1014 1 99.28199451338935 32.37897164920039 1.6470644005277906 0 0 9
797 1 102.08322788448966 31.411340941783457 1.0557825725791676 0 0 -9
280 1 105.9164288972593 31.59099619226801 2.591201405178243 0 0 11
720 1 110.54435793777031 31.289173985585144 2.5256543784377925 0 0 26
385 1 108.32075969217867 33.06769176465752 2.144743389955077 0 0 32
633 1 113.43703480905295 31.720563117577917 2.425686675851014 0 0 -1
883 1 118.59960027011849 31.437097689503126 2.787125619025458 0 0 19
749 1 120.99669249710114 33.25064370271932 2.604383240236798 0 0 11
935 1 123.68438166585918 32.58307542492961 0.38601548297400695 0 0 11
931 1 128.16702720217972 31.714615730660384 1.9588790744984594 0 0 -5
791 1 133.71066187835305 33.5626134893427 0.04877026143270688 0 0 -11
4310 1 -1.6580358565288051 36.19153216337708 1.1992826387279294 1 0 -7
478 1 1.8873098079842636 35.063918820537964 2.854937922413261 0 0 -13
826 1 4.500118566062465 35.72692994142347 0.026952878110234835 0 0 -7
779 1 6.91344167774098 34.154997891411796 0.9446696781289237 0 0 -5
482 1 8.951968521598609 36.03599213789921 1.541491193898356 0 0 -21
247 1 12.035275093529414 35.76278905153876 1.6663480307521097 0 0 -24
486 1 13.381815039643815 33.21463366169603 0.09141194195580393 0 0 14
868 1 15.994779202452897 33.658276941832305 2.4039835300498504 0 0 -9
251 1 76.63806400767429 34.61879551125106 1.1230235273882647 0 0 -23
28 1 82.38115205650051 33.353321695651644 1.7054412226304454 0 0 18
267 1 86.92362852701915 35.025107494825114 1.8328765413077353 0 0 23
117 1 89.05935604225587 33.068278096768786 1.7529864246539755 0 0 -29
741 1 90.82019011410098 35.100468147607664 1.306266273953442 0 0 15
606 1 93.8313637848218 34.40400577632536 1.5003811550369288 0 0 -4
907 1 96.03219000222725 36.0889117166504 1.2999156260062448 0 0 8
998 1 98.90370218818119 35.14175280733417 0.7482666505296155 0 0 -9
717 1 103.80900073911592 33.609839844762384 0.42424362647903624 0 0 -1
809 1 109.09400050478142 35.94553513220743 1.7470604256657714 0 0 18
161 1 111.72038522811617 36.347342053535414 1.7726618517535049 0 0 3
1143 1 113.84603989322765 34.554994660108385 2.135064906439326 0 0 4
712 1 116.57071852542408 35.811866823101056 1.6243027325599118 0 0 11
441 1 116.18461534336802 32.576610665350884 0.3501778161114696 0 0 1
359 1 119.3914877938475 35.408261144575306 1.6487592492752425 0 0 -7
1091 1 124.4499112989003 35.412336532747055 0.2698963020320129 0 0 17
957 1 127.3476196721563 36.34582608716676 0.5934141089144541 0 0 -17
460 1 129.40247033586118 34.23557463087586 0.08781199745730249 0 0 -18
246 1 131.7887979454878 35.6351678898848 3.0017693173221334 0 0 -41
4465 1 0.689287476896737 37.62267935146342 2.1513940490353525 1 0 0
3831 1 5.166679608562861 38.528262770580284 2.42140228822141 1 0 -6
986 1 8.043754704893464 38.4617641136594 1.405856735809032 0 0 4
76 1 13.68747553372307 37.976404594153394 2.0196255508703134 0 0 -1
417 1 16.225768357854857 36.41938883048055 2.079285971691373 0 0 -26
498 1 18.831428655054687 37.66186665157617 2.3527771739396686 0 0 -15
1159 1 73.65714199346708 39.12695419831857 2.203336676811717 0 0 12
509 1 78.38153384321674 36.95723109702 2.7267907592201546 0 0 13
642 1 81.06022699141204 36.02443012030689 2.2283072584373667 0 0 6
31 1 82.56722178515948 38.36407076284512 1.2922027530992393 0 0 12
128 1 85.36543302156528 37.39763283929973 1.2013182100955087 0 0 -7
821 1 87.52790566024123 39.30534278516224 1.5093230354596439 0 0 -21
1 1 89.86479993311698 37.94129638981308 1.0458794555125503 0 0 11
753 1 95.14128934569257 38.78511163930585 1.4075353393661627 0 0 11
870 1 101.02556298692124 36.92896260011093 1.136021474795039 0 0 6
1066 1 103.77414348177598 36.46564082024565 0.5480084631895524 0 0 17
549 1 106.45148547853394 37.27226396667302 2.086959219911515 0 0 -1
1156 1 111.7750491407209 39.32702240865194 2.2788092106497695 0 0 -16
1026 1 116.40636584868102 38.62550107259374 1.3195897270261192 0 0 27
650 1 120.48410844051482 38.08316352801499 1.218212626769091 0 0 4
1158 1 123.29453766480398 37.84702632111191 0.923573059303254 0 0 -16
416 1 124.94663197908 40.063089036144945 1.0293580137204645 0 0 -22
892 1 127.57409435076252 39.264025352391 0.7656014039268344 0 0 5
605 1 133.25567895833282 38.02422155735751 0.19823734804758011 0 0 -14
4367 1 -0.431002598265104 42.67139430743655 2.9923026130057897 1 0 -18
4495 1 1.3607811862072219 40.30537034762675 2.749963026762056 1 0 -9
4618 1 3.932578149958262 40.902599278203226 2.5710862071237317 1 0 -20
433 1 9.618950425691365 40.72907075175066 2.995801543730298 0 0 -29
261 1 12.217957298810848 40.190518524076914 2.0559988617113643 0 0 -14
1044 1 13.614553161718334 42.46715430285985 1.438768580169094 0 0 -29
889 1 19.058002472005168 40.44979019242016 2.5277928676805734 0 0 1
99 1 73.32266985730618 41.832972117436945 2.4835706835387157 0 0 18
595 1 76.61518823118763 39.21236212540418 2.083744706583073 0 0 5
802 1 77.50817780800628 41.98068671848589 0.08409373329359138 0 0 -1
618 1 82.34492279632434 41.32124458756323 1.5895350668770096 0 0 28
425 1 87.09852818721856 42.012799378710746 1.657646909844375 0 0 -4
104 1 92.35006636481344 39.615655706957575 1.4478183096570145 0 0 9
790 1 97.28865574100307 40.56693974098063 1.4659808918857862 0 0 1
286 1 99.89329223978277 39.25171655308292 1.2760188298183366 0 0 9
690 1 101.99637490368212 41.04269702531129 1.1302563757010229 0 0 21
1141 1 106.95020788704362 39.98374960118291 1.4068493147325736 0 0 2
1172 1 104.66818561165117 41.79497897095306 3.023936407714947 0 0 2
276 1 109.49038792483432 41.098990108413695 1.3277914023414714 0 0 7
68 1 114.18689820001732 40.52178219653018 1.6539395433746054 0 0 23
435 1 114.03454070563708 43.25385400401916 0.6240577348545998 0 0 22
1174 1 118.8372214537972 40.016271196785404 0.7473065732353046 0 0 13
651 1 118.89253002345086 42.93509165317785 1.01651446353875 0 0 14
112 1 124.29695254194931 43.04253448447996 0.9103955524760405 0 0 5
722 1 129.8897581015092 41.12551095544987 0.11049719195588803 0 0 -6
461 1 110.34358715347447 85.51162779891969 1.8206524984665842 0 0 6
123 1 132.74031023541372 40.8775514981425 2.8151624905942167 0 0 -12
521 1 0.2539345335522163 45.310415629616344 2.7605463575820934 0 0 -18
991 1 2.7700823637677088 46.455104365768264 2.876119600832497 0 0 -27
481 1 4.205928542792979 44.032622654491085 1.8381842901760974 0 0 -22
49 1 7.043090180199076 44.90575501505125 2.0880437522300834 0 0 -20
551 1 9.214220200559357 43.39624384412135 1.34766212569014 0 0 -21