LAMMPS data file via write_data, version 29 Oct 2020, timestep = 150683

4199 atoms
1 atom types

8.52879664365041 261.47120335634435 xlo xhi
8.52879664365041 261.47120335634435 ylo yhi
0.6317627143442834 19.36823728565583 zlo zhi

Masses

1 18.015

Atoms # atomic

1704 1 131.90173900505656 88.14312097680933 4.085602300220588 0 0 1
1442 1 131.71578940323377 89.78258037917742 1.3481902672665762 0 0 1
699 1 127.37539908118404 91.13913547801948 2.8625894352968344 0 0 3
1758 1 129.1881197270997 92.3809339230194 1.6264056718823265 0 0 -1
1945 1 121.64001172897926 90.35780551652202 17.821317991500404 0 0 1
2487 1 132.70767742192743 92.79856212459349 17.207962106283993 0 0 1
88 1 127.44908031353816 92.05441548739316 10.994469585507751 0 0 2
3409 1 129.351961646212 89.3580440321878 18.528023553523898 0 0 0
869 1 127.36984311800812 90.02627463429447 5.512983318103991 0 0 1
3945 1 134.54284442077522 89.16077945442242 4.672665024587788 0 0 0
2602 1 130.5170440017972 90.00767985545998 8.757735295603702 0 0 1
1141 1 133.06055631089848 89.42285910770386 9.247055991783029 0 0 0
754 1 127.30722944072193 88.73140810228868 1.4863669751056754 0 0 3
535 1 123.32965638192962 91.70197524744012 8.783718692478313 0 0 -1
1884 1 133.42976126088828 89.98573941306336 17.855765601865183 0 0 0
2907 1 125.16274200001344 89.93536564708918 8.233754045073308 0 0 0
1286 1 130.27374265255736 89.87487333894661 5.944019125272378 0 0 -1
3938 1 132.82388291826285 87.7782816016621 11.472253398475328 0 0 0
2159 1 125.8779001835101 87.95984486416894 12.40919917464454 0 0 2
1810 1 123.75516461267677 89.49263229408936 13.01856174630865 0 0 2
3046 1 127.50428803634624 88.07333298234408 14.953983148138374 0 0 -1
2611 1 130.26640258521957 88.08571557456239 16.26341989503501 0 0 0
921 1 130.5695494447445 87.6204571952531 13.16518658216391 0 0 2
1020 1 121.94211215013239 90.08757676582837 1.9146536128502198 0 0 1
1052 1 121.75442054119223 90.70101843666694 11.233813188695393 0 0 1
3350 1 134.1287418790862 91.58300904066817 10.766627108831504 0 0 1
2519 1 134.08277156525207 89.74352520105282 12.845068490531427 0 0 0
1366 1 126.68680556594585 89.5184971126726 10.398145380184157 0 0 1
2013 1 129.04893049855875 88.3166643630067 10.49762682706416 0 0 0
2540 1 134.73949698534258 91.87555004843689 3.24299839976554 0 0 2
2018 1 130.5248454977654 91.72193805121599 13.901261993366589 0 0 2
2654 1 124.57514086432366 88.96358034710792 0.831325012153074 0 0 2
2598 1 132.27137400586255 89.87113983486257 14.959315725437317 0 0 2
361 1 132.24001785892946 91.89499143957583 5.698558743671205 0 0 0
3432 1 123.19999158362366 89.18123517455211 15.81835535193858 0 0 1
2202 1 124.89016322561325 91.85977775364869 13.544157498671668 0 0 -1
4040 1 125.85661409155935 89.48256777522944 16.9508109085315 0 0 0
4088 1 128.8444375418678 92.03726104859005 17.567171227011002 0 0 1
3763 1 128.61791294534558 89.77631626589978 13.104927295803545 0 0 1
1829 1 126.81270909188395 92.55257926738776 6.711201163626546 0 0 1
1556 1 131.60036594983632 92.16584785698788 2.8835508441739375 0 0 2
1527 1 126.28794534701592 92.18361110834181 16.49577034877469 0 0 -1
1502 1 134.44433094901453 90.4854848457128 7.165777027997331 0 0 1
258 1 120.74403105988654 92.52138604688791 13.105054116231248 0 0 0
421 1 122.56551807634362 92.61519787875105 2.0842650072273186 0 0 1
2076 1 115.63139211205078 94.97876076664245 3.7270590505478873 0 0 2
1223 1 118.39653189394043 94.20552512250065 2.9056074318123355 0 0 2
1799 1 122.12312183118556 97.13677033588401 4.103983047349096 0 0 1
3121 1 123.0307028540811 97.07545275609301 17.52481005559195 0 0 -1
4001 1 126.10613051861868 95.29482438169576 1.092281261930479 0 0 0
2232 1 129.0140939970812 95.21592277173059 2.227742761312705 0 0 0
2715 1 130.8960817815564 95.4532383186832 19.00082260386647 0 0 0
1414 1 110.16969321133568 99.39242321007367 3.3425919098727697 0 0 1
1699 1 114.33367934567293 95.53801736604527 1.533208011595643 0 0 1
714 1 112.52830472643296 97.80651451220575 2.2795595218400475 0 0 0
16 1 115.79341950689592 97.46575680441572 5.500492673564844 0 0 2
2103 1 120.65238759548491 97.88238051406982 1.7461973923845084 0 0 1
4066 1 125.59886370698682 97.55247568108801 2.5023042153739916 0 0 1
2501 1 123.57053186393128 101.04437818078159 3.0534081916808686 0 0 2
1688 1 128.52251630244677 97.78226043001342 0.8516752599938965 0 0 2
1730 1 132.71626313467377 96.82278848852474 1.8503989359906874 0 0 2
1003 1 107.54170262604191 101.23485207406334 2.2607055696006606 0 0 -1
1861 1 111.43600437385518 101.46060182681147 4.339360444427233 0 0 2
3603 1 114.3634734592775 99.21816343918898 3.9444860439556275 0 0 2
1365 1 118.36730019118087 99.37444375406581 2.718671836956443 0 0 0
46 1 120.03991893153561 103.43344532613534 2.7747458059047148 0 0 1
3005 1 125.52972851188005 102.85292778530739 2.1817271956961237 0 0 1
1073 1 128.73230382326855 102.54917983788705 1.2646975255059052 0 0 0
2803 1 131.40933575197158 101.48156672304529 1.195276234364201 0 0 0
475 1 133.62990273809325 101.7884893545216 18.26970333109424 0 0 2
165 1 109.16453589108167 104.21271285292259 3.5925564358903888 0 0 2
1071 1 109.58351162691359 103.04364546035391 0.9563769862574787 0 0 2
1671 1 112.78476235351539 104.00832640737215 4.039302016450075 0 0 1
537 1 118.00756845665377 101.79358626845317 4.118481985228123 0 0 1
1578 1 123.99550943755608 104.91292091514042 3.982808720571599 0 0 2
1472 1 134.91407732856283 136.83763071557823 12.147094652136527 0 0 0
4041 1 106.44089646900791 105.1054931620422 3.33546989558658 0 0 2
1512 1 109.24983394594629 102.41373959956428 5.894142067856539 0 0 1
1420 1 111.43642758622856 107.127675579715 19.305811873389306 0 0 1
1927 1 113.50105541898843 105.35764773886959 18.167771219701773 0 0 0
860 1 116.36033289473295 106.0169425830918 4.328385384873799 0 0 0
23 1 120.17746811811608 106.30299513021235 2.6309996033314653 0 0 1
1218 1 122.07432472893983 107.35055497598952 1.1237605332956973 0 0 1
293 1 126.6096884260163 107.22095903011397 1.599572346396769 0 0 2
1228 1 124.37348450479656 105.65653802453646 1.244846758239139 0 0 1
2264 1 128.9058723667227 107.0515631018493 2.9298756510247004 0 0 1
2609 1 130.20340221319967 105.22051759780216 1.5626938402376764 0 0 1
1804 1 133.12814803051555 105.66738733907913 1.4511886029518193 0 0 0
1809 1 103.74309288592507 112.29930506983857 3.5620967836011475 0 0 0
352 1 101.49266645700413 108.40109066458805 16.03843441515418 0 0 0
1659 1 105.73894206422132 108.68303122781866 2.2991768019887044 0 0 2
1939 1 109.78292097622224 110.0215058295445 18.39852079658358 0 0 0
1595 1 108.21115523676875 110.07970422265628 1.6845435618525 0 0 1
2015 1 112.6813206535797 109.73889060322344 0.683838275376182 0 0 1
813 1 113.60063905374051 106.86430958155833 3.8949814901430906 0 0 2
283 1 117.75714051189075 107.69366788310944 2.7125776881306938 0 0 0
429 1 122.60338599417743 109.98890352894487 1.11878846099714 0 0 0
469 1 124.81902849458301 110.53609037992024 18.179335042289537 0 0 1
3004 1 130.61780640370014 111.00320986998548 1.0593190817875335 0 0 2
3984 1 130.63229992634902 109.25415538872527 3.320721732044239 0 0 1
1254 1 101.6245751307674 114.46625900389768 3.126443298931487 0 0 0
1951 1 103.05232699711266 113.64317716012658 6.140988432944045 0 0 1
446 1 105.85858119745524 113.74376545578394 2.506178049853693 0 0 1
930 1 108.53098744680439 112.6494944396863 1.6497914288322868 0 0 1
835 1 113.29946430109173 112.22649911709134 16.12769358679882 0 0 0
452 1 118.87234760545448 108.5367298125172 17.185068333687568 0 0 -1
844 1 117.44347741953226 112.47434624526082 1.8230261957814715 0 0 2
1857 1 121.06903277912082 115.78143581285936 2.4071310911171286 0 0 0
1697 1 124.83960389664273 113.45169739326298 18.304293158144162 0 0 1
275 1 125.93720145498743 113.07039411110307 2.412367845445855 0 0 1
2639 1 134.5082228206767 162.02315965405853 18.03349451010853 0 0 -1
1309 1 96.60441327709049 114.71585103266291 3.4760774330067505 0 0 2
298 1 102.63275153647817 117.02527190985927 2.014067306478033 0 0 3
979 1 111.65247911900367 117.89830415405142 1.1750236561982097 0 0 1
1275 1 117.27672644313944 116.6235456534375 4.088210963111398 0 0 0
5 1 116.04335175978993 114.76159898454804 0.8057915692978312 0 0 1
2077 1 127.54540474502063 115.06861585063027 3.618951782486023 0 0 2
4197 1 130.92431258394242 116.84953031866411 1.106646434803114 0 0 0
1209 1 127.90822289445408 116.92813157561484 1.3651059923315243 0 0 1
4036 1 133.12873541250005 174.65643487244415 1.153480889611609 0 0 0
3747 1 131.92505789204162 114.68111536335302 2.8233022062729907 0 0 -1
1550 1 93.22786737200651 119.6980726970706 2.295823218924888 0 0 1
1369 1 99.00198483130619 119.27131729972463 2.617017207430158 0 0 2
378 1 104.60328314888555 120.56275593280914 18.47851406620159 0 0 1
1710 1 104.96598547352421 118.63946725369246 1.6443824190714422 0 0 0
1236 1 107.31419489614959 118.06546028237887 3.2375348054484463 0 0 3
1429 1 110.99614268770105 119.68321502034448 5.0448583301100935 0 0 0
1488 1 113.16247839952554 122.00658000679192 2.2272148857725944 0 0 -1
468 1 114.46124665707991 117.394702492602 1.2121808644652612 0 0 2
973 1 119.08326118859635 118.11594084698473 2.4307079191322782 0 0 1
3081 1 124.30017866008757 119.2390473605636 2.683552849661495 0 0 0
2472 1 132.2479594239225 118.53705245790667 2.946069943273065 0 0 3
1298 1 93.93765907523628 119.07644745808042 4.95752790109268 0 0 0
1790 1 101.54322824820089 122.10534194170924 17.251843102381248 0 0 0
1393 1 100.44184684788696 124.31791769838502 0.9351368598446795 0 0 1
1570 1 109.08510304071827 120.45930270718789 17.24500171513028 0 0 1
729 1 107.77209051451204 121.85175499309112 3.0855584256661523 0 0 1
600 1 110.8520989814944 124.56508902337129 1.4811247560480263 0 0 -1
333 1 114.80280557381218 119.79314994153867 2.821938323983055 0 0 1
1925 1 128.33519495464532 121.06507660885576 1.714733238305128 0 0 0
2701 1 131.2941633794495 121.31153948444617 1.8311183960881179 0 0 1
255 1 93.82546665086113 124.29710185559614 1.8072773541524816 0 0 0
252 1 95.94373469781354 122.3258444109979 2.965353757697623 0 0 1
783 1 98.39548847475034 123.82900027501103 2.9373179826639526 0 0 0
2064 1 105.59764624888393 124.20413321182866 2.7161904668509074 0 0 1
4052 1 108.24387228048894 127.1498976822594 19.083728431027563 0 0 0
518 1 113.68331297757364 124.20932554685592 19.28732224157688 0 0 -2
1930 1 118.13846548926335 122.44082364735348 2.0297281514990817 0 0 1
1602 1 122.22034231531899 124.65344579686904 2.0818693995665223 0 0 0
2818 1 124.52586486754886 122.15942852311007 2.3992813287382777 0 0 0
1306 1 120.2018727959635 126.50913274271167 1.2641055052643575 0 0 0
1912 1 124.72570764920404 125.32876688274472 1.344968553400666 0 0 1
3193 1 128.76551154317454 125.04437863701656 3.047487344330293 0 0 -1
1936 1 129.25789420771105 127.46477219185243 4.535136190291062 0 0 0
1377 1 132.54751783274094 123.39368935218081 3.57785052209035 0 0 0
489 1 92.13699174647232 125.46946229625343 3.3598413688541897 0 0 2
864 1 92.7547073632693 127.86372914415365 2.277860929023202 0 0 2
1814 1 95.94672007456629 125.90383401836039 2.3028652262002027 0 0 0
455 1 97.96106003984929 124.10040896434764 18.419595120888847 0 0 -1
851 1 101.4231155141027 125.22295984200831 4.805721944113191 0 0 0
1301 1 108.27980812009574 125.01835066144712 2.3945201882062275 0 0 1
1431 1 104.45471485077954 128.5959894909209 2.1295658152349954 0 0 1
775 1 114.61978481114669 129.59405406282292 3.3463810574667185 0 0 0
1743 1 117.99367312846489 124.92734501964304 1.1690921596751274 0 0 2
1108 1 116.54673454613663 130.2711856480865 17.06044402538732 0 0 -1
853 1 126.43105323647238 128.89816775079547 1.555429486722592 0 0 0
1877 1 128.21484360703738 129.58355548193526 3.6549428370928245 0 0 0
1793 1 132.0047993633472 127.62887264167222 4.153696948981081 0 0 0
723 1 95.53286846422557 128.58901670513822 3.075915296090029 0 0 1
1336 1 98.47349907348607 129.01620110037655 1.127006095190827 0 0 1
2000 1 100.29753476862206 131.4094664220333 18.95535280788892 0 0 0
1444 1 101.83939760337454 127.514604105984 2.9442536037783196 0 0 1
1428 1 106.7636103494787 129.39142814063314 0.7378997438019965 0 0 1
1530 1 109.62899252161162 129.1302141341144 2.2230190332752846 0 0 2
187 1 110.33586062513349 131.65149965995158 3.7161713620964747 0 0 0
3065 1 115.47866003139372 130.73942734793295 1.0438675347064448 0 0 3
590 1 118.18653026338325 131.22782628666246 1.5963075145438614 0 0 2
1598 1 119.75687644626704 131.8523278875736 17.974498443047075 0 0 -2
2789 1 123.66626078920729 131.16113446270242 19.142635380853914 0 0 -1
51 1 127.31582603063158 132.95729391488936 18.177052916227193 0 0 -2
1018 1 131.69846598739377 129.8364691423149 19.26569169332327 0 0 -1
764 1 130.25764438137583 131.06151049821486 2.486936725508957 0 0 -2
1651 1 92.78850675141456 132.4101909669657 19.335217082394465 0 0 1
351 1 98.35407363539423 133.04415541612758 2.1238385140585914 0 0 0
2059 1 102.2488064089894 133.90686040005545 4.066618298529424 0 0 -1
2038 1 107.2831994874885 131.118006935103 2.9354234004689923 0 0 1
857 1 109.97413150036648 131.8897491858367 6.440447300001613 0 0 0
1204 1 111.17083600053125 133.14424613709593 1.5118063578707526 0 0 0
1099 1 114.12489838789247 133.3037106588456 0.7674941621715294 0 0 1
362 1 120.38617548269316 136.30209231536233 1.455145946910087 0 0 0
80 1 120.91617424979188 134.49924162296077 18.095805065213852 0 0 -1
178 1 123.34065167168494 133.83006552173478 0.7319498881101273 0 0 0
702 1 125.5026652372166 135.00404530286684 18.0635176711146 0 0 -1
1120 1 128.60722902151483 133.17359485086894 1.9325824236993832 0 0 1
1466 1 129.44905473678136 135.52494936910335 19.065897990401304 0 0 -1
1866 1 133.00760829740065 134.4487058567069 2.4623292683334 0 0 1
1712 1 94.61365806639968 132.93168557629903 2.980116676602474 0 0 0
850 1 94.87211001271191 139.32223573431762 17.26466275491854 0 0 0
1956 1 97.11328553795674 135.8433328069021 2.3016000028309045 0 0 1
788 1 95.16539702536105 135.62393495479918 19.054277359550326 0 0 0
2043 1 101.39972415568785 137.13709722827548 0.6425559808156316 0 0 0
1437 1 100.82181259390623 136.29372820440332 3.4826663626587937 0 0 0
2001 1 104.33597444483898 133.2981953374577 2.276920590608892 0 0 1
1056 1 108.6118241963962 134.19425869511653 3.826594789948996 0 0 2
1714 1 114.6538519162821 137.33048404023629 19.05341878840052 0 0 1
2022 1 116.38685152887744 139.48704624441834 18.29255439201246 0 0 -1
1485 1 118.79189289823101 138.48452727974149 0.7116571265146803 0 0 1
64 1 123.05511700850283 138.62864611758977 1.7036181915592263 0 0 -1
727 1 126.0512825391413 138.8502620609249 1.9106393820708425 0 0 -2
2260 1 127.02135610405946 137.04636659392673 18.863694316268315 0 0 -2
3175 1 131.1803353481637 136.5439266707536 2.2300838711066513 0 0 0
2817 1 132.87070318022953 138.8067735195548 2.0917050172150806 0 0 2
1890 1 93.22081262751979 137.21439268417626 1.5080695729066613 0 0 0
294 1 90.61041469414081 137.2009697338454 19.069867727541524 0 0 -1
1823 1 95.30884927056248 140.83428594698202 0.6574173826113933 0 0 -1
311 1 100.96055457571863 139.8083402739003 18.871614009356396 0 0 -1
1192 1 100.13001850514063 140.81851290789973 2.486915727736112 0 0 1
1037 1 104.47893607850806 140.38323770312505 18.47460747464182 0 0 -1
638 1 104.0114564166985 138.50386853607668 2.1226160894693638 0 0 -2
732 1 107.45515543852865 136.6320520156998 4.303984223238402 0 0 1
1509 1 105.82096379683892 136.48454493671284 2.0170642697392234 0 0 0
569 1 111.47164209674196 138.97058382535673 2.3334861940821776 0 0 0
3294 1 112.17521250261004 140.43064307019338 18.809525157238795 0 0 -1
1503 1 114.88440184545193 141.30799331391677 0.9143815294210746 0 0 1
986 1 115.36526751769112 141.83451446244928 3.958488729578704 0 0 0
248 1 119.49835894169772 139.9811886977077 3.0188748907087777 0 0 1
1270 1 124.74501902184072 142.69141162797442 2.2360790065471203 0 0 1
2359 1 127.8846681240505 142.17481474898216 18.574462119642345 0 0 1
701 1 127.19635737339117 141.29147560752853 2.4022276758370005 0 0 1
463 1 132.7146730798275 141.23491502407842 2.8461773013481872 0 0 1
1649 1 91.42044697986724 140.65075027374218 2.371477847542968 0 0 1
1291 1 93.35464912514054 144.13544529175306 2.718027830156004 0 0 2
331 1 97.50735419350788 140.75059611037435 2.6530980900361265 0 0 2
1129 1 106.74174722477439 142.06652007141946 19.34677650213174 0 0 -1
579 1 109.19753072826904 140.85069862454458 1.303598745482244 0 0 1
1624 1 111.08644911109208 143.38369054590927 18.971937401820288 0 0 -1
1558 1 121.14783069369031 142.99050298768194 19.221220767713046 0 0 -2
2477 1 120.51588570830383 145.31253306834762 2.188239696522061 0 0 0
1687 1 121.45645214734316 148.04711766965852 1.4002286156435608 0 0 0
4140 1 128.02140793945534 144.87898900752324 19.119258474403363 0 0 -2
1217 1 129.92734633336408 141.73006444011722 3.9225717430921967 0 0 -1
119 1 127.06838862663116 174.25483590834696 9.912636707553956 0 0 1
496 1 96.95493141989316 145.81999686310584 3.853584350814433 0 0 0
1500 1 94.44206701851459 143.53093049173944 18.991589066936168 0 0 0
1601 1 101.68916101340199 144.39250753145168 1.1646022337870072 0 0 0
674 1 102.44520925486455 142.19547692061167 18.07533888213857 0 0 -1
796 1 106.99253721225978 144.80276060283492 1.9238349654625457 0 0 -1
774 1 109.42806578884341 146.98437074625173 19.087740555392596 0 0 0
1623 1 116.74783789198436 146.93587311395083 1.9107269290574023 0 0 0
1656 1 112.60274645493823 147.15231288920452 3.653173534965971 0 0 2
65 1 118.63598423306183 144.92235983066487 4.537086348577329 0 0 1
2657 1 122.53856068573138 146.87519683173795 4.046650031062716 0 0 0
2372 1 124.48630506715757 145.156687918915 4.616815491966645 0 0 0
3935 1 125.27220098073171 145.46301424098598 1.325266823878025 0 0 -1
3369 1 129.80565953065994 144.82873514600848 3.263518934292661 0 0 0
1096 1 131.70167867512157 146.451702277669 1.991504992304066 0 0 0
1874 1 94.82439997568397 149.2834266111802 4.612597066359104 0 0 0
1315 1 97.93624231677212 147.5787449227887 2.0805394719437245 0 0 0
2063 1 100.38570058811634 146.67120255233147 19.283052867808593 0 0 -2
971 1 101.6655127869478 148.63574206591832 2.0416067172628227 0 0 -1
861 1 104.22467733264722 147.78337239552764 2.3286588520356304 0 0 0
1065 1 105.72046891829852 149.2409452437889 19.318246638344412 0 0 1
1250 1 109.25713828701187 147.47391155405666 4.013028091111736 0 0 0
1507 1 113.4137990308135 149.28140505283565 2.029063435905739 0 0 0
135 1 117.60422749948407 148.0274887529701 18.265328213301604 0 0 1
1978 1 120.50854966256097 150.76929489450742 0.8237287981028112 0 0 0
1949 1 125.05527511316251 149.58526077622753 2.1198656918227665 0 0 1
1338 1 123.07540742560793 149.5329399655319 4.04212844924809 0 0 0
966 1 127.27169319978475 148.2475870824042 3.0302627352948233 0 0 -1
1745 1 132.47785231548593 147.88756920019608 4.424242604010703 0 0 0
3492 1 131.56297044842805 150.48274381872326 5.232545983758601 0 0 2
963 1 133.60210247735904 152.27550674278146 4.317765901652342 0 0 0
1989 1 92.84430876620378 151.31655034625268 3.9469067563607934 0 0 0
1061 1 97.58636248824173 149.75428377772278 3.9512388777469 0 0 0
1350 1 101.21962899128593 150.77640289262635 19.087356227136 0 0 -2
1035 1 99.55097804261608 152.65906575175208 1.5602967330535247 0 0 -1
3680 1 103.17240379206892 152.83455325959235 2.500263343786514 0 0 -1
503 1 109.67811893637624 151.15967206051326 18.038127887572223 0 0 -2
1015 1 111.75052927775444 151.482060643422 1.2107731567609616 0 0 0
1137 1 113.81531531331497 153.3057702932809 19.233068814839754 0 0 0
1302 1 128.60984283890863 150.32805090381697 4.7046920877341885 0 0 -1
990 1 127.37143616670876 152.73509439253354 3.9806554510594716 0 0 0
4113 1 131.37966543300635 153.23589092549045 2.4856508942549627 0 0 -1
571 1 95.08757490004787 153.01951016433645 2.9180711211639228 0 0 1
1770 1 102.81078457209406 155.96918585790968 3.5335059189552083 0 0 0
974 1 105.39797365437941 154.23868155591887 0.8887750030794498 0 0 1
750 1 107.45202955312595 153.1370182867004 17.977305936285177 0 0 -1
1996 1 110.79971903643188 156.3299396292015 2.8676102224806317 0 0 0
524 1 111.70317618873446 155.4204834035812 19.2094660924958 0 0 -2
2323 1 115.85301249702353 154.55513622714793 1.8501540588576617 0 0 -2
585 1 119.65193264460288 152.39983742661153 3.230839748089483 0 0 -1
1493 1 123.87132838277363 154.2475346865737 5.60495216035014 0 0 1
3917 1 127.72738424130016 153.1777910192279 18.44217954215114 0 0 -1
1113 1 123.8567352341403 154.50445192239312 2.7384255138826643 0 0 0
274 1 118.65453840682731 175.3774012595585 16.48625409325573 0 0 0
3366 1 125.34387225174986 93.2002632028909 2.424175272383515 0 0 1
410 1 98.05117825207427 157.83119869768902 2.6963128917812753 0 0 0
2031 1 107.13414964637143 157.78677958967995 2.7265665731919175 0 0 1
481 1 111.48472628427895 157.3200051384763 15.951937886842968 0 0 -2
1875 1 113.71534251380331 159.87422257593536 18.772092873704402 0 0 0
943 1 109.27584782163468 154.91819450689457 17.401551159925482 0 0 -1
2165 1 115.6083315953228 158.88605422388983 4.045023253102464 0 0 1
1387 1 118.10651186467496 160.49589673021075 4.503400162429216 0 0 0
874 1 120.02970025643148 158.42975380914046 3.6390447070200276 0 0 0
143 1 122.98520141703186 158.4810045099023 3.6041373752030768 0 0 1
2019 1 125.13579429990875 157.080640748299 2.49781681729282 0 0 -1
1342 1 129.3207603774043 157.2278085178008 2.2246390841398758 0 0 0
1958 1 131.3889925701763 157.05984848917922 17.742560478115244 0 0 -2
1245 1 125.98455668674048 175.2094573960108 16.591973247087907 0 0 0
477 1 97.78200236944693 158.2350799913507 5.50191271546972 0 0 0
1148 1 101.42571480775078 159.74453164212753 2.9656668484122917 0 0 0
196 1 106.99665264584812 159.822863205863 6.0772030503892065 0 0 0
110 1 110.99728842290853 164.25722570004876 17.125330485947806 0 0 0
3415 1 115.92433393828644 161.06716371785572 1.8987215118838507 0 0 0
1520 1 119.45738208814517 160.97314661884712 1.6261749783212496 0 0 -1
2215 1 128.33317137052396 161.34142165176848 3.014135125669236 0 0 0
4000 1 134.8059561460615 136.51986690366502 7.656868920741877 0 0 -1
998 1 97.70832245894721 160.58414283803694 2.181710360858131 0 0 0
1454 1 100.15699070567617 162.09282067611812 2.10985502569759 0 0 -1
712 1 106.13543736745476 162.42546713102385 1.8415634520240163 0 0 0
413 1 109.30749632331231 164.69298041652863 0.7802868885559835 0 0 0
1075 1 106.59032348934322 164.20733280928135 18.419117870393137 0 0 -2
1705 1 111.40616587763591 161.24884694475688 18.18036911269736 0 0 0
1434 1 113.68124028358868 165.4509188591602 17.586163394013486 0 0 0
1603 1 117.4366945238368 166.21294815886282 2.025583439116138 0 0 0
2713 1 120.11735159710484 165.56432287180562 1.1809341991599611 0 0 1
3120 1 120.77494307984632 163.2253280500778 2.431784904069367 0 0 0
1391 1 123.34321921374102 162.645484978329 2.0651533067123973 0 0 1
651 1 125.1728562067044 164.4817508720581 3.1148004892447902 0 0 1
1001 1 127.8389130323178 164.0399351590607 2.6643323981357483 0 0 0
3906 1 134.9104354283427 128.9803983072044 16.53778019511944 0 0 -1
872 1 105.12534529141992 164.14753664824858 3.6134352072452076 0 0 0
1998 1 108.51207837741084 167.5434388375762 2.2708898318924793 0 0 1
17 1 111.03405619834209 166.271843922344 2.754022265035054 0 0 1
170 1 112.01486465535098 168.60189066546897 1.3961178577355198 0 0 1
1629 1 115.7418087222776 164.5370282084346 1.1009337612815888 0 0 1
144 1 116.3996393526383 168.31359323218007 0.9720112490102402 0 0 2
805 1 121.26266073089556 168.5191324092421 18.206585707503656 0 0 -1
1537 1 124.63687631215669 167.01265642413904 2.111007244206981 0 0 1
1378 1 131.57540338681923 167.57650619060345 4.208457955901487 0 0 2
1063 1 129.37240490416957 165.8320858918376 4.4282499789677185 0 0 1
1242 1 131.55494457427733 163.82077788738002 4.039106601246607 0 0 1
2417 1 129.45761771640517 175.869282758197 8.58734629899938 0 0 0
3778 1 105.06146909075572 169.03426460306332 1.6631172905725262 0 0 0
1424 1 107.47691923198211 170.2471532037675 19.291761987263126 0 0 -1
771 1 105.49537837746176 172.06688987138756 4.651826867065374 0 0 0
375 1 111.63243295255596 170.90649134629592 3.0406537344651174 0 0 0
3071 1 115.90627009131846 169.85439361625916 3.347999480712912 0 0 1
1586 1 118.53656423535735 169.42270977765432 17.995838259749586 0 0 -1
1135 1 126.76732975438436 167.18752963246524 4.170873269983754 0 0 -2
1044 1 123.46977719525229 170.72996971910806 2.399307955820236 0 0 1
1060 1 134.23534719912163 170.4495149258271 3.6951722735432613 0 0 0
1822 1 133.88619717105755 166.08960613240086 5.092310373963742 0 0 0
586 1 107.81714077268651 173.08837768136348 3.411503967883109 0 0 -1
1164 1 110.1303337285664 174.53909367424737 4.398188410810657 0 0 2
1296 1 113.48255152547135 171.90607504628244 5.255234032413144 0 0 0
3042 1 116.53815478780376 172.63410664203514 2.9812262282491413 0 0 -2
847 1 115.7229550221592 173.33710841698579 5.51629172673962 0 0 0
3502 1 119.19303776740978 171.3823717511742 3.358315429900927 0 0 0
2029 1 126.51972780043295 169.87871966900562 0.920387856293235 0 0 -1
3910 1 128.7754890111497 167.77604987481484 19.120761523391117 0 0 -1
2500 1 128.59164423927288 171.44067578270474 3.462983949454405 0 0 0
3201 1 134.63072322270222 174.45690042766148 3.6665816590088283 0 0 0
996 1 115.1291631946078 175.76309904995796 4.781601252474026 0 0 0
1230 1 113.8425884238665 176.21637945114765 2.1636662465094294 0 0 0
12 1 121.17581397677229 172.44060293514863 1.7538420254518305 0 0 0
334 1 128.51660239428588 175.58392140247366 2.0795760764890368 0 0 0
1447 1 130.41429544817424 173.56121324029002 4.682379223699109 0 0 -1
49 1 119.31781757141283 94.52637124808157 11.592091815563965 0 0 0
41 1 123.41738917638475 174.99240105690174 17.167151288506528 0 0 -3
316 1 119.61293563393968 95.70968062772808 4.893115097025389 0 0 2
1272 1 122.34875288643121 93.99018925615624 4.521095146163028 0 0 2
3497 1 134.57914887097726 171.0451192960053 16.437036674397323 0 0 0
3113 1 130.30374521048952 95.2275312486155 4.605775292884217 0 0 1
3608 1 134.43591280728845 110.42130935323794 17.96532822564091 0 0 0
883 1 132.99098214635296 96.11249705279444 4.702040335434742 0 0 0
1090 1 114.03352336882735 99.53761194739289 8.608118471502113 0 0 1
1367 1 112.90057884508043 100.17516430323724 6.28765004639688 0 0 0
1143 1 118.41196006355119 97.9779277192793 5.1994319118568475 0 0 2
400 1 121.47108426241279 100.07744256396026 6.4805174160403 0 0 1
3863 1 125.0795481388099 94.10916682921352 4.856437160729179 0 0 1
2886 1 123.92292903312234 99.38123068130581 5.2237129714379815 0 0 2
2379 1 127.13501186917182 100.09664120575886 2.6023264277746057 0 0 0
541 1 130.7814164040646 99.97814204327919 5.409892889812443 0 0 1
1893 1 107.40797756022152 100.75077723444329 4.957250649001355 0 0 1
1619 1 110.28184110748974 100.07824057015914 7.617283774263826 0 0 0
180 1 108.9145953828978 98.55065402956858 5.883471940726678 0 0 2
179 1 121.9734249800854 102.18167438840464 8.000081132414701 0 0 1
1538 1 125.52523056348183 96.74635846861078 5.151726262918302 0 0 2
749 1 125.92243764741441 100.0128996076056 7.071454993895383 0 0 3
332 1 128.1036327264279 100.4471404941535 5.279819827538209 0 0 -1
271 1 132.0975828267096 99.2995930738874 2.9486190945116313 0 0 0
1880 1 108.66500256937853 104.6213851874111 7.516667193114867 0 0 2
3476 1 115.77107870167598 103.35292461402037 3.669837985881751 0 0 2
3277 1 110.6594333155818 106.6000182514708 3.0559973305441246 0 0 1
1611 1 122.06297416859806 102.917954020316 4.707984915486887 0 0 1
2231 1 128.49514291934267 105.58462320023975 5.365926632343996 0 0 1
1897 1 128.92385645919182 103.1639626220201 4.070004419687137 0 0 1
953 1 131.3865614670952 102.62331437080648 5.045410788397684 0 0 -1
2613 1 134.9285403385719 176.81394450245227 7.204844797324332 0 0 1
950 1 103.95007920734982 105.01339707226737 4.865670962638064 0 0 1
1604 1 106.43564301528434 107.5707805943882 4.955685517314217 0 0 0
1747 1 109.38804566184004 108.79855999889108 4.176442538472708 0 0 3
9 1 109.53572331627875 107.15015972522086 6.5909710226873335 0 0 2
629 1 115.8045816647674 108.89169700045437 7.970631146279632 0 0 1
3741 1 117.30803531126818 106.84147864499718 6.7281929882830696 0 0 2
1411 1 119.1166597332664 108.62150745164192 5.9533091044901285 0 0 1
779 1 121.40338600976924 104.81648876121868 6.961936994152785 0 0 1
621 1 121.30283141488482 107.0960251492944 5.214612417774662 0 0 2
2146 1 125.88922352968602 105.34663157536968 6.06176271026595 0 0 2
1952 1 130.58896155661398 106.29131609362321 7.1882554925314155 0 0 0
2504 1 133.63124566877627 107.53762393970133 3.2748257504149123 0 0 1
1778 1 102.45649325378733 109.70380902140816 5.098528919634773 0 0 1
3188 1 103.368679202375 110.27117820066755 1.8162145292841758 0 0 1
1260 1 103.73502854401461 107.42730000049153 6.0118687139473845 0 0 1
3653 1 113.71477302017216 109.77482785165073 3.170056759976295 0 0 2
1386 1 115.47307383484421 111.89979924753258 3.924929198780094 0 0 1
92 1 118.17376029450331 110.23726548266873 4.1141132611196225 0 0 1
1006 1 115.89187085221648 111.24150589239993 6.58434382029916 0 0 -1
972 1 122.52168765003397 110.97509613615172 5.602109029125495 0 0 1
3140 1 123.74048562513416 108.42933799980393 5.138107256909496 0 0 1
218 1 124.7713328205659 107.36144689529912 7.58152790801007 0 0 1
1909 1 133.29785069013045 110.81849135605829 4.177289156603659 0 0 1
1966 1 99.2078786100165 114.60748617701789 4.622975470568562 0 0 -1
1800 1 110.97104455319858 111.45000366273736 7.072719832179755 0 0 2
459 1 111.81482946875627 112.28335105635043 18.52024344674916 0 0 0
236 1 114.83778217312314 114.48957388324116 3.198135607885966 0 0 0
534 1 120.05888658517684 113.26413461272213 2.6575846410887647 0 0 0
1009 1 120.85986818557035 110.70746186638098 3.4324442968528137 0 0 1
1308 1 125.33284545674802 109.29971071110606 2.6386076311077264 0 0 1
4037 1 124.77091213652841 112.73965708650711 4.912537041060388 0 0 0
10 1 127.51983255500139 110.89040470148517 2.794406169618729 0 0 2
436 1 129.77833592317302 113.8430832697767 4.452332663816477 0 0 0