LAMMPS data file via write_data, version 29 Oct 2020, timestep = 200000

7151 atoms
1 atom types

-2.7088645067038897 272.70886450672475 xlo xhi
-2.7088645067038897 272.70886450672475 ylo yhi
-0.030098494518824515 3.0300984945187563 zlo zhi

Masses

1 18.015

Atoms # atomic

3705 1 -2.230338780875202 -1.583861666581928 0.25384406795585895 1 0 -6
6347 1 3.1068357954050416 -2.0156169341083006 2.858786829824936 1 1 -59
6269 1 6.082910881109154 -1.8906203449443644 2.8150038116718643 1 1 -27
2742 1 10.545251891284794 -0.21941306312223796 2.6711433965397644 0 1 -29
6444 1 16.126533217620707 -0.8737189884531027 0.9385821697919001 1 1 -5
6794 1 18.98895617580804 -1.246324317515628 1.1950687663441455 1 1 -17
552 1 25.723229395078246 -0.9225588805007559 0.46531126259842853 0 0 -7
562 1 28.352006383407137 0.31070161189457624 0.3237923620535172 0 0 -23
102 1 30.87709187496057 -1.2044340026464362 0.44813203788650263 0 0 7
1007 1 36.447540333721534 -2.1594216615828836 2.2143101849111027 0 0 -33
3292 1 39.28054350758531 -2.4024234293301063 2.1387126954944033 0 1 -1
796 1 40.5737446729782 0.04712826324862096 0.26893176375461914 0 0 -16
3029 1 43.440756445489974 -0.7754017889286109 1.588798814464099 0 1 -29
806 1 46.86391584955139 -0.7705461656390407 1.06131642877322 0 0 -37
3131 1 49.66995785736694 -1.8306710940858677 0.8398859297682 0 1 -28
1009 1 54.79904177117018 -0.4163853783641849 2.693880203626591 0 0 -53
716 1 52.63743252877666 -2.6765982644083812 -0.004310556785614605 0 0 4
705 1 56.99736974061281 -2.185606381124746 0.026305516203548963 0 0 18
793 1 59.75406577171021 -1.836729833664413 0.8565763767435435 0 0 -5
3382 1 67.19841545047551 -0.21510110425903894 2.2655287567841524 0 1 -25
3491 1 69.98778431644077 -0.04651017814646208 1.9075464009809318 0 1 84
3420 1 75.01359652189778 -2.210517504259335 1.8636633691758036 0 1 -20
169 1 79.20727265795716 -1.2234376953038153 1.5740204223407719 0 0 -26
1178 1 82.0485204070372 -1.9069438026726466 1.5420506166636878 0 0 12
26 1 84.66840300225876 -1.0212913210824068 2.4749708581607335 0 0 -35
212 1 88.73544674158232 -0.7944215430269987 2.1552725407372826 0 0 -15
525 1 91.46354402830478 -1.328361669836252 1.5983420803716568 0 0 -41
2537 1 97.33158686428274 -2.6387925844910005 1.3793148011429135 0 1 -67
2574 1 96.27574731385054 -0.08632539082413926 1.988827631793611 0 1 -33
795 1 102.16725804459702 -1.986989405930331 1.945112979454387 0 0 1
2686 1 104.54163174794525 -0.5834737196912565 1.7294530498105958 0 1 -16
2910 1 106.45191140610056 -2.5786509776826834 2.894310124756334 0 1 -32
2959 1 108.43671165094595 -0.4091289497607824 1.0113084887433546 0 1 -8
934 1 112.89138768242594 -1.3391743518506 0.9947562375713153 0 0 -17
558 1 115.86491963639233 -1.1344458698880815 0.7565692653880616 0 0 28
2899 1 120.68559108338383 -1.8632912700230935 0.745400316191626 0 1 -42
815 1 123.50087578342679 -1.5856046440627118 1.6294637273362633 0 0 11
2796 1 126.14046942586694 -0.4083062541066602 1.0155572263404578 0 1 -21
3076 1 128.94634454048597 -1.299098567764001 0.5916549052308386 0 1 -54
6673 1 131.63005328756682 -0.7823527948401454 0.5850833938270492 0 1 -2
6475 1 -0.7475931013614441 0.7325673143246028 0.5133493517404971 1 1 -16
6428 1 1.9250419135259245 0.5495943904060643 2.442178413727813 1 1 -41
4134 1 3.6941932800608965 3.2726571975910606 2.6209445628187282 1 0 -50
3601 1 6.430720434196896 2.9014967726351024 2.649014859154967 1 0 -28
2800 1 7.832112007123362 0.36899584978821043 2.411927323067859 0 1 19
2459 1 15.185608093663461 1.5760763239302573 0.6249536419498034 0 1 2
7138 1 12.602294017426022 1.763450401587197 2.664735136099452 1 1 -24
305 1 20.710369757606724 0.9503491321185975 1.4209733928628552 0 0 70
70 1 23.522173004905024 0.7489234131780238 1.3028361111711415 0 0 -6
816 1 24.404222156827238 3.250810937117417 1.3464741908037379 0 0 9
3475 1 27.233637207255423 3.0071770197676457 0.21660322746711716 0 1 -9
2830 1 32.92183043192881 1.023176176129665 2.8968258793095973 0 1 -31
353 1 35.757332331346156 0.5925607233768146 2.796725196721363 0 0 31
143 1 37.7131605655235 2.4561687280401143 1.7636013216907171 0 0 22
963 1 40.50048913207876 2.7609076818539373 0.03930309890037138 0 0 0
124 1 45.00768334342966 1.5179264504391954 2.888232626435383 0 0 -9
1041 1 47.535240876702524 2.4790655665738512 2.56299377110464 0 0 6
106 1 49.9998935417063 0.9438317372456475 1.0901970369394653 0 0 30
794 1 52.662550934711916 1.5389244060460454 2.89105966724288 0 0 16
3429 1 57.44650727501002 0.9861310681210091 1.981429389397489 0 1 -2
3450 1 60.244821268530025 0.9618638217892825 2.999815372010788 0 1 -6
3453 1 62.29255526563098 2.714792270955237 1.9099210282639172 0 1 26
837 1 65.18982008171214 1.3406497859617845 1.4615155432550637 0 0 19
1164 1 72.08533964314755 1.987935296375726 1.5223405373168328 0 0 49
1003 1 74.73148366941884 0.7576948409104429 1.39816225446827 0 0 -12
872 1 76.91613907496205 2.5826439617571753 2.62168340707462 0 0 8
807 1 79.24276485819833 1.253096530749569 2.248326348210856 0 0 -82
582 1 81.53173877056119 2.754393866110015 1.756053113905219 0 0 11
295 1 84.05622505904394 1.7875114974683362 2.2357367801770387 0 0 -44
168 1 88.36254387846134 1.9540012047100586 2.5030949906469884 0 0 4
2904 1 93.59821754329275 0.5042980388080638 1.9280861225395713 0 1 25
2698 1 92.97462128910574 3.349412943800534 2.1372198308430006 0 1 11
812 1 98.8091249958105 1.450614184095529 1.7562881886736283 0 0 -28
3389 1 101.43920363102272 0.9456862441008078 2.053362471645573 0 1 -22
2595 1 103.81725988299405 2.510935779291768 1.4738902801548437 0 1 -63
685 1 106.58356816524875 1.711478084651917 0.16891699684636965 0 0 -20
3409 1 110.93064282562942 0.4553964081932125 1.2195514409955432 0 1 40
228 1 117.12619300271413 1.4487552102103773 1.0321349826475836 0 0 -17
3447 1 119.80392243341629 0.9578964176536839 0.9112881814216669 0 1 -41
2420 1 121.89513004841592 2.8637805328985717 0.7074377181294434 0 1 9
3196 1 125.28427074299454 2.4782240387593566 0.7871630591406747 0 1 -69
2772 1 128.56742163688074 1.5918155900120254 0.3040855148403368 0 1 -1
98 1 131.4884454825958 1.9308500984160366 1.822202964656471 0 0 -6
6231 1 134.15395048766365 3.159145594707928 1.778725321908601 0 1 -69
3646 1 -2.0732527897852053 3.4641280264188836 0.6552173973069868 1 0 -9
3647 1 -0.46174261324547006 5.967834043336021 0.5050578560749802 1 0 -49
3883 1 3.216748369857286 5.999001773334948 2.4699444749658355 1 0 -5
4745 1 7.396591849478279 5.310239102250822 2.7293063083903197 1 0 -10
4102 1 10.180913311316072 5.43060949178413 1.8511566235314587 1 0 -41
1057 1 12.69024724449603 4.560396958292534 2.129659544836504 0 0 -7
3236 1 15.352965938376023 5.8488032615590555 0.2536325934064885 0 1 -19
95 1 17.03194821595021 3.756202929994542 0.8562170824099161 0 0 -7
6721 1 19.810020863191784 3.5345097519592326 1.0373364534046554 1 1 -23
592 1 21.24453644680348 5.847669603778593 1.9879475447990267 0 0 -11
348 1 23.857689573595653 6.0164638395054695 1.6040931795986397 0 0 8
571 1 29.22301761845222 5.067604601996624 0.4367375289788114 0 0 -1
587 1 31.553440232784965 3.4603614619174152 2.904491665735648 0 0 -15
2704 1 33.77399850111927 5.102952821287541 0.3943091777817898 0 1 6
1136 1 36.69462814942446 5.147871040988478 2.756600167829106 0 0 13
6031 1 39.86662385379239 5.973713094341578 3.005129088111774 1 1 -12
688 1 43.186306096310474 3.9723302302290566 0.40367344348360834 0 0 -9
232 1 47.07645293571215 5.326261852274598 0.381133279007109 0 0 15
822 1 50.66366439025664 4.0856257086211185 2.3751770126912124 0 0 19
961 1 53.92673886387447 3.858375681679635 2.1399674934286415 0 0 -21
550 1 56.8849696552791 3.5872914286485313 1.3686583662238607 0 0 -18
3493 1 58.83837813384604 5.501749307368122 1.688103527097354 0 1 27
2802 1 61.738815580541115 5.7088373787832225 1.3476181587141915 0 1 17
2667 1 65.94917697144587 4.184478991338084 1.753568679714727 0 1 -13
2774 1 68.48320224300483 5.078684445316162 0.43352798385964175 0 1 11
2855 1 71.26367243295469 4.516072264584378 1.2342314422790115 0 1 -2
2444 1 73.35196137454459 6.394458280235392 1.001011287618685 0 1 56
2721 1 77.6136600319885 5.516315292328665 1.9873568385839133 0 1 17
596 1 80.39665669485973 5.293538374417638 1.3855715303790503 0 0 57
2984 1 85.89706819997708 3.672431028774657 1.8510831469305062 0 1 -32
665 1 86.33484001136063 6.362945054556748 2.031496064297758 0 0 6
682 1 90.35462921173676 4.219932444525332 2.439781437849689 0 0 -57
2781 1 95.27519339050032 5.130883990001684 1.740054788773453 0 1 12
2932 1 98.07399939742287 4.125962495968186 2.1065694449020587 0 1 -36
1125 1 99.82320070961619 6.22823195845287 0.2925237444434028 0 0 -26
3189 1 102.73013864896446 5.069386321540827 0.35801939038475694 0 1 -37
381 1 107.97700741288509 4.157463353317084 2.6453295155536045 0 0 -51
6250 1 110.78595132809549 3.4874859722814326 1.8821600957297684 0 1 -71
765 1 112.56298205987429 5.322497890524215 1.9036895061291912 0 0 -32
2486 1 116.84250322659638 4.509343204152203 1.2329293163302057 0 1 -13
624 1 118.88841420209661 6.2606819102985085 2.958917215902087 0 0 -40
268 1 121.57178074304005 5.581049196605358 0.986598497666435 0 0 63
1090 1 127.46848831549869 4.529192173143315 1.3063823215825887 0 0 36
1102 1 130.1727761830117 4.5272329788114245 1.5446503592145133 0 0 -64
7145 1 133.78797796438775 5.882055341826129 0.768094578423348 0 1 32
906 1 0.756326549194875 8.716980095468974 1.8424530752987978 0 0 46
7073 1 5.730832832578548 7.572477427750428 1.8160072567735217 1 1 -49
48 1 7.974220854373833 9.128870002140294 1.4023728170402177 0 0 -3
854 1 10.600009900868521 8.151031492141083 1.6808340210918056 0 0 62
6978 1 16.83566793064391 8.061144869523307 1.0791895719025082 1 1 9
451 1 19.673777217370912 7.9577117352356606 0.734783626220408 0 0 4
14 1 24.194936167643952 9.01476765768769 0.928646370376039 0 0 -34
858 1 26.62803664120796 7.077997424064538 0.2653209793793548 0 0 -54
423 1 29.67363313735371 7.8036533253110605 2.727586861309863 0 0 -3
657 1 32.47594901167873 7.855917450611125 2.5168506943313718 0 0 -10
621 1 34.871281357911684 9.387362855565623 2.822300970545796 0 0 32
4027 1 37.55438833045469 8.0459875375035 2.823911368208023 1 0 23
234 1 42.08588354607144 7.957334612044626 0.13995688874979237 0 0 1
13 1 44.31364436172088 6.499502869635002 0.5241013266056033 0 0 -17
878 1 49.38282313597519 6.57416958690307 2.8902735336424 0 0 -33
3514 1 57.70320870448867 7.931146123416411 1.1710639747744198 0 1 24
544 1 61.78653726167184 8.556176231502318 1.5276014661617645 0 0 61
3182 1 64.62371228236678 6.7551461475334325 1.7933613010107106 0 1 -28
129 1 66.53596762931886 9.014694705745555 1.9975179138281132 0 0 5
980 1 69.19154734668224 7.551626652727158 0.9943099037409926 0 0 53
1168 1 71.85093871802972 8.713798756027604 0.8061974797504112 0 0 57
3427 1 75.81094480111315 7.505676076230765 1.406594250674243 0 1 29
2745 1 81.79811665692094 7.767486207560749 2.172896585670512 0 1 -45
869 1 84.46241894228618 8.190940412732449 2.0676645820929407 0 0 6
954 1 89.21048161163831 6.876723282739642 2.3167971440708115 0 0 -52
598 1 92.38428181505063 6.637982787105612 1.6809565773681787 0 0 -43
949 1 94.98659606112216 7.817411797717282 2.9944473191714787 0 0 -33
357 1 92.24451358809921 9.526544067820005 -0.007429568192022451 0 0 -20
172 1 97.07614441842843 9.491540415288494 2.6406952067932377 0 0 -106
2786 1 99.91118848897314 9.01342277168065 2.9157704589475157 0 1 -27
3112 1 104.82727882617702 6.694268144482455 0.04498627292276704 0 1 -14
165 1 104.62252141063694 9.362776816982318 2.7880325381339075 0 0 -16
368 1 107.81546077888368 6.997876843208726 2.6006970850172078 0 0 -28
3144 1 110.33624516369902 7.423141603565922 0.9918751659732754 0 1 -2
3097 1 115.03388960048477 6.7251468999531525 0.23858149842996623 0 1 -47
1093 1 115.65325585718855 9.369816431727239 0.5530046693199533 0 0 -33
453 1 118.53005870890327 9.010131024406071 1.0575252331949971 0 0 33
950 1 123.83294954230901 7.793006426651971 1.1178893167777557 0 0 24
2696 1 126.48622651952826 7.117155047608589 0.47683595011004265 0 1 -44
275 1 128.13004530826598 9.394338978861239 1.1395709106402256 0 0 6
3793 1 131.2529912254968 7.0507697341589175 0.5656359308711942 0 0 2
3539 1 -0.5631245487544931 10.96175200768691 0.829236991883929 0 1 -34
551 1 3.614540435353608 9.544896087831212 2.0846848373581865 0 0 -17
541 1 3.761533493820986 12.10966277690018 1.2252561448850736 0 0 56
3764 1 8.582620045296109 11.731718695488626 1.8474861423650952 1 0 24
1171 1 11.25866586658936 12.034189490754777 0.35863908128314975 0 0 46
3632 1 12.807313705144747 9.799415615015903 1.5350049882579933 1 0 -53
108 1 15.52873294570555 10.449174793959426 2.7791367161742304 0 0 15
6970 1 18.614057331853346 11.212767934923425 0.4826356608798934 1 1 61
216 1 21.54022153560914 10.120360001845057 0.9472128303281586 0 0 -5
253 1 59.62028419211639 10.30486987140412 1.4363137336861769 0 0 1
567 1 64.02002167353153 10.178003062372014 1.6056000507563684 0 0 -3
2835 1 67.9376624191386 11.883782549270933 1.514284465086774 0 1 -10
375 1 73.16994226182176 11.37512239963833 2.011030907299223 0 0 28
388 1 75.95952726421845 10.37974568567852 1.621408952804097 0 0 14
196 1 78.19938782582273 11.985471666261997 2.4164662263816634 0 0 43
890 1 80.715949962991 10.481257518409256 2.0990350560512523 0 0 6
896 1 82.79369145800901 12.343610806006929 1.3581867595149755 0 0 -9
438 1 85.16688949370005 11.01340325902533 2.0332191865222384 0 0 27
814 1 87.79247659874561 11.95783201021974 2.602759717918297 0 0 -46
62 1 89.4444627657477 9.656352818396089 2.7171878042497313 0 0 3
191 1 93.23723903568495 12.10340895923156 2.4878695888203373 0 0 -24
2952 1 96.0232782776701 11.953952519669926 1.7053292282703307 0 1 -32
680 1 102.06605157474968 10.72957060868981 0.17476350075783584 0 0 -9
999 1 107.4316523726327 9.944778497700685 2.707759399690337 0 0 -61
1146 1 109.23138042183798 12.122807500601656 0.628922949409856 0 0 -64
2928 1 110.89857231835283 10.061492854707508 0.17758916509803546 0 1 -60
273 1 113.36260691995656 11.407679019170562 0.8821278096682114 0 0 -21
96 1 116.99124165216404 11.966475059233193 2.122745336556486 0 0 -65
257 1 120.72593378643995 11.007214776812283 1.1393487627210737 0 0 1
467 1 123.3573688692233 10.583335343877838 0.7839224285150975 0 0 18
1029 1 127.80623901187218 12.101634623921907 1.4712920777531524 0 0 -39
3504 1 130.97435069855328 9.64709075864373 0.4799110452416593 0 1 -11
4507 1 133.63678533245914 11.063987773299456 1.3508632912714285 0 0 1
4747 1 1.3265773055611536 13.269493998154365 1.1508025103947261 1 0 -15
740 1 6.2938384871532165 13.339248440244745 1.4340804115298342 0 0 -11
577 1 12.938779292352757 14.273153821110949 0.11091530158167742 0 0 3
6569 1 15.665771617829382 13.120698691912487 2.7942131325435 1 1 -42
314 1 18.31749682718851 14.024922375859177 0.1958769924977508 0 0 76
1120 1 60.49201641096579 13.115455547219346 1.4989737399054623 0 0 -4
903 1 63.36610250477726 13.096377049551805 1.6000825600894306 0 0 34
501 1 65.87026059910791 13.660918127037316 1.7494267310239562 0 0 -18
186 1 70.17139996000098 14.02666511503806 1.8408093922612578 0 0 6
206 1 72.67125989813617 14.03796816404667 1.2669445964689807 0 0 2
539 1 75.13966686003832 15.539546439745337 2.543246862763864 0 0 33
672 1 77.63359916577754 14.546016792227555 1.4864957954442182 0 0 21
833 1 82.30531635140916 15.23648294443078 1.4753237283030587 0 0 -12
559 1 88.89793722611273 14.498971661521619 2.2394006995960156 0 0 9
94 1 91.92905075721134 14.48816481378023 2.1854059554816354 0 0 -38
628 1 97.47536951415834 14.400119130587282 2.208387141037674 0 0 -51
138 1 100.07788932870898 15.297596844284612 0.4361303031587175 0 0 17
3164 1 102.0948845346307 13.436640612528727 2.8981182781915544 0 1 -43
632 1 104.80106884615002 14.889498443974805 2.4896755504464654 0 0 15
871 1 107.87581171419237 14.50605669712429 2.9398203704137833 0 0 -55
2987 1 111.93914067861284 14.135893574409288 0.5714282886153114 0 1 -50
607 1 114.86932796501904 13.862984154258797 0.12886183423433106 0 0 23
173 1 119.45484299047742 13.4027059958883 2.640297111359774 0 0 -44
101 1 125.09266326057615 12.733641341315947 1.58859609836859 0 0 20
967 1 129.76361487445206 13.797164355719897 1.7099058845233304 0 0 46
615 1 132.54028011598865 13.452486899069338 0.6945480419623885 0 0 -38
4695 1 -2.1410686405413664 16.403871814800958 0.14832032818214644 1 0 29
614 1 0.8228828352281443 16.185317937383477 0.7505803055783916 0 0 23
4780 1 3.473489448440998 17.454251750959365 0.667763082181299 1 0 3
3589 1 5.86019986494582 16.120522768220553 1.6476617275518477 1 0 32
993 1 8.363329148299947 17.252349755644293 2.5538750863630257 0 0 -14
482 1 11.46750682663367 18.10680593841955 2.192264571954288 0 0 -44
945 1 13.963252763141089 17.11520092997469 2.5068816417661592 0 0 25
900 1 18.839191102196967 16.842632570688977 2.76121893255407 0 0 52
2527 1 60.26580069333642 16.17797235281659 1.6527635770817468 0 1 -28
1105 1 62.92715142494683 16.119585187195213 0.5428907132376002 0 0 1
5 1 66.86278632229045 16.327261935922902 2.8512677495142427 0 0 -66
16 1 64.84601415742614 18.28435752540664 0.18203369115383605 0 0 29
2544 1 69.46447877436614 17.591344356640555 1.9362253526214084 0 1 8
1056 1 74.88192378084885 18.570727345355373 -0.020220577353097367 0 0 -36
57 1 79.86728072167136 16.147590659872392 1.6462848573084283 0 0 22
706 1 83.57917138992072 17.984323127489162 1.644829819645748 0 0 -27
194 1 86.17962282778417 18.306639003415803 2.145287290057383 0 0 -5
330 1 88.97012000873016 17.351482248368963 1.771025781615625 0 0 3
860 1 91.4364132974401 18.50192934977127 1.7729600807228247 0 0 -4
103 1 93.6715528239127 16.862638830116875 1.009777078787793 0 0 -49
647 1 96.4999250670012 16.936643591779447 1.5299319939780383 0 0 -33
187 1 100.85877576095608 17.865992452470536 0.23147257948885053 0 0 11
184 1 105.13892446653838 17.742072954101058 2.7777419082244474 0 0 -69
125 1 110.05494356045894 16.396131298055447 0.9573575317869674 0 0 -8
536 1 107.72542894692567 18.48968541542941 0.8636400852897502 0 0 -12
573 1 112.65162120123449 17.980988097588053 0.6395073972363713 0 0 -38
380 1 115.14924547277914 16.77149738097956 0.17162427975911754 0 0 -27
798 1 117.73874617983827 17.4476342119095 2.9906953430228347 0 0 2
1134 1 120.15416291506023 16.29084830580466 2.255251804483321 0 0 -43
283 1 122.62276153235507 17.58590209955451 1.457529066595353 0 0 -31
786 1 125.06297174389447 15.79833749277243 2.043142553609525 0 0 22
280 1 127.03872132970983 17.717004150502763 1.9698715955293016 0 0 13
1173 1 129.71964266324667 16.71552438358199 2.2453294114700926 0 0 30
586 1 -0.9869049581693219 19.001502864936633 1.277372850000706 0 0 24
3 1 1.755365917306249 20.178288022355158 1.400968644476329 0 0 -15
4363 1 4.844330598102768 20.19246173203813 0.10445597387213856 1 0 -43
222 1 7.814647225030326 19.969777051846336 2.7869611526374736 0 0 22
925 1 12.291453709619914 20.786314363139354 2.8858409145238237 0 0 77
225 1 15.116504350169347 21.081055096695618 2.808397878299848 0 0 -12
217 1 16.515769082066356 18.723960503305502 2.7464363997005474 0 0 -4
302 1 57.712455319650196 21.092879807795466 1.2066644910755395 0 0 -52
1054 1 59.63020075800969 19.05534310278957 1.0083302096090756 0 0 -22
289 1 64.27012345342601 21.286707489431958 0.8416411338317153 0 0 66
713 1 67.08764134834082 21.560355514502568 2.8201629206175465 0 0 2
6 1 69.67833397063316 20.421676715490342 1.935703256929771 0 0 -11
728 1 72.57388083631007 20.372645829424773 3.014468634412701 0 0 1
602 1 79.76586528461792 19.006145087556654 0.48375509018340346 0 0 -34
2 1 77.2250921011806 20.299313489582076 0.3850373119105831 0 0 55
917 1 81.96968168635901 20.29561481605543 1.3753239188912887 0 0 -6
804 1 86.40188793258172 21.164208766124773 0.8617754819684005 0 0 -27
71 1 91.8468676313847 21.255940133210093 2.3187324037085153 0 0 30
236 1 94.44721683639483 19.925837537315413 3.0101501312913914 0 0 -20
995 1 98.44905675444679 19.023494629131914 1.449968492806259 0 0 -12
229 1 103.21928573231108 19.679781392300004 0.23121419041111058 0 0 -26
907 1 108.41750704275938 21.10855664904393 0.19403467891378956 0 0 36
9 1 112.72366555230512 20.686015906173985 0.5198114764325433 0 0 -46
633 1 115.26900196300339 21.700011364471766 0.17239423869548506 0 0 33
805 1 117.73314173288645 20.051226088479375 0.5553972018016324 0 0 -49
2441 1 119.9975431046018 21.56134625416358 1.386786482474954 0 1 -42
754 1 122.4897068019308 20.34484105211655 1.7759420045666086 0 0 6
3423 1 127.231134358422 20.408383811982628 1.7950722233382967 0 1 -5
258 1 131.16907624033908 19.143830886939487 1.3054730331511761 0 0 25
468 1 129.56764942514872 21.58659908450971 1.0573927436457307 0 0 31
279 1 133.9609272513842 19.729290271787182 1.5584215048547578 0 0 21
3831 1 -0.22511737292027645 24.675897911207663 0.21221432415333424 1 0 3
345 1 -2.627086501969599 23.030753741663222 0.6301974760505319 0 0 45
247 1 1.9515734168299694 23.085601607721863 1.6467339342465996 0 0 4
83 1 4.759942075121115 23.112710464700424 0.24041303864567076 0 0 35
250 1 9.510207331541755 21.997842069748796 1.224857566328465 0 0 41
150 1 7.403783162106345 23.97685974437083 0.9158764701654597 0 0 39
711 1 11.43026726817248 24.022541474933437 0.3507398193343656 0 0 30
2637 1 14.573327395757701 24.352708239824196 0.9044596101698525 0 1 37
434 1 17.031004833383875 23.018533387660653 1.2506962154280987 0 0 60
422 1 55.04703733913667 22.100968871579465 0.053715662193597746 0 0 -51
548 1 59.49559305353747 23.422010422647965 1.4608426285388618 0 0 -9
518 1 62.340988536063776 23.2429462021707 1.7664718031090119 0 0 -3
1159 1 68.09159618415264 24.341699894209153 3.013340858831043 0 0 16
452 1 71.37839827086822 23.159540495876115 2.5355259103749024 0 0 -6
91 1 74.44654414854222 22.756238337310695 2.952965664940468 0 0 -23
641 1 77.84330912935948 22.90966857320238 2.447317879672701 0 0 27
372 1 80.86392112000405 22.98196225006888 2.433159024763598 0 0 26
887 1 83.88722825679584 22.495593306897188 0.5283101554701316 0 0 19
311 1 88.78262755854185 22.440704033485623 2.6352870162743294 0 0 14
1 1 92.88384825995152 24.027423790954632 2.6711238581934857 0 0 32
462 1 95.8991995062479 22.338240474005598 0.6285622851267568 0 0 -6
190 1 98.63596999227897 21.93708545723632 2.2967912024304766 0 0 -18
717 1 100.16278338554072 24.406515665580304 2.2745272532483183 0 0 31
1042 1 103.56973393835679 22.287669733307904 0.20660025944400293 0 0 -32
92 1 102.87111552316509 24.802987676387826 1.273765790620243 0 0 31
886 1 106.39889697161206 23.040467180291472 0.3451484515837501 0 0 -42
164 1 110.70359176544883 22.67062031393223 0.6178527689883161 0 0 -21
749 1 114.79555461888287 24.426315714848737 0.35852322068528175 0 0 9
652 1 119.81129747667738 24.401214891601942 0.7164726191221672 0 0 52
224 1 124.84613948274912 22.125981118403132 1.7815109551969879 0 0 17
861 1 124.64116025913981 24.687087965861913 2.227265659642817 0 0 -6
724 1 131.27506492662675 24.146128702078204 0.9679890344013491 0 0 2
555 1 133.99338274450835 22.58877935184435 1.4742812137011736 0 0 0
664 1 -0.8117633006575544 27.353663478764723 2.3486070345569603 0 0 8
3755 1 2.878689240391237 25.827097629114938 2.619204144479794 1 0 24
507 1 5.389931571054502 26.62071875071932 1.5563172670407983 0 0 44
486 1 9.59445943870163 26.11241815950035 0.49372955420502995 0 0 35
60 1 12.052073363632047 27.811878171424482 0.9065096656521185 0 0 53
1031 1 14.985828878499714 27.115099578884188 0.9289916504468477 0 0 22
583 1 57.84318051477813 25.651725240240392 1.6053354103460913 0 0 17
409 1 59.95981974756705 27.26790422592096 1.5207315927678982 0 0 3
992 1 63.02539741633794 25.86368146050345 1.6978965639364572 0 0 -13
474 1 65.73365711884247 25.901059822100425 0.2826773859501452 0 0 -40
334 1 70.15368805944549 26.205580252963653 0.46576324477652736 0 0 44
726 1 72.90395431455535 25.570626834223344 0.615698037339743 0 0 9
618 1 75.4926767446273 27.022716646834017 2.083416946056267 0 0 58
1027 1 78.13733370556493 26.018991223023015 2.667576176278388 0 0 10
45 1 81.08387506588366 25.65200044373529 2.7004018178524856 0 0 73
113 1 85.2714341897688 25.05892528592751 0.724630945399005 0 0 -27
640 1 83.54029254501596 27.135044324414473 -0.0217842126503436 0 0 10
741 1 88.4271842087644 25.122798811115295 2.7459159912846847 0 0 79
12 1 87.07844634483948 27.78473625212973 2.853586886570052 0 0 -31
530 1 91.11839471329468 26.430396471031067 2.380626503239154 0 0 2
821 1 93.9104083672916 27.653026267588338 0.9549924471203911 0 0 -22
97 1 95.38056577738824 25.035324309582645 1.2172832030897114 0 0 -18
612 1 97.97747451015896 26.049126848878274 2.1448357547912753 0 0 6
343 1 104.36280889809697 27.380576068820403 1.1129308594533136 0 0 30
637 1 106.9048394279174 25.648606508532392 0.013142997205510376 0 0 15
286 1 109.49236506033246 26.83578696039628 0.8683720882678454 0 0 23
959 1 111.88804927637894 25.48781334334017 0.8381959889927311 0 0 -16
4547 1 117.21597118862593 25.77616907398082 0.762034112778971 0 0 -12
436 1 122.1326355152007 25.711116212308337 2.2594979713181766 0 0 18
1045 1 126.59412345598872 26.734170558006976 0.5498852261196338 0 0 24
1037 1 129.52615915499226 26.54499297434005 0.47675004029571355 0 0 28
591 1 1.8424800188608428 28.3521210782309 2.176249084165147 0 0 57
4128 1 3.869487739586786 30.17819704442936 2.6389990497041413 1 0 -11
729 1 6.279926279012912 29.197365953228157 0.5546848164110675 0 0 14
986 1 8.809153658634552 30.644918890697753 2.306126324615575 0 0 40
663 1 11.504816108426635 30.545381228657817 1.8625084306729605 0 0 47
842 1 59.52557926702478 29.875222332474763 2.0299661275215195 0 0 38
856 1 62.71399161830608 28.732597322827694 1.0872471087461613 0 0 -15
984 1 65.8305277443653 28.74455246898581 1.417092901467121 0 0 -45
1109 1 68.65252644684094 28.740697431334073 0.5222985927353081 0 0 -43
447 1 70.5977858247114 30.917069305332383 0.18120533865893576 0 0 16
203 1 72.43759245588582 28.565192361532805 2.6298425346443377 0 0 5
642 1 75.01652845495546 29.797628243250806 0.2649003969157579 0 0 5
1022 1 78.99450154699682 28.801146624818212 2.7657389303331597 0 0 20
182 1 81.95002685596116 29.41787064069011 0.2612462932224581 0 0 2
100 1 88.81686617528135 29.944982409686055 2.739629986667456 0 0 8
162 1 91.31058585551897 29.186256985987523 2.01932793322631 0 0 -15
117 1 95.93870963468852 29.682326344547704 0.5892932573130882 0 0 -4
312 1 98.33620227632318 28.59571594784525 0.23473937124253563 0 0 -14
942 1 100.98721438155648 30.194176813394634 2.9657215398897634 0 0 -31
1157 1 103.77588484220065 30.046121771000657 0.36902248963812556 0 0 28
829 1 110.03242098867024 29.333430978073565 0.917888329405045 0 0 -7
328 1 112.5375402361698 30.461955521089948 0.5222861582346314 0 0 -4
720 1 114.04494524294893 27.900744526572197 0.43517230681162666 0 0 25
746 1 116.91518024250654 28.789877827586803 0.7193719792344594 0 0 12
292 1 119.53141826051684 29.85192735592978 0.9152074618425233 0 0 27
40 1 121.84398190276718 28.48696924070838 0.12119894459007391 0 0 23
1166 1 124.02862370127802 30.374028199109304 0.483012109160856 0 0 6
931 1 126.58748783614664 29.330014049380992 0.7523425853063612 0 0 43
1182 1 130.9779355774109 28.758965873617854 2.391160993160221 0 0 48
979 1 128.95552872843558 30.681050258452785 0.298514236640524 0 0 11
957 1 133.63759836657658 30.688146440491913 2.2160826361800092 0 0 -1
744 1 -2.0697830534561077 33.0724516185817 2.998140535513916 0 0 -10
407 1 3.1472340878573473 32.85113155141351 2.568084777057722 0 0 35
50 1 7.490062729238295 33.10427036834236 2.252673940040812 0 0 30
412 1 12.216483010519548 33.44206233873151 1.4509701682007172 0 0 42
818 1 62.08600667374263 31.749252163486027 2.3232066580370425 0 0 -68
1133 1 65.0391381789318 31.34966874396512 1.8648763249475138 0 0 24
46 1 66.79465856035436 33.22704850946836 1.3101104163493138 0 0 -41
382 1 69.53409550153435 33.6051476862686 2.2665081195474626 0 0 -4
1176 1 73.20393384898567 32.087651537754 0.543176854630253 0 0 19
840 1 77.5710046687138 31.0258809360974 2.734374016591431 0 0 -17
817 1 78.63950673583028 33.685106646155695 0.28971488418172303 0 0 34
363 1 81.32248493249794 33.5940174472163 2.7917033401592573 0 0 -7
913 1 83.39156093823081 31.647207479715824 2.876196764870409 0 0 38
31 1 85.62512403456674 33.36578513956042 2.7254393351620956 0 0 9
267 1 88.23614122765308 32.87912520289088 2.0925290726452754 0 0 27
126 1 93.44492580705278 31.153710162683495 1.1309398160721873 0 0 -4
524 1 93.02578946986424 33.74207100522639 0.3609355030861301 0 0 -3
28 1 97.53760964955374 32.05153651422048 0.2786651011506503 0 0 12
752 1 100.20647863863111 33.046229551745625 0.03774145362216906 0 0 19
276 1 105.51260492475008 32.08850334644256 0.023656850206268766 0 0 14
753 1 108.38204230634135 31.646895424379693 0.28547396541782594 0 0 8
87 1 109.78848644861168 33.60835004582971 1.1177590276400597 0 0 -7
398 1 112.47576838094578 33.128228428791175 1.3842698547739438 0 0 20
606 1 115.65866391982507 31.187231438962087 -0.014758494391251098 0 0 21
220 1 117.2808613678918 33.44790152094521 2.893883122538875 0 0 -29
358 1 119.8663743002912 32.80810417131163 0.38667412173052657 0 0 -12
1073 1 123.29169283430903 33.109015937740104 3.0057442709090525 0 0 56
4318 1 130.25074829109823 33.19746265349925 0.7704746331430676 0 0 9
935 1 133.37957377288393 33.55379539587556 0.19333490931621447 0 0 1
448 1 0.6169928583047164 34.19091312812316 2.9388279503246935 0 0 7
49 1 1.1589519576597525 36.97974547793664 0.3422173789095042 0 0 -9
4296 1 5.63717151204686 34.996849903668455 2.738598317238754 1 0 -7
789 1 9.65846536846868 34.7887249713197 1.3565403780523146 0 0 20
689 1 13.530810187447987 35.990928133026316 2.4425602641580744 0 0 31
958 1 16.2860416596149 35.932108379644035 2.475739461437912 0 0 29
1124 1 58.906560882513034 35.391692169263635 2.509205240722281 0 0 60
634 1 61.67699720772107 34.47799487542407 2.1806393404436637 0 0 28
509 1 64.4948554838738 34.94751114672194 1.2080847424084837 0 0 71
901 1 70.3248107421275 36.29999807047657 2.185180397648325 0 0 35
771 1 74.32935350408589 34.715197317039916 0.4741535331399582 0 0 0