LAMMPS data file via write_data, version 29 Oct 2020, timestep = 200000

21652 atoms
1 atom types

-2.9963930501338325 272.9963930501475 xlo xhi
-2.9963930501338325 272.9963930501475 ylo yhi
-0.09987976833793955 9.099879768338013 zlo zhi

Masses

1 18.015

Atoms # atomic

11476 1 -2.523814875343941 38.487902282484214 2.4534649458400195 1 0 1
9920 1 2.003053434125312 -0.556286551916477 2.0145347800784794 0 1 1
7443 1 22.081599892603602 -2.650003521161562 1.765214773604491 0 1 0
621 1 4.916194470991618 0.12722659393175473 1.8303363030398712 0 0 -1
3859 1 134.44893992317995 79.79370614595318 9.026534938201344 0 0 -3
635 1 9.594804224562278 -2.437606661418327 6.802761359649635 0 0 1
8824 1 17.711270612839293 -0.9851977023097369 2.0381870313383246 0 1 0
8813 1 20.349860416059006 -0.3951620764390791 2.062650928325255 0 1 0
9404 1 24.916666700416133 -1.4774096687056693 1.8966659599738358 0 1 0
723 1 -2.3659840159154415 16.078752404101483 0.8343259333934178 0 0 1
7324 1 28.52247123712388 -0.2592288344183551 2.1673250846480334 0 1 -1
9250 1 28.64242096836098 -1.7623251287280577 -0.088456054017747 0 1 1
8587 1 36.08647305307998 -1.398050382159489 2.2635611080162126 0 1 1
1591 1 38.7221331184548 -2.4863106722957555 1.9990346728373485 0 0 0
7176 1 52.65716889147742 -2.774292774915808 7.144259323974642 0 1 -1
7489 1 48.052923699654535 -2.431653369525365 2.9849873898143744 0 1 0
2724 1 50.39653854302989 -1.114982319581897 3.280507824513785 0 0 0
2234 1 134.542663422553 2.7235193580016883 6.030236937797729 0 0 -1
2072 1 60.46006406208524 -1.4420349464411284 2.0277998076736177 0 0 0
479 1 67.07377479399095 -2.1012134273530125 0.9362951335328058 0 0 1
2576 1 70.80201756539975 -0.7988277522330485 1.2853303815211803 0 0 1
170 1 134.69043614705512 2.8280996570898287 1.6492672443505376 0 0 0
2588 1 73.43134338887434 -1.7481220707697707 1.1837246746436259 0 0 0
13771 1 -2.909679831514277 -2.3916856829377675 6.198716785707543 1 0 -1
9073 1 79.31519464244685 -2.643111641025857 3.788026142388206 0 1 0
7669 1 80.08629121294557 -1.4664267303230598 1.393641463898079 0 1 1
10238 1 82.51049893419712 -1.9687738935119519 1.1893778048178998 0 1 2
2051 1 92.20517923822435 -0.1682368739726141 0.4156908427910524 0 0 0
831 1 92.7259001527398 -1.575755819100793 2.771227619720199 0 0 -1
8060 1 96.9003894014616 -1.1953158116566358 2.8943233171434732 0 1 -2
3349 1 98.15362358525687 -1.645714078612806 0.4547288975936069 0 0 0
2799 1 101.42357270182211 -0.04060298393108264 2.5312923173614754 0 0 -1
266 1 125.49694055812014 87.83341064096663 2.1490702917511673 0 0 0
628 1 106.74818588397677 -1.2198261236267622 0.5093914673076005 0 0 0
11341 1 134.2362372918013 47.68760360585308 3.143254344489126 0 0 0
2594 1 112.35718479709361 -1.025370698021309 2.454010044566834 0 0 0
10341 1 110.89336753994 -0.6730015451949183 0.1457168437739494 0 1 0
1524 1 120.69761713227017 -0.33260231582665556 1.7039000019312773 0 0 0
3427 1 121.67999463350966 -2.940318517454263 1.8667763238006292 0 0 0
2497 1 124.70792866858801 0.09743841621531324 1.7757325090433127 0 0 0
1460 1 129.50222979303348 0.5842654300938781 2.0236463006066345 0 0 0
111 1 -2.750421802449359 53.81188332986814 6.259056985979466 0 0 0
8123 1 22.003360578987973 -2.3888621332256657 6.977495854319612 0 1 0
8143 1 -1.7917924956662243 1.0849666374319789 8.574754581695448 0 1 0
19329 1 1.2071678643965065 0.9577944757468102 8.95873292116384 1 1 -1
3201 1 4.435046370623425 2.8795653413974716 1.912094248890483 0 0 0
10684 1 9.047614597011094 2.6654607112111783 2.192276688933862 0 1 1
9041 1 11.672539640609983 3.3506622376771604 2.799727166511847 0 1 1
95 1 13.662761207001012 1.4121228616924313 1.9676755709129101 0 0 2
7491 1 16.56846424966372 1.4721025247661261 1.6912855113343421 0 1 0
3258 1 24.25165355846203 1.2694742791698008 1.6992186879501896 0 0 -1
7930 1 26.87776745927836 1.9650506448833944 1.8400328716493135 0 1 2
2376 1 31.207590892834666 0.8488808994013013 2.0151380654782876 0 0 0
3054 1 38.088136546909425 2.5182642645402495 1.901796487216977 0 0 1
353 1 39.910674481329075 0.46152448352954334 1.5666748455847201 0 0 1
253 1 46.727309207512796 1.2249537763497234 1.1957991682212024 0 0 1
10691 1 49.182705024590135 2.5735113289691594 1.2643752873260874 0 1 0
388 1 51.08886218609902 0.5832251187350406 1.115482598237625 0 0 -1
2755 1 53.5287829378504 1.1822266956176675 1.9272298264933787 0 0 1
1358 1 58.887753630324845 0.6345171914999619 1.8276918477426745 0 0 1
1226 1 60.496925160026116 2.71675746781378 1.9590502652511455 0 0 0
8928 1 63.27067244997767 2.1385281649002277 2.6917916173254515 0 1 0
1963 1 66.37882480081316 0.5971740337268541 1.022616788813354 0 0 0
1315 1 75.53176138665097 2.843569457884925 1.1324173235511379 0 0 1
9466 1 79.99548111553662 1.584987819009804 2.2270423342919443 0 1 2
705 1 78.3725064882426 3.7191719201834887 1.3058091480177798 0 0 1
921 1 82.79373922979417 1.9920095643732436 1.4318882268531545 0 0 2
582 1 90.01876642776408 1.7743489877056824 0.41956244825148903 0 0 -1
3202 1 94.34653624688187 1.4311117427755553 0.34809493386675505 0 0 0
1929 1 92.82102266813854 3.734680698683272 0.3629119105704178 0 0 0
1866 1 97.817112041092 3.116780906648943 2.8881495720234063 0 0 -1
2115 1 95.79978568949815 1.1494650703014244 2.794328996784229 0 0 0
765 1 100.13199533553156 0.41104493599899294 0.3170230297006007 0 0 0
3004 1 99.50961985868717 3.1365002614697923 0.6611433872507899 0 0 0
1146 1 103.94864651195844 3.4103729156276534 0.5036076400224995 0 0 1
1550 1 103.50104179582014 1.7300211480939796 2.770683491049573 0 0 -1
1950 1 106.00213701342787 0.17035183486185845 2.766791582674831 0 0 -1
3009 1 107.70805928922705 2.2195294563304735 2.5332438019344377 0 0 0
1253 1 109.49097762908578 1.7928579864933996 0.13975396140335772 0 0 -1
2292 1 113.73529508603747 1.4740854354865185 2.3545579891273483 0 0 0
2017 1 116.65902648725108 0.05575198282389371 0.9267735105516144 0 0 1
2733 1 115.36703552987608 2.4884915211032235 8.989005071268611 0 0 -3
861 1 122.61226424496468 1.5634086990918057 0.9019841887689952 0 0 0
13214 1 127.07592720153016 1.7292571800648702 1.8817201814029783 0 0 0
9749 1 115.8309297579791 -2.7567729295157966 4.209794961683231 0 1 -1
2113 1 -2.4487428899514 5.180631412327896 1.7465335297645392 0 0 0
431 1 0.20830927197886995 6.263750231390286 1.9104755246447072 0 0 0
1215 1 1.4291850249873823 5.562755283118806 8.90153206646336 0 0 -1
205 1 6.947536218854843 4.54447414477367 2.084556048968917 0 0 0
3464 1 12.474038717682946 5.976223139356618 1.9668905731701543 0 0 1
252 1 16.421551408397605 3.0462454672559893 8.659095734509794 0 0 -1
9893 1 19.11146878542784 3.3927234960550026 8.871886741849945 0 1 0
9896 1 20.10638195124261 4.7660889860452915 1.814168166963847 0 1 -1
9875 1 22.499255667777614 6.179041920973843 1.8368257667384962 0 1 1
961 1 30.858863879699705 3.6311679278761275 1.9955840762438064 0 0 1
2983 1 33.40491608094178 4.3461401649963545 1.9777289219510523 0 0 0
3248 1 39.68451556337376 4.630788840913928 1.9473009603296996 0 0 -1
552 1 44.803646323638695 3.1505139364105768 1.9495848384622931 0 0 0
964 1 46.11022017694536 5.519193533683529 1.7680758333350755 0 0 0
1794 1 53.233204695457985 4.0674451178740165 1.7395553003375261 0 0 0
3048 1 55.8181208294164 4.721382073049547 1.7793877132855578 0 0 0
726 1 61.217470075101375 6.649006629333439 1.2111485627891572 0 0 1
951 1 59.90544879558914 4.870828667472384 3.44268474648655 0 0 -1
16 1 64.01740181895319 6.201422813058425 0.585679198472404 0 0 0
2014 1 67.2349114943235 3.9766572742745563 2.360873091465718 0 0 0
1212 1 72.11483630755512 4.074322942790222 1.0687018774100765 0 0 1
2895 1 74.4417636306809 5.403775810524346 1.1345571197919233 0 0 0
2207 1 78.8003213486302 5.456280830395238 3.437344934307428 0 0 1
8 1 83.1986613346247 4.900337799301418 1.1830579745244114 0 0 0
784 1 85.65128539628877 6.24579925851531 0.7569203952066793 0 0 0
1378 1 87.15749758178723 3.9313430654920465 0.7628755985323362 0 0 0
2873 1 90.05841093177868 4.574716286028262 0.38823331414666634 0 0 0
3426 1 93.70212832879109 5.006601365354069 2.8098684771358213 0 0 0
467 1 105.77800872675081 5.427987492940444 0.381766137709355 0 0 0
254 1 107.39377784413783 5.014489394919966 2.9255212604496195 0 0 0
257 1 113.01469902760802 4.024983037912674 1.3501021758227663 0 0 -1
381 1 115.46703890480363 5.685159323680368 1.722422554985657 0 0 0
1931 1 120.12715705415522 4.766023611411322 1.7477438259603713 0 0 0
138 1 122.80148559739808 4.246954961452876 2.104386987174242 0 0 -1
1090 1 131.08837940851814 4.713788509861164 1.8229739857281426 0 0 0
1419 1 133.67499312759 5.504649918443963 1.7261031575594026 0 0 0
3398 1 -0.028931178974409555 8.809411418543924 1.0802114329030437 0 0 0
2922 1 3.9622785477909064 8.760399891865962 2.008988248397519 0 0 0
10152 1 3.8125028638509653 6.889323134575978 9.003317799043195 0 1 -1
3559 1 10.401830569127457 7.3593087337829 1.7439480516104753 0 0 2
1898 1 13.71540653375218 9.449553381429446 8.486494380970761 0 0 0
2423 1 17.67730334438514 6.402720065557967 1.631616669564984 0 0 0
1489 1 18.15080155953917 9.00783678687861 1.6732933412581334 0 0 0
1185 1 20.729249639298114 8.268822087029571 1.0935188675779937 0 0 -2
1595 1 24.887549893612146 8.035465129300507 1.7292387914110556 0 0 -1
3184 1 26.22900703202912 7.923552313482251 8.77837772318534 0 0 0
2911 1 30.173121885177224 7.889738526856814 1.5027868896793293 0 0 0
1812 1 32.67690618331754 7.106847105898808 1.75857865188219 0 0 0
3235 1 37.54163576242481 6.57741997633355 1.7052281829124072 0 0 1
3176 1 39.12253361312611 8.956321417033294 2.044922521366522 0 0 0
747 1 44.41656197794419 7.69836945321396 1.5165118464917462 0 0 0
2618 1 49.306401328070194 8.139168081750265 3.557482227946498 0 0 0
822 1 53.29942564221751 8.26740874890234 1.4916499488401187 0 0 1
2577 1 56.043826466080525 7.615827000918625 1.4291802513317866 0 0 1
890 1 65.32151188967218 8.626990473988528 1.1407188033275304 0 0 1
2707 1 67.2008208099891 8.311088286171717 3.0490990054331895 0 0 0
792 1 70.49635223495615 6.547456467335236 1.0887191536820657 0 0 0
3537 1 71.79492229690838 8.852211826369913 0.8296529551333167 0 0 0
372 1 77.98636906552755 8.90569159777649 0.9989229738241125 0 0 0
3233 1 81.90507498242341 8.885574064386706 3.5493318738367265 0 0 1
2736 1 88.65554563912721 8.468630479793278 2.7959551605982296 0 0 0
2745 1 93.00918237983076 8.733655724498295 0.6154872186374578 0 0 -1
169 1 95.69517525420801 9.795644526526045 0.5132523154695081 0 0 0
2823 1 97.13954806696474 7.202403788527899 0.5659974127044923 0 0 0
1967 1 99.6091774643038 8.479473495734632 0.8797191459363277 0 0 0
1613 1 101.68908298306044 6.705074898210842 1.507238048817246 0 0 -1
2484 1 104.1727077062339 7.705872851111726 0.95449615259752 0 0 0
2857 1 110.78635167522252 7.07203971599186 1.1723674386624545 0 0 -1
224 1 113.47768457689727 7.83023192748243 1.1596881146476725 0 0 -1
2681 1 116.90626710217458 8.147969299361472 1.2853702867734846 0 0 1
2735 1 119.41067389841038 7.390329744966282 1.822643171839957 0 0 -1
2919 1 123.67558938089603 9.253270654044451 2.2770626063560138 0 0 0
1270 1 127.390330454675 7.211449976113171 1.8876650062688785 0 0 0
3028 1 126.41874423282795 9.540543926247834 2.0916516689622004 0 0 0
2179 1 130.25770288310414 7.5594721614406115 1.9271534659728284 0 0 0
3294 1 -2.432249500684076 10.255063955011275 1.812659992659764 0 0 0
142 1 2.0992258008221256 10.602205078922173 1.7140354942581737 0 0 0
2372 1 6.420043257197149 10.065127906373354 2.131958699514575 0 0 1
3075 1 10.698554990181064 11.855001052590495 1.8626381866734956 0 0 1
8500 1 11.9834572857326 9.555750680949707 1.6003702470609675 0 1 1
669 1 22.59707587052796 10.388980731099016 1.8504387594998941 0 0 0
1552 1 25.44503781157741 10.878329166164797 1.7690088374040787 0 0 1
21 1 30.041010640850047 10.527450335413354 1.3321090737477903 0 0 0
1539 1 28.82449716382689 11.598490031373275 8.188102359704605 0 0 -1
3207 1 32.678185800520616 11.562946047365246 1.4700425846701302 0 0 1
561 1 36.44887066348042 12.456694491727934 8.901944776587207 0 0 0
1810 1 37.99420528459561 11.530337683463747 1.8585051169812976 0 0 1
2603 1 45.12210888091368 10.480683637404637 1.9504596671328192 0 0 0
1054 1 47.66501766474641 11.581893851169506 1.7476721622479214 0 0 -1
3086 1 53.00115471221616 11.089615030448673 1.6212779627687892 0 0 2
2809 1 55.4858367091567 12.284281988929703 1.5282868995644026 0 0 0
2604 1 61.43660383932878 10.408878794242474 2.7560659537860324 0 0 0
3506 1 60.97810500333776 10.55148874753359 0.11271183460514914 0 0 0
3276 1 63.96589273997981 10.3855759041869 3.5417963051829697 0 0 0
344 1 69.975897649623 10.912795844702309 0.5652902111448684 0 0 0
2910 1 76.55170079798535 11.140051650085635 1.0797968840308598 0 0 1
3061 1 80.62427226569145 9.702220837225717 1.1339166448077724 0 0 0
3119 1 80.57963368183412 12.389998125613667 2.5210802439541444 0 0 1
295 1 84.5836522050707 11.669192985611962 1.0644299555367416 0 0 0
2261 1 88.91978479369656 9.921385497943485 0.20069654686952731 0 0 -1
3301 1 91.59126003123205 10.986557914225369 0.35463962917927144 0 0 1
164 1 108.88532892399012 9.141838497544336 1.4287256462337592 0 0 -2
2978 1 110.52231388588109 11.065099770941101 0.6802069344558501 0 0 -1
1366 1 111.89755163428144 11.318730019020114 3.06098256091344 0 0 -1
1854 1 122.17756429587385 11.391413690827392 2.762268901123645 0 0 0
1917 1 119.30101667065657 11.121519014344665 3.3884236679869897 0 0 -1
2878 1 129.70838379859998 11.599595722638545 8.825551099808226 0 0 -1
12899 1 130.13838336509875 12.695837259806416 2.1617475900619216 0 0 0
2584 1 134.29440133084154 10.681145160497234 1.8659091243486692 0 0 1
1903 1 -1.9712818714767137 12.765224431228727 2.113372703332603 0 0 0
673 1 -0.6164634144894587 13.590533462133212 8.715774111728084 0 0 -1
3055 1 5.252951424609078 12.277315578892892 1.7375385021324243 0 0 1
2739 1 4.333867121633595 13.663092253365146 8.7329743261785 0 0 -1
1267 1 6.694984623033106 14.594887226886396 1.8442266401970537 0 0 0
2716 1 12.609809036786835 13.935893804536882 1.9938847347424824 0 0 0
955 1 15.316830720072996 13.102743961221268 1.7757562915168108 0 0 0
1386 1 16.664426398408867 15.520340954720076 1.3573256629185662 0 0 0
3231 1 19.276079097963134 14.187228045828778 1.6166708749718144 0 0 -1
2456 1 25.296601351782773 13.793556261536207 1.6507890901029585 0 0 1
3083 1 27.62936352661908 15.196637625676264 1.4549033693784514 0 0 0
1479 1 32.31344341349698 14.360410489935479 1.590787096089427 0 0 1
2949 1 36.55600911128518 15.16437322797917 8.668539383034112 0 0 0
475 1 40.687114773486364 12.618705303633044 1.9792977469935606 0 0 1
3296 1 47.62781279204233 14.33856332710932 1.4771317211464041 0 0 1
2518 1 45.28187584142029 15.541176877862526 1.5925460224457768 0 0 0
3382 1 53.00336221745774 15.676238497297483 1.297539662972384 0 0 1
182 1 55.612782098824624 14.968683822328288 1.5627752390323306 0 0 0
3394 1 60.10845763535776 14.285686118405735 1.954723159690937 0 0 1
804 1 62.760357382336025 14.10504772797049 1.526308554610958 0 0 0
2026 1 67.51859190357236 15.115913082233284 1.1548047134179436 0 0 1
2222 1 71.50018790617766 13.507975819975101 0.7134443918809101 0 0 1
6 1 74.91385655802475 15.087165759475624 2.3065246799609445 0 0 0
2155 1 78.16486198403233 13.351022595722931 1.5775494480109584 0 0 0
807 1 82.6501267405592 13.753442740993144 1.1361937884261557 0 0 0
728 1 83.75275304819395 14.694853563491424 3.418233763381093 0 0 1
97 1 86.15837517606228 13.58236010926031 2.495160479005949 0 0 1
641 1 88.59155970677935 14.517846132693059 0.33495956442321473 0 0 0
637 1 89.97293254331143 14.644927668463122 2.887790282680638 0 0 1
2490 1 95.92242241460205 12.79075293397738 0.5580344642232117 0 0 0
682 1 98.22030871982774 14.039844976185254 0.7057943662148884 0 0 0
665 1 100.71568233129433 13.089042099477041 0.6199449975280379 0 0 -1
3393 1 104.63337757340464 15.020140200171774 0.6178094739554382 0 0 0
2981 1 109.17246572101764 13.500320846622998 0.4421111911745763 0 0 0
453 1 112.87459464046717 15.245661948716997 0.6182680005008272 0 0 0
3237 1 119.48819168489564 12.709451074474382 1.0858591479284834 0 0 -1
2571 1 117.10831862319456 13.724837164981356 0.966760078338202 0 0 0
3227 1 121.53277858773268 14.575259080095055 0.5663084416319688 0 0 2
1350 1 123.11748259879498 12.573063337202058 0.28420999186771745 0 0 0
228 1 126.33319106806391 15.007584011578931 2.3233302051835785 0 0 -1
1683 1 125.79221309210394 13.334247642471595 -0.0039599894792759355 0 0 0
615 1 129.06791322754006 15.257775425112207 2.4071058270391865 0 0 0
19638 1 3.446246722285326 -2.2127742280504057 8.407393242538646 1 1 0
2513 1 0.10058739571984221 17.599319923816964 2.23310630873082 0 0 0
1589 1 0.6058048978266988 16.02001059551205 -0.026925343972238253 0 0 0
1540 1 3.2991566067628577 16.238574068167285 9.077729982660696 0 0 1
216 1 4.789502733531242 16.882115385950794 2.38031508503253 0 0 1
2338 1 9.282056967243399 18.51007905993801 2.3483487303401556 0 0 0
1728 1 14.022851386675 18.060743493028166 8.643108321804547 0 0 -1
571 1 16.512091739977823 17.144148134613186 8.511568558377341 0 0 -1
2412 1 21.245943710820864 16.149363790121406 1.8501453046399723 0 0 1
1170 1 26.680545374004165 17.874404073174993 1.6773894369092606 0 0 1
1720 1 34.08693856034232 18.137709623912887 1.4514202348455416 0 0 1
1801 1 34.60840627201082 15.626116855048696 1.2410230802452142 0 0 1
3323 1 37.95014244281071 16.677158664905903 1.5802808155030081 0 0 1
1434 1 40.385165370756326 15.528299492776924 1.6619149844330352 0 0 1
903 1 46.386211743467605 18.194924366510246 1.4763653796893919 0 0 0
422 1 52.31351683452131 18.219613323756054 1.5553197363312838 0 0 0
302 1 63.56295167551609 16.762381206496975 1.67518891632167 0 0 0
455 1 66.10486948298276 17.43095746923608 1.3990306204818979 0 0 0
94 1 70.17898911694421 15.888441011950484 0.8914646180958676 0 0 0
1765 1 80.26991725049216 17.873553217258767 0.9375948739326583 0 0 1
2214 1 86.5144863867518 16.722654053388453 0.8806231190714491 0 0 0
2812 1 91.33674141694948 17.744263291488277 0.6431682093065534 0 0 1
1627 1 96.14269266376286 17.229368590511783 0.2693383143432856 0 0 1
1678 1 97.94105244937266 15.602931308072964 2.834281346480954 0 0 2
1486 1 101.37542800106928 17.449239029093736 0.17599998500750175 0 0 0
3135 1 99.93739583425977 17.508838944860454 2.4403533218723896 0 0 0
1240 1 105.8092560458621 17.704175760262114 0.7159039143075598 0 0 -1
3050 1 107.13367835801141 18.529420013146296 3.037464357741843 0 0 1
3524 1 110.3955161169969 16.23804749961296 0.5369236858665715 0 0 -1
647 1 109.73477654311876 17.367347494320963 3.046482077052597 0 0 0
1045 1 114.85275566420805 17.483854872739407 0.7501264550973682 0 0 0
1970 1 117.23787438484496 16.45517494865839 0.6725569473676783 0 0 0
547 1 125.13624267737103 17.25569578368834 2.126546095110332 0 0 -1
511 1 122.76475998501994 18.252394043050828 2.9551082635982677 0 0 -1
2700 1 127.32320436979586 18.614012324065662 0.5390387466223926 0 0 0
1480 1 129.49751171204008 16.899357684668182 0.2621112210891167 0 0 0
13792 1 131.78349839776703 18.063894250722623 0.47421312138801086 0 0 0
13113 1 134.2270055010261 15.16774153293678 1.8466165324965693 0 0 0
2561 1 -1.5719074733657314 19.75185644275824 2.6522405580785793 0 0 1
3003 1 2.6520721925186166 18.960912156532974 2.2354761323298025 0 0 1
993 1 3.5008812104719063 20.391562003077617 -0.07547348974884471 0 0 1
541 1 6.686099848879989 18.98433457031747 2.120742078953939 0 0 2
902 1 6.169144019970787 20.229562344313482 9.093840889517399 0 0 -1
2216 1 11.00959616199878 20.588909233685946 1.910256678531573 0 0 0
716 1 13.485352652511065 19.39723564144719 1.919886640583246 0 0 1
657 1 15.558316983183861 21.461140024207175 1.823496866761285 0 0 0
2246 1 20.003588711483943 18.70633607802242 1.9300747490261037 0 0 0
2447 1 21.627602439147118 20.764192189577393 1.4796985679402188 0 0 0
3375 1 31.73940822197806 19.042336483949764 1.8248615663731276 0 0 0
1389 1 35.611867889429085 19.361218710794553 8.830875708627996 0 0 1
1631 1 39.95663965728594 21.01272502723335 1.0624247775484672 0 0 1
3144 1 43.591381910521086 19.14727247708538 1.9152235888675238 0 0 1
1895 1 44.24836806052763 21.75059223141129 2.2948343086110983 0 0 1
57 1 54.774228371608906 19.559584251367976 1.6145784685295157 0 0 1
452 1 60.04317506578151 18.505259595749013 2.7449237184563233 0 0 1
171 1 62.69062662377797 18.64157865639593 3.683086204417632 0 0 1
2734 1 70.43214809151333 21.009810547455782 1.0632998357122043 0 0 1
1846 1 73.1450033409382 20.6543657480527 1.0996660034266494 0 0 1
1896 1 75.14866400729512 18.544042512402893 1.0521480018948763 0 0 1
1729 1 78.34343807894776 22.456236987854584 0.8446735229382268 0 0 1
872 1 82.15651579849623 19.631771689522107 0.8991588143943202 0 0 0
2024 1 85.33721333369947 20.927088696907116 2.1741628458114817 0 0 2
191 1 83.44120742229313 19.368959372480983 3.3965609566156023 0 0 0
3513 1 88.08943839426023 20.56710191734049 2.7378811621786108 0 0 1
2149 1 88.52343947559213 18.742744919559517 0.45796179475588006 0 0 1
1306 1 92.54686758977974 20.32549411608866 0.06860778791216213 0 0 1
2441 1 97.17166987600734 21.227036668926527 0.297559681638885 0 0 1
280 1 98.76916858227051 19.858468332239823 2.3550312898916106 0 0 0
2117 1 103.45434282207592 19.01348226620324 0.5435125306099317 0 0 0
3251 1 103.16097054534323 20.816715505387943 2.501355827494894 0 0 -1
1947 1 107.46650726131472 21.225681266708367 3.0207061228258296 0 0 0
3259 1 111.54380361786515 20.830386673546073 0.594142405181352 0 0 -1
2154 1 116.04477875777143 22.288450202903427 0.5523115802387147 0 0 1
2351 1 119.783910009304 21.441941072602088 0.5672511671054372 0 0 2
3553 1 118.93679140302038 20.073740094107468 2.9390360423358013 0 0 0
2048 1 121.905027384606 19.343472588294535 0.6839935997638423 0 0 -1
624 1 123.51225568862743 21.568142180942733 0.5946209454282718 0 0 0
1458 1 125.21652858334411 21.973760583063044 2.63315909608696 0 0 0
287 1 127.33483566548958 20.043970902351557 2.7785455715295577 0 0 0
1190 1 131.16441355442157 20.683541191877325 0.39860615960022694 0 0 0
217 1 -1.3319062503711314 21.770694603964632 0.14362825118533518 0 0 1
2875 1 -2.511425500677766 23.098725054942502 2.380911360798825 0 0 0
1162 1 1.4448229732962181 22.03023957901052 0.1781792455620711 0 0 0
2199 1 2.1439717163139838 23.740916704079073 2.098362123216867 0 0 0
878 1 7.934086542702117 22.365933677105648 8.751463957223418 0 0 0
3288 1 7.2448189358315975 23.98061295121813 1.861602365662706 0 0 -1
2065 1 13.752784044584118 23.57206666131237 2.2337809290218056 0 0 0
684 1 12.484675937883692 23.975729304484616 9.039993530657139 0 0 -1
695 1 20.105291047245927 23.1494870543274 1.4913788565694575 0 0 0
143 1 24.907151330234015 24.153791114230224 1.429938253936571 0 0 0
2228 1 29.02548506193648 22.203241060262155 1.369395090418713 0 0 1
687 1 31.607394758202844 21.723791821500875 1.2750233102293185 0 0 0
1499 1 37.992386020187794 22.927101179020514 1.5083783653966334 0 0 -2
15 1 41.881456118627675 22.975867148302036 1.4037713099942029 0 0 0
347 1 46.87079357480644 21.496526548048635 1.6275381853640285 0 0 0
2909 1 51.15843022709441 22.372987022074824 1.1765325311049029 0 0 1
2840 1 53.721352099914924 21.99082559950656 0.5814737478933205 0 0 1
311 1 55.565560283612776 23.667366544607088 1.5783613791729951 0 0 0
3133 1 57.96570510076336 21.886226995645615 1.646995932352827 0 0 0
2211 1 60.00102825584374 23.535908185699494 1.8103462685096368 0 0 1
172 1 62.267297142330875 22.197490993809573 1.1974743907130851 0 0 1
1027 1 66.7122753895918 22.867428664132948 1.5915782201909279 0 0 0
71 1 69.26435678527426 23.431225685810926 1.3042537689305356 0 0 2
942 1 81.12342717141377 22.274830463288787 0.8269822256140335 0 0 0
3053 1 84.96646885754649 23.68534457911613 2.927799072837803 0 0 0
2224 1 85.96579646028624 24.700962746268434 0.6559959197368235 0 0 0
1563 1 88.91123353277094 23.94413184500276 0.4230432466404894 0 0 0
2187 1 89.94448324093594 22.713291239337394 2.665528996983824 0 0 1
2122 1 96.0142110446007 23.717399673006888 0.0360472004330899 0 0 1
1496 1 100.52652965070492 24.01960715107882 -0.02838768632197078 0 0 1
298 1 100.80126894419017 22.059872300116773 2.188074498230355 0 0 0
930 1 105.16847473694085 22.696476654785307 3.0736388058676622 0 0 1
3036 1 108.88977351829838 21.816072608877988 0.6715203325528495 0 0 0
1554 1 113.47682971975503 22.910638793887856 0.4980038083453061 0 0 -1
41 1 118.28083042467428 24.016709708162868 0.5767870390122883 0 0 1
2602 1 121.60330664984299 23.524953721073576 0.8956887826867576 0 0 0
3287 1 126.08933656493093 24.584005057824214 1.8026803152412283 0 0 1
2651 1 133.3369481561177 22.348336988041066 0.3450756561921354 0 0 0
1742 1 132.12138046889095 24.895983721026152 0.41874585174602963 0 0 0
3203 1 -1.910768142358063 25.745117559813167 1.9485357249256698 0 0 0
1959 1 -2.6322449353093935 27.31037350011613 8.996246477336452 0 0 -2
2478 1 1.8878745446159115 27.553130951937334 0.32488892858123497 0 0 0
1666 1 0.9382993544716434 26.046068409689386 2.469156314801414 0 0 0
664 1 4.362700471802142 26.422538606647148 0.21466312958933553 0 0 1
423 1 4.641612932793526 25.031504525569513 2.5935148602330536 0 0 1
2595 1 9.235821978194807 26.10923004697489 2.226393564928053 0 0 0
3 1 10.691475220842197 26.152124133941474 9.073617758906494 0 0 -1
3208 1 15.390816080222137 25.763349696988698 2.1441651677335245 0 0 0
2580 1 17.214075201873083 25.53443739565748 -0.09791405769771089 0 0 1
1296 1 22.329084883873232 25.097915380624382 1.2811821533931012 0 0 1
3351 1 26.691956585941316 26.018152244412715 1.4010518593260535 0 0 0
3440 1 29.329313608652654 25.038179859911885 1.3354293441411793 0 0 1
1598 1 43.66001388682336 26.470072286977793 2.6990992326341487 0 0 0
2294 1 47.61271730376033 24.31813585965738 1.5420360565394127 0 0 0
2804 1 50.292136647236305 24.92271496310074 1.74216321256694 0 0 0
3522 1 64.30497358954021 24.170860293043635 1.3638323651895938 0 0 1
2278 1 73.54229886051395 25.820746310315613 1.0928730418442476 0 0 0
2936 1 76.20978410940732 26.0410343489349 2.0766850021611716 0 0 1
91 1 80.26693535782185 26.915831882094427 0.5856577606966535 0 0 1
2526 1 81.4351203351377 26.206218889395902 2.8789639858866254 0 0 0
1814 1 83.63077489291193 27.792980794728496 2.8212260353128538 0 0 0
3109 1 85.3840049916577 27.28894182074684 0.7469712996501864 0 0 0
2496 1 89.87849280778234 26.63593590680838 0.2587373199267745 0 0 1
3022 1 91.01539333715435 27.594278786571984 2.4666033308008104 0 0 0
2259 1 93.37784996923217 26.310602292464882 2.441878632738559 0 0 0
2552 1 98.20646396775155 25.144117317593313 0.9648598156365016 0 0 -1
380 1 102.5334501724551 25.708036163140452 0.19921332322801222 0 0 -1
1782 1 102.32715604614049 26.87877685922344 2.5583716488626265 0 0 1
1640 1 107.03029505599854 26.611206035816693 0.18920035643226046 0 0 0
2980 1 106.70735951665648 27.737970807389154 2.682541458453897 0 0 1
400 1 108.9123209512534 24.563129802083303 1.0017381906746843 0 0 -1
2690 1 112.90679968737261 26.893135778490613 0.4909106284489162 0 0 -1
1467 1 117.77606709298539 25.128309872891244 3.0430227236328617 0 0 -1
3402 1 128.43696995967497 27.73045716985644 0.4566647524961782 0 0 0
10956 1 129.44804661580847 25.204913893307815 0.4513880481570989 0 0 1
14424 1 -1.6919022749498882 29.79726845866864 8.850140292282777 1 0 0
1837 1 2.5363324446536497 30.15958793024668 0.8168936017309025 0 0 0
2540 1 6.228339968975247 28.355469487880143 0.06780883398585899 0 0 0
1635 1 7.74675046272073 28.512232675892182 2.4252697942883543 0 0 1
141 1 9.372857584641563 30.632574546802793 2.420566391419601 0 0 0
1941 1 11.054710018336628 30.229922893020017 0.4315464088451685 0 0 0
44 1 12.844376801262127 27.9476509297129 0.1427271712822746 0 0 1
2302 1 14.128731758290598 28.14347346448689 2.5134877582601036 0 0 1
1841 1 17.46045868819235 30.536815648118548 0.6712546257839552 0 0 1
2315 1 16.08814407280056 30.343286880780944 2.961221587766701 0 0 0
3132 1 19.90975504932563 29.037178984364225 1.2517093798309942 0 0 0
1241 1 23.658204389473834 30.156817238702487 1.0064141574129726 0 0 1
3347 1 23.83809644613362 28.334274189558283 8.124256035977236 0 0 0
960 1 32.173795399568995 29.137999737039998 1.4300733481356378 0 0 1
2139 1 34.44289328069099 27.44776035118312 1.5030067380969103 0 0 0
2284 1 36.95417001987556 28.863323946419612 1.4048023243429626 0 0 1
3013 1 39.391559358623034 27.845105805662204 1.3138926448206845 0 0 0
2779 1 41.266780628619806 29.8698059331006 1.483061760280286 0 0 0
3263 1 47.11565526694524 28.52572489844855 0.3178640420451994 0 0 0
3514 1 51.01575231694161 29.837700659181444 1.4459944599200272 0 0 0
817 1 53.50380390010944 28.396054560482597 1.4699992621650277 0 0 1
2769 1 57.51199612871144 28.653228945870204 1.4386875477640992 0 0 1
2208 1 62.04527846699021 28.645570200673504 1.373935213283564 0 0 0
1243 1 63.84673302767624 30.554510357310562 1.2201680886749018 0 0 0
2542 1 66.5209705851018 29.14065598153003 1.4571789976043488 0 0 1
554 1 71.73931552865409 28.38612726645221 0.6967338252053332 0 0 1
2917 1 75.76822660020964 28.647045782666236 2.3852350513184026 0 0 2
1999 1 74.19216197461164 29.583602234292755 0.006396887865525516 0 0 3
3544 1 78.21192772304912 30.08494490297756 2.4307864303919002 0 0 0
1522 1 82.05417011368426 31.10946507529696 0.07919179147319053 0 0 1
752 1 83.33717199160559 30.4934310946076 2.4764264848694975 0 0 0
161 1 87.72010891459011 28.260454437517776 0.019702469309505394 0 0 1
3161 1 87.3871345310072 29.90968782858807 2.5851756311943253 0 0 1
2987 1 94.24694416439813 28.03868985805537 0.3526919146775185 0 0 1
1247 1 92.03611528017251 29.55417816711749 4.529548708585012 0 0 1
3045 1 96.63410436298945 29.38750960514379 0.47862021153305123 0 0 0
3290 1 98.59551585618054 27.681545823538006 9.098082159104738 0 0 0
1930 1 100.03241113271912 28.365357477141593 2.2708305710883017 0 0 1
3321 1 104.13496610913573 30.167670387047984 0.21908385401811603 0 0 0
162 1 104.28022437407814 28.807569396711305 2.817654098871191 0 0 0
3441 1 108.20431836204126 29.77606614415938 2.745541978168906 0 0 0