LAMMPS data file via write_data, version 29 Oct 2020, timestep = 200000

14434 atoms
1 atom types

-3.4686946543455406 273.46869465435196 xlo xhi
-3.4686946543455406 273.46869465435196 ylo yhi
-0.07708210342967048 6.0770821034294 zlo zhi

Masses

1 18.015

Atoms # atomic

7518 1 -1.0386036579290034 -1.5351215619355356 0.14651320689102942 1 0 1
8208 1 1.0965491396301061 -0.9507929255527054 1.780567924944323 1 0 0
7796 1 134.44220147541387 54.25507031042933 0.2820280087061233 0 0 1
1351 1 14.624181855023437 -1.3563951927282014 0.6202109088181853 0 0 1
884 1 134.02627780113426 68.43728463095356 5.937003213868826 0 0 0
95 1 21.26968350825901 -1.9180529731437457 0.14173002338268434 0 0 1
9041 1 -2.7164904544414745 13.86902759747937 1.0140952049795844 1 0 0
1272 1 33.06296331022916 -2.116737629145569 2.481324342241073 0 0 0
464 1 38.155147673210195 -0.8098547305212231 0.9509615895889831 0 0 -1
1856 1 4.858682083850576 88.23021614571533 5.238788660602813 0 0 -2
2053 1 42.52203766314044 -1.9641410397418748 0.6644787323291701 0 0 1
1164 1 47.909563381135186 -2.3130025924409816 0.8972607176167136 0 0 -1
4939 1 50.58452297814601 -1.9415431004861903 5.767207316150294 0 1 0
5133 1 57.46649698379729 -2.9073288996881326 2.3975403256794237 0 1 0
310 1 63.452202248760884 -1.9904091957857268 2.638679497877964 0 0 0
238 1 122.89970302484498 -3.3982270321646757 5.1533521339516195 0 0 0
2020 1 134.02846142824166 80.55966044008187 4.623179169053108 0 0 0
5018 1 69.1107461678222 -2.3846330563542755 2.6389393650091875 0 1 0
6237 1 73.54218874289599 -3.206784748999999 2.5912234988536884 0 1 0
6967 1 77.8542372790977 -3.0133701626511047 1.9365217481497323 0 1 0
5601 1 83.73514511706601 -1.133295999320382 2.346133127931756 0 1 -1
1929 1 88.36348213203755 -2.5182520600477547 0.939989717279968 0 0 0
5708 1 94.75239659306061 -2.1527571125367455 1.183728186095161 0 1 -1
366 1 101.03807912313677 -2.3260440155271818 1.8061513488151528 0 0 0
7012 1 105.96740963405121 -2.044773423369353 0.9549228784800974 0 1 0
1935 1 111.05952257567367 -2.0238562808588587 2.043579109560434 0 0 -1
573 1 113.37441435801817 -1.1795963859325167 3.089282609729653 0 0 0
607 1 115.32235396584437 -0.8381143443650059 1.0292109923782138 0 0 0
5916 1 120.63696268730854 -2.4769608629840163 0.664123786443218 0 1 2
2347 1 116.17535314286788 -2.9266190706484774 5.91456406870679 0 0 0
1476 1 126.56530398533056 -0.8857832429354158 1.0755271257682268 0 0 0
2365 1 132.1604726710319 -1.4678020496877164 1.883614292885594 0 0 0
1898 1 3.2220694718614107 -0.41285971373606944 0.14570822147998352 0 0 1
1035 1 5.200686619902575 0.30559229110341635 1.7760642078079902 0 0 0
902 1 7.77244844737678 0.7856320051999148 0.35160601484704956 0 0 0
6894 1 9.607684174766321 1.4405396352069468 2.474878876116261 0 1 -1
1346 1 12.025376808033625 2.4167230288469064 1.2076633932943412 0 0 0
955 1 15.890508335269146 0.4486290349844375 2.1920257292512515 0 0 0
1021 1 21.867101349613794 0.45092114389594373 1.830661379580977 0 0 -1
1717 1 24.28193042561435 0.43525164924201265 3.0073478319128064 0 0 0
489 1 26.357257923053602 0.16369830337282654 0.8800487923970015 0 0 0
1639 1 29.180680715041127 0.18166704152212354 1.4180926887317293 0 0 1
688 1 33.653852160555 0.2229777829026851 0.8864656545317472 0 0 0
964 1 43.40308394123302 0.0758733227326851 2.6270524420069417 0 0 -1
6903 1 48.281416047347065 -0.30058522720059955 2.6189346203035146 0 1 0
6280 1 48.118968722912896 2.0653296611450047 1.0598893416870825 0 1 1
5096 1 52.21323921542376 -1.3832401822687466 1.7592010302978422 0 1 0
285 1 54.24768406367374 0.536260508251182 1.26935543038907 0 0 -1
5588 1 58.112483255010936 -1.0974118636181833 0.19662728244612132 0 1 0
5697 1 59.47588254742969 0.9491356100371489 1.565752737147135 0 1 0
1691 1 65.1483770689 0.04954502179772202 1.6278437153509222 0 0 0
6637 1 69.87317037127012 -0.34471359345023744 0.9831998408820328 0 1 0
6721 1 73.6847777352602 -1.0708644405212993 0.9771600955623281 0 1 0
1212 1 73.56743335170114 1.3364232895847792 2.2153067526710215 0 0 0
1690 1 79.45702123620204 0.7366863546354434 1.4374895138101003 0 0 0
824 1 85.29303009340029 0.5385056510166368 1.0232220104605192 0 0 -1
2115 1 91.44567938246496 1.0634763862833534 1.2408552375436432 0 0 0
168 1 90.00431217434796 -0.8905709672503193 2.5569604517798488 0 0 -1
795 1 93.12508534936933 -0.4834500148876333 5.790331060338707 0 0 0
1561 1 98.14456079074535 1.2911765857844664 1.7433324168075284 0 0 0
2363 1 99.80496252100393 -0.4604217824602781 0.48788161613020287 0 0 1
1866 1 102.80300875886472 2.6048787920009913 6.000445822626968 0 0 -2
1244 1 102.92560098291673 -0.7963587717864029 3.026716196919147 0 0 -1
1146 1 105.55664776850347 0.36121580674895126 2.2509636109871907 0 0 1
2017 1 109.92681513553812 2.0286982195043572 1.379413000883403 0 0 -2
467 1 107.964323574205 1.1066703212533548 3.187547520432955 0 0 -1
368 1 117.52592789455285 0.5870832427192756 1.8484610872222103 0 0 0
867 1 122.21132047186111 0.25192297874974434 2.1475759920726145 0 0 -1
2179 1 121.54865158573001 2.683117983153622 3.5338782325497746 0 0 1
1219 1 124.40933287830173 0.6380293320338017 0.19831940899791906 0 0 0
2348 1 128.2180632143185 0.03317185626007957 2.8719380100849268 0 0 -1
2264 1 130.17924317878848 0.3343672754150999 0.8504947698901425 0 0 0
723 1 -2.339258956845112 2.810274341975461 0.08697531513359058 0 0 1
881 1 -0.3348542435473436 3.6321602004584985 1.9965695281563063 0 0 1
216 1 5.110522990941041 4.9609584398772775 2.5277609088903032 0 0 -1
819 1 3.440776120825954 4.406080603919208 0.19284052060942752 0 0 -1
635 1 11.485638331289277 5.140362923120538 0.5867357832047312 0 0 0
370 1 16.970009054152833 2.8259450035757014 0.607119659943028 0 0 0
1183 1 17.232482756656168 4.5528074733440995 2.6607088701694392 0 0 -1
1727 1 21.50988526656041 3.154212331148644 1.2215237722156365 0 0 -1
2376 1 24.053212186075847 3.980392640914424 0.07610270724770665 0 0 1
961 1 29.768201070435957 2.6836180313710685 2.4860290445522644 0 0 1
1907 1 30.199975991799093 4.860118239367191 1.1656268086631307 0 0 1
1007 1 32.80259743844794 4.7429281532642555 5.968965212789033 0 0 -1
1801 1 35.07843635538872 4.2300394479573535 1.0585932711054282 0 0 0
1069 1 39.391349794386706 3.152581304744201 0.9607282723302424 0 0 2
2272 1 41.606528673241144 2.988860857910548 5.474925674171203 0 0 -1
2340 1 43.448227651708784 2.3806868800551486 1.0713139471284738 0 0 -1
1791 1 43.89127082749983 4.973803770276264 2.2473512635350725 0 0 -2
1862 1 48.26644509103095 4.141901180765452 2.557825630464639 0 0 -2
2168 1 53.97863381028747 4.955481899388063 2.1571143366818863 0 0 0
1923 1 53.5730622949214 2.789789056940915 0.19111561576827002 0 0 0
5543 1 58.58834055280495 3.1600074546828703 2.644945409479261 0 1 0
388 1 58.865460040805615 5.004040488216596 0.2926106119732906 0 0 0
559 1 63.882341096810435 2.3693348566314816 0.7371618428626575 0 0 1
2011 1 64.1314860327846 4.237002322791751 2.3385945295636263 0 0 0
2014 1 69.16322574906181 1.9627412747616235 1.939311641264402 0 0 -1
1963 1 69.74960501112008 4.265611354135738 0.4457149020359076 0 0 0
1354 1 73.86650590129994 3.5710856067339005 0.7721089186891784 0 0 0
1435 1 77.86401918076993 2.9004398179149113 1.5213349895604107 0 0 0
518 1 78.81884407914967 5.237388386600351 2.542674359748419 0 0 0
8 1 82.87039247300588 4.312005365480651 2.3734674036717474 0 0 0
784 1 83.46068728761145 2.3935236830696693 0.3524916572174397 0 0 1
1890 1 88.30019869984235 4.135776351293748 0.9547597127889029 0 0 1
1202 1 86.91626352117811 2.0990713966079824 2.635763154649846 0 0 -1
582 1 89.85499555895838 2.500275950187646 5.594441716783409 0 0 -1
2015 1 94.49954824433514 4.2398338337275785 1.1811390573712564 0 0 -1
1750 1 96.17584762138652 2.514477113830285 6.076067688844081 0 0 -1
1550 1 101.5311553794295 3.780053440922794 1.7891603267466283 0 0 0
934 1 105.7783083001308 4.667635114900845 2.1892021061638616 0 0 -2
2121 1 110.71820744375742 5.880375852629982 3.1112666577235917 0 0 -1
2249 1 112.23712336213748 3.588757431718972 2.2240915219357955 0 0 -1
680 1 115.96886375283601 5.912554661612184 1.0366461579925867 0 0 0
1239 1 120.03490606293133 3.832530519125674 1.5788623920540508 0 0 -1
1417 1 117.81632054611171 4.877272147851981 2.6637460387956655 0 0 -1
330 1 125.73361817818261 4.6080573324586265 1.4841197822002603 0 0 -1
555 1 123.88549168358267 4.231524078380768 3.686904580022617 0 0 1
558 1 128.0497549269203 5.053417931139322 2.9447529550522065 0 0 0
1695 1 130.5536468055188 4.806467475669519 1.1069411665962128 0 0 0
138 1 132.89909523276336 4.403342890943229 2.510871104961422 0 0 0
1589 1 -2.494676249678021 8.056700854448348 5.558141844976236 0 0 -2
1511 1 1.1003976877616015 5.7531018598240244 1.1363960407328704 0 0 -1
48 1 7.368734637267295 6.47781868142161 1.4583200082242618 0 0 -1
794 1 12.180940761739999 9.04267969097204 1.733898373900336 0 0 -1
759 1 14.492382415449754 8.049501016698153 0.6039672941663726 0 0 0
1728 1 16.768813594058074 7.266518795576088 1.935929888238547 0 0 -1
653 1 21.646084468151148 8.128401158808739 2.414978605690968 0 0 -1
156 1 22.935161183754737 6.8984967698779 0.1680442108649163 0 0 0
1820 1 26.080938560980496 4.711473810736491 1.6586932416630067 0 0 1
976 1 26.295753047679916 7.281884528973908 2.830561396855853 0 0 0
1041 1 39.74705689831654 7.9713581881308855 1.2583727704879675 0 0 -1
1562 1 44.206534595561294 7.22601783162119 0.9311371017694325 0 0 0
552 1 48.50661404912598 5.8102956113781765 0.4568803476197698 0 0 0
1119 1 50.1809401295748 7.689052253562664 1.2303486128521446 0 0 -2
1548 1 55.38674904660034 7.092200444210539 1.02434393884369 0 0 -2
951 1 59.86131221164731 7.076672104459215 2.1048318651849485 0 0 0
890 1 65.97256660255944 5.990043815133792 0.9547039859311297 0 0 0
838 1 69.91243946021814 6.554251041264967 1.9845390923766986 0 0 -1
1928 1 74.2235035424636 5.901276925400632 2.0971266573994973 0 0 0
1003 1 79.20989383858674 7.535142074786309 0.9109180791024546 0 0 0
62 1 83.71689437114273 6.524520662996748 0.8166807380240374 0 0 -1
2214 1 86.25031279194754 5.242587212603736 5.531219431224123 0 0 0
295 1 90.53392563215071 6.960477140305716 1.0158666713586717 0 0 0
2261 1 92.74935609838555 5.916623896935933 0.06679980467943203 0 0 0
1967 1 97.10009584503729 7.54594220169 1.575004989022812 0 0 0
283 1 101.20808609742363 6.4665435673356075 0.7577485494890842 0 0 0
859 1 105.46012958690395 6.947441514612793 0.857351059850114 0 0 0
184 1 110.20507858662664 7.669394080508862 0.9921184343977805 0 0 0
1093 1 115.37018685194019 8.387588481645281 2.113546709855935 0 0 -1
381 1 119.92524610907587 8.868590662478523 1.8446458810844175 0 0 0
272 1 121.8375321153368 8.965074602390532 3.70519262954901 0 0 0
1382 1 128.35716651521673 7.556258916822184 3.7729611501654623 0 0 1
2166 1 129.25006636247457 8.840083768666599 1.5650028392313822 0 0 1
1195 1 134.49511581412813 6.522688874305281 3.3786176068560176 0 0 0
9454 1 -2.08000423805579 11.234427950304536 2.1311104240174927 1 0 0
8770 1 -0.6844380352145754 10.160107740819893 0.01694102556787616 1 0 0
8505 1 2.0031067840079952 9.798676071122783 1.0999950892342958 1 0 -1
1171 1 4.244475857055494 9.19770689689917 5.526747773027489 0 0 -3
431 1 6.677067284480584 9.031731095312317 0.4358784289409122 0 0 -2
657 1 10.8380637435128 10.40715175034695 5.859026428803288 0 0 -1
571 1 17.983452299193853 11.37345499252201 2.7514762746660857 0 0 0
1595 1 20.017484916535018 10.006650869586673 1.4853241834163853 0 0 -1
1539 1 26.1467130492924 9.454456954169624 0.9021205576168022 0 0 -1
669 1 31.000649822544588 9.22069674511558 1.2988435178149909 0 0 1
708 1 33.26379375283206 9.256200239737234 5.834256142530467 0 0 0
1357 1 35.64745190603604 8.845355318458546 1.2876841033225048 0 0 0
1434 1 36.14061480645838 11.188563930101393 2.687740048993955 0 0 1
347 1 44.69996172025287 9.32374749826883 2.624900561026157 0 0 -3
1009 1 51.84276099807738 8.455844820017925 5.293194327455959 0 0 -3
851 1 54.339646128031376 9.5222581287973 -0.030034735988946855 0 0 -1
596 1 60.513277598907976 9.15459469561926 0.1421933829055792 0 0 0
2064 1 61.726348144916116 11.55217981692289 1.3638004052880397 0 0 -2
182 1 65.12087316172114 8.515174781232057 0.10389257920873796 0 0 -1
980 1 66.01659047896155 10.434793640028701 2.0320123914164454 0 0 -1
5 1 69.97296299647061 9.013527597024432 1.0329218432340823 0 0 0
375 1 70.68056986382068 10.842638547567935 2.9520556718232105 0 0 0
2239 1 74.45754738509082 8.215822315515286 0.5602621293527446 0 0 0
1120 1 75.33213144696776 10.317842542381042 2.4083860773009707 0 0 0
1133 1 79.67301708751161 9.762116953959973 2.5401999201217005 0 0 -1
872 1 88.72366191598 9.000346828427602 5.998035606528504 0 0 0
1042 1 86.77071209317691 10.095436928752726 1.9373638584965667 0 0 0
169 1 94.86256854986593 8.75986303498916 0.659097458221825 0 0 0
1530 1 92.33456617038307 9.023659962806015 2.443310908230797 0 0 0
1547 1 100.77628024847168 8.730208259452237 1.994960161113172 0 0 1
220 1 100.12904358584562 10.737663710468771 0.19089195909862344 0 0 1
1324 1 105.26018632223268 9.168416270361956 2.5590767414744913 0 0 0
1189 1 105.2720436915855 11.392447894653253 0.8101177609707915 0 0 -1
581 1 109.40294243960906 9.901624107098508 2.1358761143732394 0 0 0
392 1 112.00594987659196 11.158640002306875 3.2339859614443665 0 0 0
1090 1 124.28509342324527 9.107864942156038 2.569874454286637 0 0 1
1366 1 123.53758129556884 11.487881630061365 1.3462178285969655 0 0 -1
1199 1 126.14890996678497 12.043334622250738 1.3449637462891038 0 0 0
228 1 131.20970393896494 10.015826431855237 3.0095287658219223 0 0 -1
98 1 133.05585190977666 11.280528949568861 1.4473789214885542 0 0 1
900 1 12.68684748411231 -2.584732315932431 2.559643523767838 0 0 -1
673 1 2.9121983828162863 13.545450758354274 0.5383230432526658 0 0 -2
142 1 4.9327667772486095 14.191546694071803 1.6799569492152093 0 0 -2
1859 1 6.766581706297236 14.628676211115412 -0.07406995528096694 0 0 0
1529 1 10.12730104345444 12.27111447084086 1.5770074952064634 0 0 0
1654 1 9.688596411894736 14.700986335081758 0.3967157903697508 0 0 -1
1255 1 14.376886776967872 14.257240754722275 0.7395278577275272 0 0 -1
305 1 16.36059543968432 12.227713861415692 0.3260335843360162 0 0 0
796 1 23.056207787906494 12.936112672998867 0.417238097007258 0 0 -1
1759 1 24.320985931394787 12.270506393978213 2.675873730937752 0 0 0
2052 1 31.358701709349297 13.508021853606461 1.4430316523782485 0 0 1
21 1 31.337330410788937 11.28955179234776 2.817819754828986 0 0 0
2066 1 36.18000693200475 13.604241862663304 1.206101937357597 0 0 1
89 1 40.66109718810181 12.844207907256415 1.283685501028237 0 0 0
793 1 44.66696585962364 11.62402164960637 1.2645897290033443 0 0 -1
1851 1 42.686833619816184 12.51690928997023 5.530474446809098 0 0 -2
1673 1 48.65437178495086 12.231010196233152 0.758593436183933 0 0 1
1125 1 53.366688071402976 13.539991927522514 1.1523904646468859 0 0 0
1537 1 50.911428852476185 13.045463151149349 5.789243536539043 0 0 -2
422 1 55.832221485621815 13.412475989748344 5.924488676914686 0 0 -2
992 1 58.101381676010334 13.765374854268948 1.0889554545218139 0 0 0
771 1 62.206816823205486 14.012547886448658 0.3235857950964866 0 0 1
2104 1 66.60961527793721 12.977998579383396 1.1606504046850632 0 0 1
897 1 71.06074271299633 12.782628646618221 1.2154560558580931 0 0 -1
1184 1 75.97586547955781 12.407174644465922 0.9679661643418191 0 0 -1
1604 1 80.39650691521042 11.733952624460004 1.0180294272636892 0 0 0
2369 1 79.97200421723444 14.115866938115115 2.2564638464446025 0 0 0
191 1 84.72904579637435 14.218879739864938 2.2379073122447433 0 0 1
1829 1 85.03773627214706 12.026146028883772 0.6153564415885531 0 0 1
833 1 89.80381182641689 13.174636887653058 1.299102533498182 0 0 0
2364 1 92.26349486147718 13.276016412206953 2.1815920939297437 0 0 -1
1178 1 96.19210320759042 10.87843853485329 0.42044538838506323 0 0 0
12 1 97.74022140024631 12.096842583803271 2.4193141069788187 0 0 0
1586 1 99.94811264589876 13.300040238041898 0.8084998509320918 0 0 -1
258 1 104.88976589407893 13.621538210191972 2.164628074536028 0 0 0
280 1 107.26231084049823 14.752478307314181 3.2413285031575643 0 0 -2
632 1 113.50693922976045 12.381692339959315 1.3844591523204384 0 0 1
1240 1 114.37243702500803 14.83146925714686 2.4393472718826845 0 0 1
1134 1 119.39687162783655 13.635027627389011 1.4438749150353507 0 0 0
749 1 116.90938574679657 13.61084211445571 2.8281752827659004 0 0 -1
275 1 121.60574015479831 12.899089840593273 2.87000966568842 0 0 -1
1636 1 128.23604123620729 13.268936004230063 2.9533335978479744 0 0 0
2379 1 130.10246827835172 14.591830703250793 1.4901795857109408 0 0 2
2002 1 1.4483393240598348 15.96576295941761 -0.06549299655695125 0 0 0
7891 1 0.59637427084746 17.517613084742607 2.365506077119548 1 0 0
1291 1 10.476818864208052 16.61347730867329 2.068271022081267 0 0 -2
423 1 13.457569969680346 16.189388549924253 5.064671213829731 0 0 0
684 1 16.665055220492565 15.303342341595148 1.8846941816809881 0 0 -1
1540 1 17.444053652445312 17.042775073789706 5.970238733939304 0 0 -1
1552 1 21.472417407962016 14.989441693464283 1.1352555172893795 0 0 0
1043 1 27.11007499880707 14.54387766136113 0.8266335199815215 0 0 0
1720 1 31.646902661684848 15.931341032611392 2.71664468409678 0 0 1
1052 1 36.029119887398615 15.887425224954661 2.754450402552554 0 0 0
2319 1 41.385207863253285 17.44106139872166 1.2705462972397974 0 0 0
465 1 47.504094818811375 14.613848219472406 1.9760737123801335 0 0 -1
713 1 46.93219294685625 16.66032681461904 0.30754131592648404 0 0 0
1203 1 53.104460160255854 17.02207189889834 0.7059684953602664 0 0 0
681 1 57.69950695715878 16.00718943148598 2.3973242750841375 0 0 -1
1657 1 62.17174947600593 15.626333951432496 2.674097729785666 0 0 1
171 1 66.41726534883236 15.142131278408097 2.9033465893212735 0 0 0
873 1 67.04471023375552 17.274270308566745 1.0594872099287327 0 0 0
917 1 71.34018769346311 15.164239922631157 2.6026094100734105 0 0 -1
2026 1 71.26026660153298 17.29691288963928 0.8094411981941712 0 0 0
94 1 75.94964676020396 14.796881935010234 2.427607176134556 0 0 -1
103 1 75.42271243231788 16.89295219031953 0.8426781705427651 0 0 0
999 1 80.24829923396052 16.37002719971037 0.8434108866817496 0 0 1
814 1 84.82912727355523 16.331688246292504 0.7775221012179757 0 0 1
860 1 89.51506401247681 17.78256162303387 2.798423851737575 0 0 0
1290 1 89.6196394571127 15.837687849060142 0.5478521236689332 0 0 0
2329 1 94.92380207863118 16.530092634248877 1.1840335191225073 0 0 0
1678 1 93.23384409369687 15.562534061471794 3.328415811347204 0 0 0
797 1 98.01227299198614 17.581058469883263 1.2337011379044989 0 0 -2
2122 1 102.35022236214868 16.651963085669497 1.1507488340539598 0 0 0
1947 1 108.71550541835124 15.951300701707162 1.5239024932707923 0 0 0
1391 1 110.7303744855791 17.14303803115029 3.222291426874029 0 0 -2
805 1 112.50052366327068 18.41501145940095 1.5840903245697366 0 0 0
2293 1 118.60082627392823 17.74390118399933 1.9231793291080783 0 0 -1
40 1 119.50876243705959 16.044804642535563 -0.0004884332495400656 0 0 1
750 1 123.79244142891581 16.610812644431945 1.8289421803291308 0 0 0
1350 1 126.14754963764378 17.118468748149073 2.99660077294504 0 0 0
4972 1 28.99490800461401 -3.2915141429747217 4.595036710081827 0 1 -1
7202 1 132.27411273839868 15.870455555980218 2.6316174992775645 0 0 -1
7662 1 0.4286968717561015 19.72459396608749 0.5922234244183073 1 0 0
592 1 2.854663734329743 19.793639609452985 5.791215854963747 0 0 -2
1746 1 5.141820492792755 18.322315609402548 0.5950304871622629 0 0 0
2058 1 7.032098686094647 19.692877453414987 2.0592866489005055 0 0 -1
2338 1 12.195183531759834 18.181822550937433 0.4806801869110999 0 0 -1
2216 1 13.648987049450096 20.42501976001154 1.4736132666694908 0 0 -1
1080 1 18.260638736402466 19.204910364836646 1.3586045768636446 0 0 1
1149 1 22.46141571818922 17.37251115209466 2.0096600097542248 0 0 0
1170 1 22.875742240467325 19.59167933073829 0.4061466060626698 0 0 0
1296 1 26.970692156796023 18.482448603868104 0.8876898494449192 0 0 -2
1459 1 31.696310044371018 18.077781322139227 1.2543544287678332 0 0 0
1607 1 36.504531648477524 18.011118635979724 1.3236455220219228 0 0 0
317 1 36.43680881371255 20.17282869782384 3.0509085450265934 0 0 0
1545 1 41.273045565917144 19.431796919016914 3.2417707066349104 0 0 -1
2294 1 45.97752460831198 19.94937396506075 2.5169397457671314 0 0 -1
1895 1 48.243808000810205 19.03739956475826 1.2324250932838234 0 0 0
903 1 52.36432214173755 19.27621914210401 2.5075379236944424 0 0 0
530 1 57.74509214705181 18.249863458367162 0.889932276055459 0 0 1
837 1 62.46715129455258 17.95371438756597 1.262058316755406 0 0 1
57 1 62.78265151427824 20.315208094350954 2.468134449307129 0 0 -2
45 1 67.45026520078727 19.373447481408263 2.4881076980618495 0 0 0
100 1 71.81274156063618 19.5607100241638 2.13279817870207 0 0 -1
2339 1 76.09889915940542 19.18735103603003 2.4011201004498384 0 0 -1
896 1 80.28229490397364 18.56613181512438 2.3791243353951863 0 0 0
2024 1 85.0499068527676 18.56745145586257 2.6272507778543353 0 0 0
2091 1 89.92743500045432 20.081430706580726 1.2728006859626337 0 0 1
1501 1 95.49674770160756 19.415922372082285 0.9472120207939032 0 0 0
1066 1 104.10851524766178 17.912594329782685 2.8588945933820304 0 0 -1
606 1 105.86317776251585 19.761155338387194 1.6029768618627422 0 0 0
1917 1 114.51034380022578 19.869270777953787 3.057521034180757 0 0 -1
1480 1 116.44637518787951 19.394337404842037 1.2267213113477449 0 0 0
1870 1 124.41195215540314 20.761617670488988 0.8145715114358552 0 0 0
547 1 127.63352260509686 18.154909555543593 1.0099812672659922 0 0 -1
1970 1 129.55463265784988 19.481360746751104 2.731587395981525 0 0 0
8175 1 131.16205359115497 20.856152709481936 0.9654944581295211 0 0 1
9116 1 -2.4805660787603205 23.659723916829492 5.7455324557783385 1 0 0
745 1 -0.12308855177534683 23.743352551304472 1.0163141004632197 0 0 0
222 1 5.350106223035727 23.76506952044473 1.2039366271644967 0 0 -2
1877 1 2.6614620851968027 23.977510847844343 6.01125520635345 0 0 -1
1258 1 8.882174387140271 21.186838661979326 0.40153739881919354 0 0 1
150 1 13.904944444784011 22.614795585697287 5.532337979174695 0 0 -2
1461 1 18.469681997326845 21.449647360936236 -0.0005802924728773029 0 0 -2
1682 1 18.969738951217675 23.73866461325061 1.6274690418167996 0 0 -1
1010 1 23.77451021084166 21.66743584925165 1.521317493659273 0 0 -1
2228 1 27.743646948912243 20.948776836258606 2.2589325480240467 0 0 -1
1768 1 32.1287708889839 20.521692800091078 2.1709493158943904 0 0 -1
256 1 32.31097951440773 22.829510626581158 0.7192042089451649 0 0 1
250 1 34.56510556530746 22.646443022824045 5.7234612967299405 0 0 0
2083 1 36.7466590205426 22.154801119583986 1.2431103325229995 0 0 2
1906 1 39.12968064359928 21.668677550099186 -0.01891437390659334 0 0 1
2362 1 44.10884432287851 20.80939187128232 0.5332748703160295 0 0 -1
129 1 41.41090860052786 21.52732451764821 1.4635637537074015 0 0 -1
1356 1 51.87668857503322 21.187494924636272 0.727431954103203 0 0 -1
818 1 50.45552100392758 23.360795116035916 2.2234402123220374 0 0 -1
1135 1 57.07007189714557 20.369790339972887 2.3025050889300136 0 0 1
1922 1 56.6051493177818 22.664537506532902 0.7762939133526431 0 0 0
659 1 62.6645560779543 22.111383587573663 0.512421997389915 0 0 -1
1437 1 67.56313151956824 21.375163413123843 0.8902769875298715 0 0 1
311 1 67.74873609708159 23.68311402330529 2.3276586108762327 0 0 1
1999 1 72.00212358651692 21.891013989194956 0.4918440315526108 0 0 0
206 1 76.28615240728374 21.377691581646783 0.8627222989874134 0 0 0
1729 1 80.58225054789803 21.21960290394024 1.0072454088129188 0 0 0
942 1 85.18091358402603 20.660446608445074 0.7275120942982993 0 0 0
1930 1 92.12888851775807 24.235876075643574 1.6668516789808234 0 0 0
1661 1 94.04771476376916 23.35916227934884 5.681812753875027 0 0 -1
162 1 98.28171082600677 22.499164003715343 1.8277803530726073 0 0 0
1946 1 99.76377274539703 21.25341789107428 5.9873095661747 0 0 -1
1627 1 102.12571112892466 21.26974877049373 1.896444369711936 0 0 0
1166 1 104.01987831796217 21.12122650679343 5.9602077180796496 0 0 -1
1098 1 107.79007414350498 21.11486830294771 2.9333154045162146 0 0 -1
215 1 109.95934615317614 22.34563205400677 1.6112647309007986 0 0 0
1640 1 112.03588586204866 23.752128458694166 3.201098143428352 0 0 -1
770 1 114.02584483568334 25.023899668228957 1.7907826996930434 0 0 0
719 1 118.13708353326327 23.13618902957425 2.836287824504757 0 0 0
1611 1 126.34933974320862 22.51091029285537 2.323744980525089 0 0 0
762 1 128.27569997771818 24.007185022250315 0.9608597010392428 0 0 1
8801 1 133.18220856801312 22.06548211635197 2.40300920099638 0 0 0
664 1 6.488327686702412 25.979296748543337 2.23638486268869 0 0 -1
1162 1 10.018629140306176 26.177297324366684 5.5107944625701855 0 0 -2
1704 1 13.91831755016987 25.245946419336114 0.4388266504581342 0 0 -1
2336 1 11.41152335900291 25.31961907439985 1.3621774571212382 0 0 -3
1802 1 15.693576672192247 25.910596874226258 2.5926388193080245 0 0 -2
314 1 19.550284148136857 25.34832663392712 5.571261539033152 0 0 -1
72 1 25.63496369417274 23.05793116461792 5.808954894778163 0 0 -1
608 1 28.02563246790839 23.50598234494899 0.8237970410448873 0 0 0
1338 1 28.068638763122173 25.856421698166095 1.8966643615812322 0 0 0
174 1 32.61058831569786 25.22197848525751 2.2572522974457607 0 0 0
744 1 36.9494553278457 24.535549159125132 2.6318740528407925 0 0 -1
13 1 39.192406975237894 26.10190065193516 5.694365712699984 0 0 -1
732 1 41.390918389445645 25.57534697187561 0.9096154857008873 0 0 -1
15 1 46.440134888566114 24.324682571194188 1.196995716413854 0 0 -1
1689 1 48.93793296854033 24.55065297785873 0.17459677056020406 0 0 -1
997 1 50.76871189334039 26.703212447469 5.837158361297547 0 0 -1
194 1 54.91361902799555 26.848694562321285 -0.057026521778792846 0 0 0
2143 1 55.82723945566167 25.132876228297977 1.9475799120036674 0 0 -1
2208 1 61.601623012632544 24.48088203131221 1.8485671347742345 0 0 0
984 1 60.98239501602215 26.36368800293567 5.973813834089068 0 0 0
817 1 67.36358732042002 25.411491138842354 0.08532326166412962 0 0 1
1579 1 71.94608611586789 24.13942731409429 2.068151062688382 0 0 0
1349 1 72.27355030704669 26.551182180245057 1.2293698899406413 0 0 0
1169 1 76.19010006564021 23.721945871987483 2.3076112377118876 0 0 0
343 1 76.46749894470913 25.922540429860184 0.8458815645001156 0 0 0
1814 1 81.03421715541046 23.63240941344592 2.2244480192363203 0 0 0
2124 1 81.07023292553544 26.12440056425338 0.7837388278277071 0 0 0
1522 1 85.63999377920157 24.959279686507827 1.0568884152438918 0 0 0
2224 1 89.96248743460495 25.95840456692171 1.3095536947285833 0 0 0
1275 1 96.46432163978663 24.054010538302215 0.3945414842818808 0 0 0
128 1 95.32788008116898 26.315090495106194 1.8166550557019698 0 0 0
1944 1 102.18657160233114 26.107965491471635 2.4136588853002214 0 0 -1
1495 1 107.64945146728284 25.93813905506671 2.155633544740446 0 0 -1
786 1 113.04259808890124 27.18523124227436 0.37664168670392295 0 0 -1
1154 1 119.89574778297153 24.794266730913268 1.425694349152004 0 0 -1
2048 1 121.71866595576276 25.48237306415629 3.3548830761901702 0 0 0
279 1 124.0982146443253 25.137524888058625 2.0104934018900966 0 0 0
979 1 125.37352463235777 27.275556866000958 0.7354785745470334 0 0 0
287 1 130.05303943671612 25.32836703029486 2.3683735235961123 0 0 1
9452 1 131.9521848156615 27.06904518097497 0.940764768134587 0 0 0
1276 1 -2.680659334701285 27.662661464328384 0.28376274999215106 0 0 -1
369 1 -0.3642161700969542 28.196621508444316 1.6626926108654116 0 0 -1
2325 1 4.013589718510281 29.180413503288598 1.0717006131679776 0 0 0
1038 1 4.332578968881166 27.510638320551276 3.1772809893469707 0 0 0
407 1 7.938696226839335 27.56918317655579 0.589455249454936 0 0 1
448 1 8.843781414016442 29.578477133432145 2.157298533497843 0 0 -2
1959 1 11.32720131802618 29.529963886500738 2.7525646344636225 0 0 0
2315 1 17.05768275996433 28.168488841697016 1.8233938943435404 0 0 0
826 1 15.172179461219024 29.020648164826653 5.910304260204176 0 0 -1
50 1 19.48701345435911 27.750446864222486 0.8192196284321417 0 0 -1
586 1 21.609513936918358 27.526668237704264 2.2729915220764436 0 0 -1
2050 1 24.273914330807823 27.18616519732917 1.3962242920487775 0 0 -2
1281 1 29.992300614798722 26.922995555543107 0.18947314648010938 0 0 1
14 1 32.472279145158176 27.39301562747401 1.016175822073513 0 0 1
192 1 36.89583554991458 26.92135119267362 0.9050589742701297 0 0 0
417 1 37.427151570847975 29.445005134837906 2.35913953615004 0 0 0
1246 1 41.66083396770871 27.78536272781433 2.290871919163233 0 0 0
948 1 46.58930853165943 26.878777787026344 2.6276893245428155 0 0 -1
1546 1 47.00786101930718 28.640524470360702 0.7779145634309541 0 0 0
334 1 51.7795870177135 27.70373784173023 2.2541696463172527 0 0 -1
2006 1 54.248850534001186 28.923893189172425 1.7494456825349767 0 0 -1
2103 1 58.99929348266756 28.27583684674814 0.6288550739256621 0 0 0
640 1 65.26553174057447 27.154820699650553 1.093214371024225 0 0 1
2038 1 65.46400022407192 29.76433719656209 2.166992108476822 0 0 0
1105 1 71.71483398530142 28.904649043164113 2.609782423032939 0 0 0
1975 1 76.26781026792723 28.21402131706011 2.634155771620242 0 0 0
91 1 80.69073495949394 28.581658842602096 2.364012085252986 0 0 0
2206 1 85.73197117219397 27.087298154913277 2.2654418566934043 0 0 0
1960 1 85.87319630067644 28.758359175053243 0.013046270554120179 0 0 0
1849 1 90.61615698894371 28.12187130082312 -0.024815147896673773 0 0 -1
1519 1 94.48901929679384 28.902201563346743 0.6088343954822609 0 0 0
1836 1 93.04138729357987 30.216216272399805 2.645058792485275 0 0 -1
998 1 99.67107433906602 26.98957293117227 1.2674505019181643 0 0 0
463 1 105.98914181185008 27.861862180606003 1.1770355504556733 0 0 0
1380 1 104.65393005825347 29.407135769299934 3.2356819441170512 0 0 -1
717 1 109.94989737437385 30.20454815744182 1.0687938580769702 0 0 0
1045 1 111.76270667301604 28.40388109390164 2.3386679183137726 0 0 0
1554 1 113.09525844631455 30.521158302132655 3.5739491382968955 0 0 -1
1584 1 116.36207605155556 30.276933906582777 0.8479115542123427 0 0 -1