LAMMPS data file via write_data, version 29 Oct 2020, timestep = 100769

14434 atoms
1 atom types

-3.5934181970221175 273.5934181970201 xlo xhi
-3.5934181970221175 273.5934181970201 ylo yhi
-0.07985373771162196 6.079853737711614 zlo zhi

Masses

1 18.015

Atoms # atomic

7518 1 -0.9768301003606386 -1.6831071025061968 5.658591001440437 1 0 0
8208 1 1.6697040347771122 -0.8455388272921698 0.6498136648893738 1 0 0
6144 1 79.56244591899684 -3.5335764780400556 4.63233680320633 0 1 0
1407 1 134.78989324414349 73.36332666634084 0.17588213183544604 0 0 0
993 1 5.893287685407943 -1.9659122243540286 2.6845316253966245 0 0 0
900 1 12.177503598162376 -2.4048432418529018 2.068197528493418 0 0 -1
2225 1 18.42976396844215 -2.309913956960429 1.9255045110885463 0 0 1
95 1 20.148886108477814 -0.7837963450727021 0.3461001802885481 0 0 1
1272 1 32.151910651889814 -1.836359491676745 2.19095081820223 0 0 0
1968 1 36.965999977300065 -2.919438836669838 2.4011397269109045 0 0 0
2053 1 41.916934201050246 -1.61999839748225 0.5275711342460656 0 0 1
1164 1 46.71163605004505 -2.5669021942317656 0.46197653175933506 0 0 -1
5096 1 50.756254988918556 -0.9591698891107927 1.4226788576421283 0 1 0
9116 1 -3.090822711783771 23.333710603940705 5.949872373421794 1 0 0
5133 1 57.0044830088105 -2.2339628824646147 1.7353936254440374 0 1 0
6742 1 62.29751350781626 -3.0643883943081285 0.5513462255822155 0 1 0
310 1 62.53053602640048 -1.1229292725442912 2.367058412094928 0 0 0
7340 1 -3.2213055056229933 -2.705571741831894 1.022601923818295 1 0 0
5018 1 68.1620677951845 -1.8522846044673789 2.655139460279743 0 1 0
9240 1 -3.1877331979528796 60.406579696123025 4.66198935488141 1 0 -1
6967 1 76.42558747071975 -2.427079491509987 1.6063438228413878 0 1 0
909 1 110.13911546939497 86.40392740924295 0.3170546005532148 0 0 1
921 1 81.70008680151784 -2.5180919657522214 -0.0008941465852198849 0 0 0
1929 1 86.68048882029245 -1.7425141368809063 1.456814633336642 0 0 0
8341 1 134.81179421708723 51.46324086591125 4.7382509519021525 0 0 -1
9045 1 134.736624422631 35.01782721699486 4.237374811663738 0 0 0
5708 1 93.41595053024557 -2.3657165323753184 1.5631927681443019 0 1 -1
366 1 99.64230256804424 -3.0006075858849766 1.711527348874538 0 0 0
1950 1 103.40907229062623 -1.5255177297239113 1.2129906223481977 0 0 0
7012 1 105.92007374410967 -0.8098309469293659 1.9760030920404992 0 1 0
5509 1 107.64036485060919 -3.150973251900374 2.432175373298334 0 1 0
5916 1 120.3278259739713 -1.6822495527432266 1.6311370454718912 0 1 1
5775 1 125.56613095289975 -2.477401194651497 0.7957381376941799 0 1 0
2365 1 132.34853963009468 -0.7979258343648286 2.582770342774305 0 0 0
536 1 133.8894711397053 -1.9139046891711717 0.3028663232075553 0 0 0
1035 1 5.67461211978196 0.4460114092732157 1.366747747082603 0 0 0
902 1 8.028809542849611 0.6066356719437715 0.01943400548040322 0 0 0
6894 1 9.385990837258198 1.423367408955019 2.3019025828457034 0 1 -1
1351 1 13.820748414575633 -0.8379443754399181 0.49603901016242546 0 0 1
955 1 15.472671861154979 0.9863525616764628 1.6936238263711851 0 0 0
1021 1 21.078058400124693 0.7225115762839192 2.353227596892571 0 0 -1
489 1 25.89249869721054 0.17079878046018449 0.6482703194550272 0 0 0
1639 1 28.598677139985853 0.4340204825828984 1.2005934813577324 0 0 1
611 1 30.78612056868603 0.3635598117326291 5.592037061198509 0 0 -1
688 1 33.28050331099118 -0.058208180619889305 0.6740638204295173 0 0 0
561 1 33.758668899508436 2.1193519281583466 2.078633662057867 0 0 -1
464 1 37.80146958081296 -1.2254916455402127 0.4355617239248364 0 0 -1
548 1 38.047886464343534 0.9788739322148681 1.910610152118022 0 0 2
964 1 42.50625655838753 0.2164005914545748 2.191304168755388 0 0 -1
6903 1 47.18142102662344 -0.18593473956328532 2.0209862478407405 0 1 0
6280 1 47.2526959261786 2.135467457081938 0.46074273690060286 0 1 1
743 1 49.32806506312285 0.10252675082333607 3.5968472535983493 0 0 -1
285 1 52.861463945710945 0.6733933094807973 0.6550488371429491 0 0 -1
5137 1 54.502217785143486 1.9911347566775381 2.569729367976961 0 1 -2
5697 1 58.6980666820753 1.2248928715951646 0.979569787332919 0 1 0
1902 1 60.24772001282436 0.31130471244388946 3.0275667069309398 0 0 -1
1691 1 63.74644287591789 1.278895075754935 1.566163352535371 0 0 0
6298 1 65.1130463622077 0.4454529390541939 5.574001698609974 0 1 -1
6637 1 67.54566154745602 0.22643868108523924 0.6896235888521777 0 1 0
6721 1 72.41470624870034 0.3867646186156555 0.9721177228817575 0 1 0
1690 1 78.32142592800949 1.7748146373150995 0.8990544073560989 0 0 0
5601 1 82.079668295477 -0.4564989260152381 2.0346112380005303 0 1 -1
824 1 83.82428127396783 1.6671034374882145 1.38524878418495 0 0 -1
168 1 88.9016850996547 -0.5294936290341763 2.6825515780838995 0 0 -1
2115 1 90.59900277106442 1.2574061684252857 1.4085956227190606 0 0 0
1378 1 94.9841835876751 -0.8192890251148666 3.1073416520444974 0 0 0
1561 1 96.72784288534956 0.28113877950381916 1.5864985510679996 0 0 0
765 1 98.49293613646896 1.9520629836258099 3.3001573889105007 0 0 0
934 1 102.93677738366806 0.6543612211620671 4.158868952806195 0 0 -1
467 1 108.1907383994694 2.6506639441647053 0.537412553206098 0 0 0
1985 1 112.79414335832365 0.9880484365049327 5.87671181345223 0 0 -1
2266 1 110.69220949695402 1.9586659775259108 1.539905267501511 0 0 -1
607 1 114.8463801143788 -0.3850279895402582 1.2557125978752208 0 0 0
1204 1 118.49917863880616 2.766030788416132 0.5530459972505571 0 0 1
368 1 117.1499607845137 0.9916781354995372 2.250536515210579 0 0 0
6223 1 120.04889554006874 0.2311224235729834 5.65927318469682 0 1 0
2275 1 124.12258978984553 -0.22296057587635643 1.5661864892661714 0 0 0
238 1 125.44828959630169 1.9875054695997463 2.610330863927395 0 0 0
2264 1 129.68492930415778 -0.12269569642720857 1.6140999662943842 0 0 0
1931 1 130.73556229732887 2.1580783786459143 0.3559838690940471 0 0 1
881 1 -0.04686090219975192 3.506116320353562 1.5424383210886956 0 0 1
216 1 5.2928641229042075 5.12418075921128 1.5278136012221624 0 0 -1
635 1 11.406507598401513 5.152074313830278 0.13520012078978794 0 0 0
1346 1 11.689782979920889 2.7251450932693198 1.3476608118859177 0 0 0
370 1 16.36093411647316 3.374906925865769 0.5225723278845577 0 0 0
1183 1 16.424065484992983 5.393956204769157 2.4728800107802 0 0 -1
1727 1 20.57632446863471 3.2691320659069865 1.235242992356785 0 0 -1
2376 1 23.29055743669547 3.5623685659496296 0.04781036601154462 0 0 1
1907 1 29.52615175894696 4.605818148693135 0.9799492283802715 0 0 1
1801 1 34.32303151582869 4.271589280557636 0.6110099785228023 0 0 0
1069 1 38.76560186979744 3.493530482114391 1.0212648461491676 0 0 2
2272 1 40.842000053331105 2.945237672686673 5.201451445145077 0 0 -1
2340 1 42.963585111630444 2.4942115412043817 0.5087397037611856 0 0 -1
1791 1 43.559371330517095 4.745703271322801 1.7560342553393256 0 0 -2
1862 1 47.30028944450596 4.842660124187088 1.3237560228646506 0 0 -2
2168 1 51.32853927482606 4.756211876808477 1.991273678400276 0 0 0
5543 1 56.720331996196684 3.1151219527446044 1.7271960237519275 0 1 0
388 1 56.43684810711882 5.419488159343679 5.8958677264103585 0 0 -1
559 1 62.34826758127248 3.2787443186706913 0.07116844357906815 0 0 1
1963 1 68.56611003084575 4.582560761515502 1.5000593605990507 0 0 0
2014 1 67.9864321211782 2.2735236464397994 2.666818170584753 0 0 -1
1212 1 71.85539889667928 2.8279541220451287 2.1323966171611164 0 0 0
1435 1 76.25846928813984 3.463253591449864 1.844590982295247 0 0 0
784 1 82.19149645304078 3.39585984468491 5.873703963777711 0 0 0
1202 1 85.6973585113536 2.9699351779678924 3.0085248344982154 0 0 -1
1890 1 87.49933480242557 4.599917263545677 1.7764853285828108 0 0 1
2015 1 94.56582780659853 3.7090116910057063 2.256520413036886 0 0 -1
1550 1 100.31314460850912 1.8013367749270728 1.0635563294637425 0 0 0
443 1 104.03725272046796 3.983010846928808 5.257775705097179 0 0 0
1793 1 103.38238781594615 6.3493731896417955 0.4311100234170896 0 0 0
212 1 105.41477628216869 2.830833970849511 1.2402979932287217 0 0 1
2099 1 113.69744033436493 5.102495922557841 0.42287787151920875 0 0 -1
680 1 115.67664817282974 6.085584065499978 1.7479903805188117 0 0 0
1239 1 119.86213813906168 4.767817430835439 1.913881332333299 0 0 -1
2096 1 125.27469360502275 4.0556268226120595 0.726407350978173 0 0 0
330 1 124.53986968490653 6.299596905180119 2.244828695519553 0 0 -1
1695 1 130.82778593124365 3.91971144193084 2.298967647127427 0 0 0
1511 1 0.9208099982041986 5.52007814503235 0.35403254729673783 0 0 -1
9404 1 1.3823057059915946 7.1755765995156615 2.468510306628954 1 0 1
48 1 7.4546857926806425 6.465961244496388 0.7066236364086688 0 0 -1
348 1 11.674669891445182 6.897080210537309 2.282958718962981 0 0 -1
1728 1 16.328022432882694 7.695218859652831 0.9005834646702756 0 0 -1
1820 1 25.285817972470173 5.135492480341975 1.7634925115752913 0 0 1
976 1 25.852349210850537 7.614074104432456 2.496509899886728 0 0 0
1810 1 34.76024962161694 6.3858144255221045 2.176539823172788 0 0 -1
1367 1 39.24415439292743 5.945946081104202 2.311393623980548 0 0 -1
1041 1 39.493814454010064 8.043462183614617 0.44266152308840845 0 0 -1
203 1 43.91317446281614 7.253183313822921 0.19690333963502243 0 0 0
1009 1 50.03336620080261 8.75822600341728 0.7739845255307641 0 0 -2
1548 1 52.38757669545805 7.37844127639614 1.23124931756783 0 0 -2
1358 1 57.87448137732574 7.482650200041613 0.43021784654191875 0 0 0
951 1 62.11609661980475 5.879817297056208 1.4977465982884954 0 0 0
674 1 66.53270093873957 6.020695667645853 0.3020179499346607 0 0 0
2011 1 63.82135845318486 6.8505364599976275 3.553659584560882 0 0 0
146 1 72.00734857044696 7.244227616371399 2.812984808494204 0 0 0
1354 1 72.56386322503124 5.468135114079354 0.5722711074453063 0 0 0
1880 1 77.24800103595423 7.627062646251181 0.2789418409861886 0 0 0
8 1 81.56078792001534 5.644123083936808 1.1551711076791553 0 0 0
62 1 83.79711566418506 6.64266803339725 2.2646071921109434 0 0 -1
1449 1 88.96009708832315 6.343439686423922 3.0998699959092813 0 0 0
295 1 90.86243117194708 7.901887984307921 1.9132326718983363 0 0 0
2151 1 94.56639181026324 5.884267969103439 0.8641678604516208 0 0 0
169 1 95.08737071522553 7.7094953747204045 3.0829656203868563 0 0 0
273 1 101.1089224609786 5.4078006199018365 1.8210386270310719 0 0 0
859 1 107.70176375250885 7.297278148933838 0.2115239334745418 0 0 1
254 1 105.69742701489574 6.9560386966029455 2.0568166467332807 0 0 1
184 1 110.17031384257128 7.7356375659674885 1.227291281448842 0 0 0
2013 1 111.95813174440826 7.0583059016207805 5.665152286600264 0 0 -1
1093 1 114.6102541073659 8.810836882037965 2.4635203886950165 0 0 -1
164 1 119.85234219901234 7.127142629093319 0.8197530498951286 0 0 0
101 1 123.86020827595895 8.359116358204398 0.39776425142845834 0 0 -1
2166 1 128.69386188958327 8.325900265713479 2.5272589618267123 0 0 1
9248 1 129.7301223739656 6.382482017938386 0.8943246434927524 0 0 1
8770 1 -1.5626074629228026 10.606983006306983 0.5157904929693848 1 0 0
8505 1 0.775023467308734 9.530352987406186 1.662617235257989 1 0 -1
1233 1 4.90019050627016 10.69007622226661 2.0703107112468926 0 0 -1
431 1 6.256935246651226 9.017867586980843 0.04029598798440655 0 0 -2
794 1 11.822644382941798 9.879367120558149 1.8054311288714844 0 0 -1
759 1 13.881076671492647 8.712571039218087 0.012622623446784664 0 0 0
1595 1 19.9909570342173 9.981571196920028 -0.03783965863556223 0 0 -1
653 1 21.305345671333342 8.171464608604769 1.4462338432810942 0 0 -1
1539 1 25.959672871214647 9.406122772985238 0.561573327130981 0 0 -1
669 1 30.725961835014488 9.168651590510976 0.8366860812873503 0 0 1
1357 1 35.15408404717991 8.39012117991357 0.5262645936371229 0 0 0
1434 1 35.67454583643306 10.70376857012501 1.8055929888425575 0 0 1
747 1 39.78500352948203 10.714791514854207 1.4629157525467145 0 0 0
1054 1 44.0323311579027 9.5991391526338 1.2930544439096012 0 0 -1
158 1 46.26683440376839 11.071352528127445 1.8126429143539986 0 0 1
1119 1 48.3232479571351 9.672416064740567 2.9264902097485708 0 0 -2
2201 1 51.02531461983748 11.068809466233114 0.09633721590852634 0 0 -2
1109 1 56.6611240860924 9.29764925255604 2.0887789245217245 0 0 0
596 1 61.224388965225614 8.47605601287284 0.45599488034635305 0 0 0
1657 1 60.21251237259964 10.446731686436685 1.8818544006140345 0 0 0
726 1 66.78677084422812 10.329121335770768 1.7463924694791975 0 0 0
16 1 68.7973661711515 9.967559183776986 5.92641886910916 0 0 -1
5 1 70.80982746805672 9.535073050420529 1.5759098285168938 0 0 0
438 1 72.87371728242165 10.071884671602566 5.8726764304397925 0 0 -1
2239 1 74.73304031082621 10.943442734546746 1.839843455783717 0 0 0
539 1 83.17993409114892 9.36999598993181 3.0932138571034162 0 0 1
872 1 88.85680022282632 9.268931725604057 0.46677763324846955 0 0 1
1042 1 87.2175337376263 10.816040164408463 1.8784269029222522 0 0 0
1178 1 96.14054574418452 9.913119288732302 1.520752400578005 0 0 0
220 1 100.318860756927 9.674006884277967 1.3463910191803619 0 0 1
685 1 102.72276331240812 10.881294714861152 0.07190079873976218 0 0 -1
1189 1 104.98175949370308 11.287585818969692 1.6348759503581667 0 0 -1
453 1 107.48587097215729 11.30245170878451 1.002711858671128 0 0 0
812 1 114.40618544660538 10.55502153850297 0.5234298429275828 0 0 -1
257 1 118.85965235164188 11.779441620977869 0.6725652436532664 0 0 0
381 1 119.20237027537152 9.306902395431875 2.126977850855118 0 0 0
1090 1 123.62876878840838 10.316019241178186 2.1227181015808765 0 0 1
829 1 127.47291692042 10.22232541702092 1.1571227332998353 0 0 -1
1636 1 129.41483703802967 12.16993851686717 1.0316428133798368 0 0 0
98 1 132.71858471406702 9.23269040141036 1.427491411186254 0 0 1
5019 1 21.721780707083617 -3.0029394030000898 5.188453236434661 0 1 -1
673 1 1.8543627863927732 13.693765822136683 1.8451750770093127 0 0 -2
142 1 3.5891343647844787 12.137834784029447 0.33106323476324195 0 0 -2
1529 1 8.062342186870728 12.867677959939623 1.2440824989067893 0 0 0
657 1 9.964364157228939 11.118034872813238 0.002061990241340031 0 0 0
1255 1 14.447438228902037 14.154459631654287 2.0437851497885977 0 0 -1
305 1 16.219080948056167 12.78861955773505 0.1789030601104733 0 0 0
571 1 18.290466918368935 11.407161921277213 1.6167467711613395 0 0 0
796 1 22.87898429669536 13.259096189684808 0.16202650936651994 0 0 -1
1759 1 24.559700767575922 11.467332252882366 1.7277110264725615 0 0 0
1448 1 25.98010877266698 13.182805260257243 3.1869947389008177 0 0 0
21 1 30.94683905801562 11.624106356088907 2.510106846565121 0 0 0
2052 1 31.707585395385543 13.923600469736009 1.1741661305358992 0 0 1
2066 1 36.24404953609138 12.989342535738004 0.3373027918446652 0 0 1
89 1 40.00042615582078 13.029354786347444 0.22494296786914542 0 0 0
1851 1 42.63047732160878 13.628054959484437 0.23337226675337464 0 0 -1
422 1 51.146587839199306 12.791073838017105 2.158153597418359 0 0 -1
1294 1 55.32032283772874 13.35066466036998 1.750888741894225 0 0 0
57 1 59.155964449676574 12.437273604283355 0.6250941904219279 0 0 0
1159 1 57.77988295074984 13.38523169595291 2.612646715938866 0 0 1
771 1 63.45152044637524 12.810379400566191 0.8031214346625138 0 0 0
1972 1 65.16611823709593 11.089442515606754 5.9026012090353 0 0 -1
1363 1 71.58799644811597 14.361135868317003 1.2666302459974887 0 0 0
1184 1 75.74930537203177 13.345465156327702 0.8897798299830267 0 0 -1
2222 1 78.13198149197024 13.426030784807349 5.5603389943991886 0 0 0
1596 1 79.56335205376921 12.836155971607877 1.6197237150264625 0 0 0
372 1 81.80459359943758 11.14710915564902 0.9866000900513505 0 0 0
2155 1 83.4465898529654 13.014789959005196 0.08749689158904564 0 0 1
833 1 90.51441605747739 13.23758365571135 0.9156906044056399 0 0 0
298 1 94.25998332262911 11.794046109262188 0.536888928133596 0 0 -1
2364 1 92.63288762495333 12.82770286849967 2.4904479548285727 0 0 -1
706 1 99.10099235676012 14.206431435084784 0.8332274535278735 0 0 2
1586 1 99.86731816870889 12.117661947560261 2.4548034890866437 0 0 -1
995 1 108.07785024725769 13.638833556093285 0.030083877508444754 0 0 -1
2154 1 110.6764367369351 12.999512782993992 5.956819922351899 0 0 0
632 1 112.71202861937809 12.687944644727342 1.519897538706716 0 0 1
1134 1 118.48693745497893 13.961880649979989 2.2693775001172867 0 0 0
1366 1 122.5904038469892 12.676522385259858 1.1015631652273876 0 0 -1
750 1 124.37205582937705 14.705312026071294 0.038001926407127296 0 0 0
2379 1 129.81312284014865 14.005059850385507 3.0693238364351307 0 0 2
928 1 134.15825416972916 14.671167017826658 1.976898945022194 0 0 1
8166 1 134.56189352407728 13.111099192743733 5.82284169672012 0 0 -1
7891 1 -0.6323814673156987 16.506274835621433 2.4823908353944852 1 0 0
2002 1 -0.08559033001927618 14.86565839401802 0.2722746146652385 0 0 0
1746 1 4.2067893351177466 17.51617152165452 1.0846183624038148 0 0 0
185 1 10.254462782450918 14.711174132603208 2.204919753544879 0 0 0
423 1 12.090097269475454 14.939627762039116 0.3846369703847308 0 0 1
925 1 19.23474398703947 16.221296055594813 6.036815518887694 0 0 -2
1552 1 21.039611992597788 14.839662844946833 1.6652819034311332 0 0 0
1043 1 27.032958179776358 14.49528053460855 1.110549621260037 0 0 0
248 1 28.325695306665327 16.76709904066113 1.9812209276869308 0 0 0
1720 1 32.45579084017591 16.209510752074014 2.5240644571444397 0 0 1
1052 1 36.22415208630413 15.548563764811643 1.615028641244245 0 0 0
106 1 38.66233627015017 17.05454584026657 0.5370133138599599 0 0 1
289 1 43.96819109278986 14.83347910548823 2.6696967674333116 0 0 0
465 1 45.7502874023251 16.78603476688537 1.548324379986604 0 0 -2
1673 1 47.618743943957256 15.36250995729117 6.057853989557169 0 0 0
1537 1 49.80217526265934 15.313509529140052 2.0104667928875166 0 0 -1
1523 1 52.17429725602629 16.525085349865257 1.1017802534736998 0 0 -1
887 1 60.26931522736312 18.12374885101825 0.1397233417088712 0 0 0
2104 1 61.83345237111277 17.141992331085515 1.9514308429349034 0 0 0
980 1 64.20988286522294 15.486635168345476 1.2923390123724747 0 0 0
2211 1 67.57974715101803 16.490237708794115 1.3890577939410453 0 0 1
612 1 69.40160261152825 15.004718053838666 5.917816982470299 0 0 0
917 1 71.97366476781028 16.819959323248842 2.6458191902419426 0 0 -1
94 1 76.28555039200702 15.886842292721006 2.115607747321541 0 0 -1
999 1 81.0210018850376 17.680850083379486 1.1003086209305732 0 0 1
814 1 85.25201907533537 16.7318991887152 1.051297462629647 0 0 1
191 1 84.12983514822082 14.502396475156626 2.2178196724662054 0 0 1
1290 1 89.72274692053627 15.937690889292725 0.3574337437032824 0 0 0
2329 1 95.76876999218761 16.438009780520144 1.5897292254477708 0 0 0
637 1 98.12982886935697 15.63949042744613 2.997249708110269 0 0 -1
2318 1 103.59808607061005 15.29351795569087 1.202245960832568 0 0 1
1738 1 105.55116615553574 16.619502799757427 -0.039144168576928706 0 0 1
1947 1 108.55715514782489 15.628368407397787 2.114846868176247 0 0 0
1454 1 113.6170571879606 16.491693105595086 0.8212359507401 0 0 -1
1467 1 115.57301738666293 17.93207623289245 5.50268806904001 0 0 -1
40 1 118.91325230672398 16.176781815154634 0.9490223611960997 0 0 1
1854 1 121.18357165279065 17.60795506995994 0.22802664153182622 0 0 -1
547 1 128.18124898226344 16.37493021917924 0.9536688517531808 0 0 -1
1350 1 125.53271123228714 16.180590969664465 2.079291756747202 0 0 0
1299 1 130.84479521443436 16.416954095190782 1.5028643879196106 0 0 0
9568 1 134.71811426303964 17.021172568371266 0.3659547098800895 0 0 1
7780 1 134.4956239883197 30.873412828261465 2.857845094958655 0 0 0
7662 1 -0.5770570572542484 18.771514631271028 0.9979755087870203 1 0 0
592 1 1.9989745336168188 18.804830604993928 5.902596676014639 0 0 -2
2058 1 5.656979981400154 19.530941487469345 2.2419045892861207 0 0 -1
1258 1 7.204718956537301 20.24786567060033 0.04597777377574602 0 0 1
2338 1 11.042477293017159 18.92031085033488 1.7808176285722253 0 0 -1
1540 1 17.16730174837596 17.45898165826562 1.1711280549302951 0 0 0
1170 1 22.497491343375252 19.52110996365511 1.9069695071087436 0 0 0
1296 1 24.90223152291013 19.250036325731088 0.46506724915832454 0 0 -1
1735 1 26.428844321550656 18.322624494890864 2.8404642002114846 0 0 1
1768 1 30.306361743516824 19.830812380802033 2.351348364117425 0 0 -1
687 1 32.752747915455465 18.81402253744053 3.22412483149775 0 0 -1
2083 1 34.97087469705691 19.280616970202487 1.6705563854179655 0 0 1
2319 1 39.8567412480019 18.533407676492605 2.8403283408693114 0 0 0
1631 1 42.00044753916942 19.43993025126039 1.134577632409996 0 0 -1
713 1 47.21576686891881 18.542031775633035 2.900521075248942 0 0 -1
1356 1 52.325074070110745 20.044213887486077 1.02798241651209 0 0 -1
903 1 53.05115240221488 18.426181566136663 3.0424799334579418 0 0 0
1819 1 57.859428922054576 17.820989883943803 1.2978900947304146 0 0 -1
302 1 68.01212751162022 21.02586107666217 0.9661566792704408 0 0 -1
2026 1 72.40242491920078 18.8211285649466 0.9484762516133542 0 0 0
103 1 76.65568740672313 18.28496492602119 0.8563433663699641 0 0 0
2339 1 77.30288115102329 20.573227681149653 2.493019507096793 0 0 -1
1348 1 79.03396874316758 18.14246389776106 5.547896651458759 0 0 0
896 1 81.33116762489185 20.0378618492989 2.671691114645432 0 0 0
1157 1 88.01640338225673 21.139963530432414 5.721372209756881 0 0 0
860 1 89.69327666898462 17.73192160407931 2.5435496198363277 0 0 0
2091 1 90.09436141173029 19.900765912823076 0.8586833030165282 0 0 1
97 1 93.9833143345447 20.390861294327216 0.70473264312858 0 0 2
797 1 96.13484294931415 19.031572887534754 0.9044321575384465 0 0 -1
1649 1 102.5945287016205 19.846583984458235 0.41917141336405345 0 0 0
2122 1 102.38199261297976 17.61234385516756 2.3079858704965592 0 0 0
92 1 107.53820773007534 17.917259367831548 0.9854205723174314 0 0 -2
959 1 111.38462643401111 20.35094220825377 0.6055215696569808 0 0 0
805 1 112.03008564170209 18.313247785557245 2.33060491125901 0 0 0
1480 1 116.39468633068363 19.288691764424993 1.5132414907459824 0 0 0
37 1 122.29209456918419 19.25705739696285 1.9773336599560478 0 0 0
1870 1 124.60089557713215 20.803052278025238 1.0822438085603299 0 0 0
762 1 128.58246813174247 20.876948305891084 1.664212885086928 0 0 0
1970 1 127.9749994506511 19.099919821902052 6.055469622088399 0 0 -1
7439 1 134.29917673344548 19.30244385477034 2.191983089053697 0 0 0
745 1 -0.8573368192457145 23.395500810913084 1.470560227034411 0 0 0
222 1 3.778846061654769 23.52792897184776 0.7487681050029247 0 0 -2
259 1 9.690759103094184 21.134981741419484 0.6409864029685356 0 0 -1
150 1 13.5598533035818 22.325805995019724 0.8019770150056715 0 0 -1
70 1 16.468055171940435 21.877970075680803 0.042564976504433055 0 0 -2
1461 1 18.155901448415317 22.381508927789643 2.089490645829592 0 0 -2
1682 1 20.32681280293189 23.225286233729115 0.9233876777164938 0 0 -1
2373 1 20.892435841227055 20.48525496194118 -0.005404458227450476 0 0 -2
1198 1 28.627952753750236 23.540870449830102 0.5162602544619174 0 0 0
256 1 31.350160564111967 22.31024978610558 1.4394986795477425 0 0 1
250 1 35.39877664643421 21.772957428676314 0.6451890063205122 0 0 1
232 1 40.11616300799149 23.290112402224327 2.26671522520441 0 0 0
317 1 40.25101007047685 21.51782577805451 0.01977426603009272 0 0 0
1621 1 44.78860407559519 22.842575886604077 0.707298680962824 0 0 0
129 1 43.51559449871338 21.09380932453902 2.21088547731902 0 0 -1
15 1 46.76991606442094 23.420768549516282 2.3013386964434193 0 0 -1
1136 1 49.026637242693624 22.78795250855233 0.459945653903426 0 0 -1
1895 1 50.736058527984405 21.7942325176442 2.366172302255562 0 0 0
2161 1 55.705051084855846 22.266543179022165 2.153096483685292 0 0 -1
543 1 57.223437304340884 24.156411054170153 1.277631008085002 0 0 0
913 1 59.50247176316744 23.029963985260455 0.08958052387216212 0 0 1
2208 1 61.30895572964947 22.576508549555992 2.1246063267139608 0 0 0
1297 1 63.09346387806664 20.922544854070782 1.0033938787323606 0 0 0
1437 1 65.40929576712294 21.667679238298103 5.589703401149626 0 0 0
311 1 67.75289551317405 23.725447724852962 2.019915886901627 0 0 -1
1999 1 72.23658716186637 22.846683351024662 0.5654120304999907 0 0 0
100 1 72.46802383076763 21.131672339874758 2.6536928424971746 0 0 -1
206 1 76.9864141778347 22.90958076271235 1.0358861582642154 0 0 0
126 1 74.69212154258233 23.105302606563463 5.474997182360644 0 0 -1
1729 1 81.39047424576876 22.291068808493375 1.1686210771958774 0 0 0
229 1 83.69041523444878 21.92552933643531 5.763406313516198 0 0 1
942 1 85.98673131992167 21.27147608201611 0.9589599018410917 0 0 0
886 1 86.38756642526111 23.431645736259902 2.5552956236378574 0 0 0
1501 1 93.35500633120515 22.276190859195246 2.4567384836412502 0 0 0
1627 1 100.28387814271622 21.041815941887403 5.935756638935752 0 0 -1
1946 1 98.53979180861192 22.26372418180282 1.8545588156568777 0 0 0
1166 1 104.44070097185966 21.741823495261354 1.2930322197498845 0 0 0
1306 1 105.12920789686984 23.8982931651266 5.558352528038121 0 0 -1
856 1 109.32987646820733 24.051778887596896 0.1804640783463366 0 0 1
215 1 109.94370576904468 22.053428511080874 2.1185362315859475 0 0 0
1408 1 115.1189097858912 23.130564917033517 5.751686969099168 0 0 -1
2117 1 117.20943846846947 21.62023703312634 0.4667531726299873 0 0 0
735 1 123.4037441300652 23.033752871557304 -0.03636597871040029 0 0 1
965 1 129.08297422673536 23.187336932695366 0.1630018582825002 0 0 1
9109 1 131.73276826464658 21.92862854886296 5.7159827123706215 0 0 -1
8801 1 134.14313228556503 21.96076025383145 0.8385916880048019 0 0 0
1061 1 -0.6568645414673062 25.538887848416817 3.17662791203782 0 0 0
664 1 5.842854982529104 25.369772240041847 1.7287285811605897 0 0 -1
2336 1 11.095687799463798 25.543945630950535 2.0789277581794234 0 0 -3
1704 1 13.674600472100437 24.9719206907794 1.5766494516451537 0 0 -1
314 1 19.278256680301034 25.539828592256956 5.755380914223533 0 0 -1
72 1 24.270388117098555 23.914568166441263 1.6253752391060285 0 0 0
608 1 27.006201553427097 24.162295761516393 2.5658236278925304 0 0 0
1338 1 27.96196896574847 26.367966814724813 3.5287481017194424 0 0 0
744 1 35.77789005935877 23.986880373169605 2.350984079096168 0 0 -1
192 1 36.166266018678535 26.558263314426558 1.2456760353675655 0 0 0
732 1 40.61390722689381 25.701050484482735 0.6622692536852145 0 0 -1
997 1 51.77459113524031 25.86250897522681 2.346650522570948 0 0 0
1833 1 53.38901717122412 26.92918667053637 -0.03956526196966226 0 0 0
984 1 60.982361012781325 27.000241353466706 0.2436270822631375 0 0 1
640 1 65.62771259742051 27.33816081760893 1.158085094578462 0 0 1
172 1 67.13659174609766 25.430577010549314 -0.010136944353077132 0 0 0
1349 1 71.62059032642952 27.004600581093055 -0.013307573283441343 0 0 0
1579 1 72.42282147307951 25.332624122997643 1.9383888021558269 0 0 0
343 1 77.51901360291201 26.681033007824613 1.0164648620778245 0 0 0
1169 1 77.28019297119728 24.813066279248783 2.7428503826022306 0 0 0
2124 1 82.1099771773145 26.89806834273715 1.1292400760484629 0 0 0
1814 1 81.96188588062559 24.588602594828377 2.7823137019295263 0 0 0
1522 1 86.73156304102973 25.611905378769393 1.110756500121122 0 0 0
2224 1 90.9653617894187 25.991115489877735 1.1324286677667579 0 0 0
1930 1 93.38077628851738 24.675248055749307 1.1372415232772741 0 0 0
162 1 97.60593543657815 24.40578515272473 0.8622520830152358 0 0 0
998 1 100.995443731472 27.08909899968269 1.6899306973590629 0 0 0
2351 1 105.71187742270557 25.890478341030374 1.0037878678285859 0 0 0
1495 1 108.01382930428669 25.086073652609873 2.426291071744696 0 0 -1
786 1 113.12860110966811 26.931775753127358 0.2509178265546481 0 0 -1
770 1 114.58779907310903 24.949360080489022 1.6886359002057103 0 0 0
1395 1 118.88633324665466 27.248793750146532 0.0727296206587669 0 0 0
1154 1 119.95127577077571 24.901182653816736 1.303925255669045 0 0 -1
279 1 124.17529880101084 25.10819138921413 1.9069197275464402 0 0 0
2276 1 129.6068304832897 26.481817131989903 1.0798359776691517 0 0 0
369 1 -0.28532585274072675 27.367336151276795 0.9150789413473556 0 0 -1
2325 1 4.585167442807871 30.059646746798236 0.7857609891931077 0 0 0
1038 1 4.653857324362928 27.92593308193477 2.5502501287959656 0 0 0
1162 1 9.473605202787363 26.81866332297406 0.10171996882168419 0 0 -1
448 1 9.040719264222066 29.03156833419569 1.5433747124082124 0 0 -2
2315 1 16.55895193945198 28.08539722517995 2.269146375413164 0 0 0
826 1 14.775301219444266 28.861428909329184 0.22326319092473668 0 0 0
50 1 19.304164753153657 28.019898725811007 1.3144393645169026 0 0 -1
586 1 21.53606087207951 27.711230325165005 2.8622143847708017 0 0 -1
2050 1 24.21389449595656 27.664679179897824 2.186477096156703 0 0 -2
1281 1 29.15701501951571 27.58012211343479 1.562669285760474 0 0 1
14 1 31.858921946106108 27.75401619898753 2.383802310244889 0 0 1
2093 1 32.48039892430262 30.3983038757055 2.951233795261615 0 0 -1
417 1 36.90780614665186 28.853633462778532 2.717437443911874 0 0 0
1246 1 41.5886722048613 27.41155925237765 2.938564573098788 0 0 0
1601 1 42.46200373454123 29.532404387396504 1.2885887526141013 0 0 0
1546 1 47.42147699256709 28.259435872228817 1.1779409648077477 0 0 0
501 1 48.64736721688533 30.444563343886117 2.529227371133071 0 0 -1
194 1 54.953747813796596 28.657057095902594 1.4500436550120652 0 0 0
2103 1 59.36417256203529 29.087479702116312 0.8489438452511769 0 0 0
2198 1 57.368259029907904 28.136257999465688 2.5845366060584096 0 0 0
2038 1 66.17045108857035 29.737457391770235 2.7288978846135827 0 0 0
1326 1 71.53385907904827 28.925167653107067 1.7147520023990945 0 0 1
299 1 73.90141544218896 29.080121058494477 2.9613940693542835 0 0 0
1975 1 76.40249139291038 29.226727725662684 1.5205869331380935 0 0 0
91 1 82.63127129323992 29.45464757037187 2.3252306343315303 0 0 0
2206 1 87.36181711157965 27.902993822165225 2.3499045040892623 0 0 0
1896 1 91.77247462435841 28.553428291982293 0.30317636585335084 0 0 1
1836 1 94.29597497971693 30.084586448344005 2.7909144601119973 0 0 -1
1519 1 95.7168688321742 28.520010817897244 1.0314823114634482 0 0 0
128 1 96.78793756125707 26.383013546362655 2.4305241386443766 0 0 0
284 1 101.74484320880903 29.246555463605645 5.989472739482448 0 0 -1
463 1 105.41988918937693 28.366433318959928 0.23898719687724496 0 0 0
1782 1 108.00974106789995 29.099085224910723 5.445453373815878 0 0 -1