LAMMPS data file via write_data, version 29 Oct 2020, timestep = 100813

21652 atoms
1 atom types

-2.876527152474921 272.8765271524712 xlo xhi
-2.876527152474921 272.8765271524712 ylo yhi
-0.09588423841583182 9.095884238415646 zlo zhi

Masses

1 18.015

Atoms # atomic

1422 1 -2.598750932326385 73.5022567026629 4.433326873379224 0 0 -1
8143 1 -0.5486822499094259 0.12458914469794369 0.5130889439622216 0 1 1
9920 1 2.0512359081462668 -0.2748626238357361 0.4671923440616922 0 1 1
2237 1 6.400509864339739 -2.6069333346738217 0.48382976878422235 0 0 1
587 1 10.860532565630544 -2.801941874621549 2.669441946965479 0 0 1
10734 1 13.468706292460947 -0.3062243865283243 0.35972323504959647 0 1 1
2584 1 134.8730653501319 10.863547802833837 0.2743540381989653 0 0 1
2477 1 18.009972154060016 -1.962408990811317 0.5283560338462162 0 0 0
8824 1 18.62108683418111 -0.6657019010112322 2.946866598003795 0 1 0
8813 1 21.575722128485747 -0.16147518139592876 2.4110488277796582 0 1 0
7443 1 22.773426074681417 -2.539394906167009 2.5858543568492425 0 1 0
9404 1 25.51052001892263 -1.6693725258372232 2.1461509122854148 0 1 0
7324 1 28.942159191711184 -0.6563236615040489 1.7854377311484972 0 1 -1
2376 1 31.6647521129553 0.09653935410456382 1.453284103415505 0 0 0
8587 1 39.09309715613212 -1.8003417022136252 1.797542335449424 0 1 1
1591 1 41.83914153582755 -1.090598876667674 1.703190131679745 0 0 0
2218 1 134.69560738826968 62.17000646699218 7.572769255522204 0 0 0
10022 1 46.13830564979222 -2.3427551603174255 2.0134311039929758 0 1 0
388 1 51.166694694439656 -0.5998766630374153 2.654939108647214 0 0 -1
2072 1 60.348980854310064 -0.7212677262968978 2.312862649303677 0 0 0
7434 1 70.10478283725374 -0.5115000489034678 2.864758442536902 0 1 1
12744 1 -2.0901181579353563 5.365432896863837 0.4054334703765191 1 0 -1
2264 1 123.44853022055085 -2.532752946730046 4.452436267165686 0 0 1
7669 1 80.35460842045246 -2.1727256601297373 0.7457460774120411 0 1 1
18159 1 -2.365010629254575 -1.8973689694723888 0.6579696498088157 1 1 1
9089 1 84.52255072329167 -1.925401965800423 2.605228552874026 0 1 2
2051 1 92.75483404327908 -0.19772750224243474 1.0398908258854804 0 0 0
831 1 93.1695686896108 -1.632759936084597 3.417164055860901 0 0 -1
3349 1 98.92044748572519 -1.6880353337772687 1.1722640811862817 0 0 0
628 1 106.8161098987921 -1.3272616231493655 0.9021278369980334 0 0 0
2686 1 -1.811073996506384 51.48479236355114 2.1116362039083967 0 0 0
10341 1 111.58161171908414 -1.3243930851193302 1.0843102641470321 0 1 0
257 1 114.21704698864585 -0.38119753107161136 0.3543556893079737 0 0 -1
2733 1 116.35483255112808 -2.299758538824439 1.5422877541229483 0 0 -2
3427 1 121.94901786139057 -2.437661677592377 2.1567103025551226 0 0 0
8692 1 125.61383438873543 -1.2194212746355337 -0.06829272520197419 0 1 0
2955 1 129.50223727153815 -1.8106846842758806 2.1129602929653237 0 0 -1
241 1 3.7352520732003365 2.534491032505537 1.0936727521251148 0 0 0
3201 1 6.188094064807805 1.9266886984631633 2.7092551156201456 0 0 0
1713 1 6.8558779914191454 0.30586921465395767 0.35170440572297684 0 0 -1
8396 1 9.592474300165598 0.9726474889382519 0.08745309232203449 0 1 1
10684 1 9.913710783619992 2.7560348611609014 2.063588998392375 0 1 1
95 1 14.445982337537519 1.050554597990907 2.60756892402021 0 0 2
7491 1 16.951365578613853 1.6123560600942186 2.672748508411078 0 1 0
252 1 17.717194627556733 2.965123288196021 0.3079209380615237 0 0 0
9893 1 20.350496292680504 3.3232843903212785 0.29618548006480605 0 1 1
9564 1 21.844797945744816 1.1978744204253653 8.95180836822932 0 1 0
2479 1 24.195249868104295 2.2386365409004645 0.030620267911292964 0 0 1
3258 1 25.187230967572635 1.061605629147751 2.501525936517026 0 0 -1
7930 1 27.84181791329133 1.6809413420921233 1.5843172088858022 0 1 2
961 1 31.985262257310453 2.8820065427011112 1.1607282487910486 0 0 1
3248 1 39.46079274336706 2.9695599915411437 1.5405103812909637 0 0 -1
353 1 41.95367756413102 1.5275323435118828 1.7763669775591522 0 0 1
9581 1 48.130285141401096 0.43858379865329944 1.469084566233865 0 1 0
253 1 46.40905877203931 3.561435380084667 1.3896914870194306 0 0 1
10691 1 49.155347632491356 2.998222601998851 1.6490313006578023 0 1 0
3240 1 51.62087185769747 2.0356652959988386 3.1971255134210192 0 0 -1
2755 1 54.46644575333286 1.5841293380579433 2.406691819115649 0 0 1
1358 1 59.138109529643 1.664483668267711 2.3414724378231018 0 0 1
559 1 63.25364584567616 2.971146270159477 2.4810939561157173 0 0 1
1963 1 67.60093455235203 1.0028334332471287 2.7165375865331565 0 0 0
2588 1 72.7071482643363 1.4328559214123953 0.6496762200077401 0 0 0
9602 1 71.96320668450755 1.3331104889385177 4.085427862755323 0 1 0
479 1 74.77789884703543 2.1788080897076005 2.7182398562696983 0 0 1
1315 1 78.30206114331202 1.5215960817805128 0.7372824785646725 0 0 1
1449 1 76.99420075319621 0.5559707836164072 2.9935948788158826 0 0 0
9466 1 80.7725640903514 0.5071432627331864 1.5422528150935575 0 1 2
921 1 82.9635731014989 1.721268553240078 0.7402380480797839 0 0 2
3368 1 84.68884795797186 0.8702842316829082 2.871025655874517 0 0 1
1890 1 87.24079827602563 1.8668497082257325 3.172130137385817 0 0 0
582 1 90.76565462661196 1.8158568781317452 0.3431041998647776 0 0 -1
1295 1 89.91350751656435 1.020951624432505 2.8505508447765635 0 0 0
3202 1 94.90308682980893 1.3693736874149574 1.3576873063530441 0 0 0
2115 1 96.693895571715 1.0217834374268313 3.5958419890385307 0 0 0
765 1 101.07953955183504 -0.0641575633248248 1.2729207408914056 0 0 0
3004 1 100.14548345926842 2.4912376943996595 0.9908764426878072 0 0 0
1146 1 104.52530205963055 2.457608251504899 1.1136620178581007 0 0 1
1253 1 110.08166608299044 0.9335883701697729 1.4627050355506304 0 0 -1
2292 1 114.41312243788121 2.019023971626603 1.6563959274686355 0 0 0
1524 1 121.05726926144267 -0.01288615533820714 2.078027848182959 0 0 0
861 1 123.3057373801564 1.698778655891596 1.4287241039315968 0 0 0
2497 1 125.4397509044517 0.4824774467246913 2.12228313217641 0 0 0
13214 1 128.0967552193975 1.5362870001583122 1.9746172338664407 0 0 0
1460 1 130.74718760785277 0.626557069026382 1.9524634911550223 0 0 0
2113 1 -1.1393884566020556 4.552200208911835 2.8766010426406856 0 0 0
1061 1 -2.2716619282623154 30.197543247248802 3.6826546752412073 0 0 0
431 1 1.2671165723879234 5.910206023849044 2.8674069335980765 0 0 0
1215 1 2.9224567186379193 5.267085965652035 0.6362306374460532 0 0 0
2637 1 7.630981794651298 5.644552166276259 0.3327292790388554 0 0 1
205 1 7.575824510551072 4.227410227123477 2.660799589875145 0 0 0
3464 1 13.299991183922504 5.720790772056658 2.087454299903541 0 0 1
1845 1 16.979294135344382 5.492283369173515 8.954476831846623 0 0 -1
2423 1 18.970846049275288 6.89917026676355 3.081766439274189 0 0 0
9896 1 20.72747262216761 4.754165779334823 2.6764899647673692 0 1 -1
9875 1 23.14601748683095 5.714138374254686 2.3438202886290327 0 1 1
1759 1 24.151636498471532 5.000736260853106 -0.06227004781777623 0 0 1
2828 1 26.768667042384596 5.825474918615091 -0.06531518426868946 0 0 0
2983 1 34.37226336171208 4.344653159422055 1.320556510610029 0 0 0
3235 1 39.06940956799549 6.014632788454563 1.4751903885836537 0 0 1
552 1 44.66869297702339 5.065618925721466 3.538999445247061 0 0 0
1794 1 53.57996170612834 4.507743410644435 1.918803328901137 0 0 0
3048 1 56.07022872513315 5.619268998245966 2.045158527506286 0 0 0
1226 1 60.813163765334124 3.485802070635298 2.384485386414791 0 0 0
3429 1 64.62057503761504 5.477820685270679 2.5818846757524354 0 0 0
2979 1 68.80171884226603 3.230638939847955 3.0182724808394665 0 0 0
2030 1 67.27848951667117 5.459367007331593 3.432131538248008 0 0 0
1212 1 71.45303912104981 5.452573545252044 1.5043767171040716 0 0 1
2430 1 75.42657561874611 3.71390550908494 0.3776873128934455 0 0 1
705 1 78.28281683960394 4.2306937209760225 0.7046684556370912 0 0 1
2207 1 78.71658794728674 5.126558389294209 3.2334560030756965 0 0 1
8 1 82.95780250609721 4.662212645902335 0.8567574661151315 0 0 0
784 1 85.47573563629855 5.751987342655946 0.8909853189030261 0 0 0
1378 1 87.32727807054216 3.6372915895784743 1.0168389868895547 0 0 0
2873 1 89.90271722984909 4.452741464669269 0.7398478392398862 0 0 0
1929 1 93.19629305827812 3.4882550958358474 1.0871617933003885 0 0 0
3426 1 94.26105961214876 4.8373207865742325 3.286260596820084 0 0 0
2015 1 97.13886911538226 5.196571880109721 3.714749807127009 0 0 -1
1331 1 102.22171823576274 4.216080100042898 0.20879266863429852 0 0 1
467 1 106.20264179196236 4.789577038309109 1.197184849064621 0 0 0
254 1 107.79127102334735 4.445729425632581 3.364438770651285 0 0 0
2857 1 112.00509786038201 3.0553668644810656 1.4539595096604896 0 0 -1
3168 1 112.40029741257445 5.076121045097897 3.6850401349305657 0 0 0
2930 1 114.80716543222043 5.476960474503249 0.35553613933307715 0 0 1
8948 1 118.82789228374574 2.8193443474643782 8.979186433604845 0 1 -1
1931 1 120.06952215547368 4.160389107871557 1.9413139926978 0 0 0
138 1 122.69765379029607 4.32353496449176 2.074260832806901 0 0 -1
867 1 123.68270198182623 5.28277596110102 9.061087420479858 0 0 -1
2866 1 126.6294206763692 5.44860191075006 9.032845739502463 0 0 0
8192 1 128.2953505065489 3.385937041923717 -0.045121874016142774 0 1 0
1090 1 131.78403368710525 5.330255090180314 2.364974461485712 0 0 0
1636 1 131.0423442348555 4.2877501750102 -0.07062936152832267 0 0 0
1419 1 134.50062960260303 5.778014880038985 1.7657073684095694 0 0 0
3398 1 0.5195509085578527 8.23760511632827 2.2174717061358 0 0 0
10152 1 5.179202343117284 6.795856238769064 0.4980295499701556 0 1 0
2922 1 4.833793612581465 8.45327105259968 2.623481284116579 0 0 0
3084 1 9.351700951337879 7.865123506562194 9.062853419066919 0 0 0
3559 1 10.793339019147533 7.35957960535872 2.1434757520894396 0 0 2
3550 1 14.472655181174336 6.160750071452439 8.88153654794204 0 0 -1
1898 1 14.52872753051993 9.045414158810294 0.06521222326569379 0 0 1
8500 1 12.804743037040753 9.491550168056175 2.0523004139878283 0 1 1
1489 1 19.904349548636166 9.382416140213673 2.9629248787141944 0 0 0
1185 1 22.420442557147783 8.381637417382239 3.151759712927645 0 0 -2
176 1 27.35444841812914 7.118853631310321 2.325114005868063 0 0 0
3005 1 30.18960938057716 6.590357406972094 3.0284936907631046 0 0 0
2911 1 31.292082453302797 7.695675538947963 0.7632664026460058 0 0 0
1812 1 33.99934817438639 7.0253546549297425 0.949941421544864 0 0 0
3176 1 40.07955563412092 8.753894649039676 1.014866026050954 0 0 0
747 1 44.89277684320184 8.564630073602059 1.861076641536824 0 0 0
964 1 46.79887152140957 6.457834506143415 1.1201319431677226 0 0 0
2618 1 50.09781255469963 8.908372687811184 2.2991456976706504 0 0 0
822 1 53.599295585467665 9.083156383189044 1.1546691800787054 0 0 1
2577 1 56.15674948690287 8.261074754958768 1.3680120925451196 0 0 1
726 1 61.36125851257587 7.504484765198679 0.11344103956722665 0 0 1
2455 1 68.4327047235182 7.980784237126247 2.966402618236317 0 0 0
792 1 70.14768891007309 7.623598186084653 0.5295444046727859 0 0 0
2895 1 74.1191014587668 6.177358877555804 0.5812943459425435 0 0 0
1880 1 74.6193868197371 7.527481462948721 2.899640372662528 0 0 0
9082 1 77.39510723570619 7.478738292985879 3.0129308854701793 0 1 0
2076 1 81.47727983080296 5.673045346080896 3.118318676625978 0 0 -1
3528 1 90.36368346662326 6.0732791583634445 3.096592401496304 0 0 0
2736 1 88.64020540872357 8.086324279870068 3.2408023022873644 0 0 0
2745 1 93.56211855238455 8.317499193607581 0.9667681001047095 0 0 -1
3492 1 92.80946851553722 7.049318252817617 3.4004221779943222 0 0 -1
2823 1 97.99332718187766 6.142501463557036 1.113150005570986 0 0 0
1967 1 100.36591155346247 7.8215843347718685 1.1136464404351554 0 0 0
1613 1 102.67306927708893 6.3461081943530555 1.862752416172285 0 0 -1
2484 1 104.99504959275217 7.43982478798706 0.8338784189244531 0 0 0
949 1 106.33318944854754 7.873018243414958 3.2610898077290753 0 0 -1
1838 1 109.6564213494521 7.42802039250709 0.999058819439903 0 0 -1
3374 1 108.98234505812633 7.141327796195483 3.550432333958441 0 0 -1
2293 1 112.37947386555606 7.318762422991378 1.5956192296647311 0 0 0
2735 1 119.39117167184405 6.7493870911085825 2.60633542392641 0 0 -1
2509 1 117.03386170384489 8.869816907052789 7.728000592098163 0 0 -2
1417 1 120.19209174210425 8.05725722228741 0.01257074279897645 0 0 0
2536 1 123.00573981208917 7.85977686402026 0.11605100195781187 0 0 0
2919 1 124.01411165729338 9.033901503162587 2.420340129751556 0 0 0
1270 1 127.33436956551094 6.697383489488423 2.207627182664142 0 0 0
2179 1 130.21449790244048 7.4800067593393695 2.3492636083491547 0 0 0
2906 1 130.84131155683647 8.479560515877147 9.084638162042584 0 0 -1
673 1 -0.17847692033200913 12.815247001936209 0.5829864855004242 0 0 0
1903 1 -1.6409249072301766 11.947909310960966 2.5409817066923237 0 0 0
142 1 2.3734954945326034 9.953569310755968 2.9142797795781585 0 0 0
881 1 2.134699709083133 11.29095780156227 0.41402673528550493 0 0 0
2372 1 6.494548993058579 10.456868363709722 2.1489930266831525 0 0 1
2077 1 8.067127533089872 10.127274924776696 8.955018986140681 0 0 -1
3075 1 11.544161339922868 12.014112902755771 2.1226045725823384 0 0 1
1021 1 10.180534440777661 12.0460371019662 9.037191705633788 0 0 0
1962 1 16.253515703385006 11.40654047186147 0.4074858168465362 0 0 1
2191 1 18.80429594312309 10.186407494235954 0.4499922833965725 0 0 1
1183 1 20.887571064578882 12.072126481152509 0.30190361619948536 0 0 0
10687 1 23.49673690257554 9.975677960074227 1.1634021410605857 0 1 0
2546 1 26.12563773006163 11.162820495223812 0.8566222907751788 0 0 1
788 1 27.31580569430545 9.969801963431719 3.1412585049036963 0 0 0
21 1 30.977380775680437 10.291316201993332 1.0372487710732452 0 0 0
3207 1 33.49351642240625 11.669009870393918 1.3046366555355595 0 0 1
1810 1 38.47035249873518 11.198670246779283 1.1166098149256003 0 0 1
2603 1 45.74239613253336 11.251130341416667 1.1266278114127006 0 0 0
1054 1 48.65648375945863 12.21646981967146 1.3250563810049076 0 0 -1
3086 1 53.777470745118826 11.848718129503315 1.0279117854524962 0 0 2
2707 1 63.79655678203282 11.26158054365634 3.111349542096813 0 0 0
890 1 62.463541735144304 12.441543833452068 0.8898811504167907 0 0 1
518 1 66.96243620192026 10.16670936118194 3.334232152476691 0 0 0
344 1 70.46057341689833 12.231799042047342 0.7282360985319899 0 0 0
3537 1 71.82360357931873 9.978926146921145 0.4065165987581475 0 0 0
2427 1 73.38891690523599 9.93039154715277 2.805170459155562 0 0 0
2487 1 75.23486312346398 11.946762589794124 3.0302451657632203 0 0 1
372 1 78.22424597776921 8.963914536168458 0.8442668051188948 0 0 0
2910 1 76.51108861530642 11.387841434945878 0.6902885675937915 0 0 1
3061 1 80.6996831733205 9.4404127157146 0.6190104074901739 0 0 0
295 1 85.02533199266749 11.421483984174468 0.6274081470854723 0 0 0
2261 1 89.01866564254675 9.50491166641512 0.8944741512288575 0 0 -1
3301 1 91.64457558013547 10.386011481619324 0.9242849124081562 0 0 1
169 1 96.40899157751835 8.410306638127823 1.0366733043414207 0 0 0
283 1 97.44170521185553 9.83057962794648 3.298079263811921 0 0 0
3094 1 100.29020815950273 9.616324314630772 3.179410969615213 0 0 0
1767 1 101.94688485348985 11.896759205672966 3.2164087144272804 0 0 0
2624 1 108.47203161527779 10.08899044172404 1.713191968049826 0 0 0
555 1 107.21218554503261 12.183635149063095 3.512026980091567 0 0 0
2978 1 111.25482702632297 11.071954429892532 2.7891356248328534 0 0 -1
164 1 113.59166472451255 9.462938032336343 0.004619766455516955 0 0 -2
2525 1 115.7040741493559 13.304242035446386 3.0767434401924185 0 0 -1
98 1 115.75368350032208 8.577877935028058 4.2207085680023155 0 0 -2
812 1 119.31441224794952 10.6932877261081 -0.049184396366082545 0 0 0
3237 1 120.09343566252204 11.938895503579761 2.43001869326886 0 0 -1
1854 1 122.81097827782402 11.4405940534446 2.5587484133234875 0 0 0
3028 1 126.52249283054374 9.30628533665361 2.4811665861384027 0 0 0
125 1 127.40637665555275 10.489526632150454 0.21514171674749216 0 0 0
2878 1 130.2006448776604 11.029558021536785 8.943258582083807 0 0 -1
2140 1 133.95047001988183 12.446501555574354 2.303593266894532 0 0 0
1589 1 0.5532938478144209 15.433103630332113 0.8723676891788917 0 0 0
2739 1 3.964352569597499 13.527807534495512 8.94184731597593 0 0 -1
3055 1 4.96651239042908 12.861161004143282 2.2100432216195554 0 0 1
2366 1 8.853930657887023 14.32862795841568 0.27439739336199404 0 0 1
1267 1 6.992185081126653 14.7355332572415 2.307892133451612 0 0 0
2716 1 13.361142415717875 13.904393793151183 2.3418592456264338 0 0 0
1905 1 12.890525078092491 15.450023765542863 0.02994881587171669 0 0 0
955 1 15.909024856792378 12.934047945116637 2.6897560062977224 0 0 0
1386 1 17.5011122021729 15.167811889989554 2.7168986202020906 0 0 0
3157 1 20.141678226605944 14.631275514858824 2.0480942286110477 0 0 0
1686 1 24.25559659819719 14.026564981425164 3.022668387599192 0 0 1
2456 1 25.771382314064336 13.823035880219042 0.6559151128958184 0 0 1
3083 1 28.109476774428632 14.964089527047928 0.7566284177653809 0 0 0
1479 1 32.97703486305626 14.312267118055313 0.9683193735456768 0 0 1
2943 1 31.81684573381832 15.330500718702694 3.1685556219922244 0 0 1
475 1 41.128694715204496 12.483767472396194 1.2029897477761378 0 0 1
3296 1 48.356417791263496 14.929486042787676 1.2652893039711852 0 0 1
2809 1 56.236971110260214 12.858350162494034 1.0579117230403028 0 0 0
2104 1 59.39349047212904 12.598464739260399 0.6380223528855424 0 0 1
3243 1 64.77920452875037 14.066875316769831 3.390277336423738 0 0 0
2956 1 67.6131500324047 14.46686100561234 3.286044157934186 0 0 1
375 1 68.98547959513348 12.016664030542364 3.02023764725048 0 0 1
2222 1 72.52601511779513 14.640709232214604 0.9303918581217809 0 0 1
3486 1 74.11944528791248 14.446925340929152 3.2754557214627638 0 0 2
2155 1 78.43263918334209 13.347114091270907 0.31541278874416456 0 0 0
3119 1 81.1196700802408 12.033226818583685 0.626927148902733 0 0 1
807 1 83.48981940018788 13.541976261095257 0.6915062353316305 0 0 0
814 1 83.19705939435606 15.12610434212538 3.004370495173919 0 0 0
97 1 87.64171822170265 11.78298714910043 1.6386600620910328 0 0 1
641 1 89.06032919107552 14.078563258827668 0.6857248288944731 0 0 0
637 1 90.5746874445705 14.393722095403504 2.990199230748856 0 0 1
3198 1 91.94913871172707 11.967515576577952 3.130959273420147 0 0 0
2490 1 96.3251007695287 11.94216677125722 0.9372640713071745 0 0 0
1066 1 94.76276282862936 12.697899387247341 3.1423530140768023 0 0 0
682 1 98.43558794302459 13.919930192419848 0.8462587220227137 0 0 0
665 1 101.17391004952908 12.964480988891072 0.7078682011948635 0 0 -1
3393 1 105.20404521120564 14.941853630385577 0.7053549350757313 0 0 0
2915 1 104.7261939838877 13.377513770632643 2.8730510755100953 0 0 -1
2981 1 107.69295956597603 13.660525451687118 1.1636327567646074 0 0 0
1134 1 112.94742701780102 13.22142684487455 2.7106503236101744 0 0 -2
453 1 112.29222090399477 14.334010811083889 0.3816295561746264 0 0 0
1970 1 116.85552480459567 15.236111037058457 0.5172364762243054 0 0 0
2571 1 116.79007716360698 12.32448646883408 0.48091745603377345 0 0 0
2099 1 120.5224902986579 14.679424242524245 2.9270406794274777 0 0 -1
1350 1 123.39204067388079 12.698893686634902 0.06997470182875551 0 0 0
1683 1 126.38920383039343 12.913463667729255 0.10026625738683442 0 0 0
228 1 127.0711909249276 14.059112442308706 2.4763917406441545 0 0 -1
12899 1 131.12304476560345 12.19590923688829 2.0514352221239953 0 0 0
13664 1 134.77204582403004 62.47961621825078 2.1087234198275078 0 0 -1
216 1 5.403507824524995 17.13161451768043 2.1248031864205092 0 0 1
2338 1 9.941093258940446 18.205769781538635 2.2144105668248732 0 0 0
1233 1 10.342685295602765 16.42632550928822 0.27021353545201565 0 0 1
1728 1 14.281077221561862 17.652734233821175 0.005563323564333589 0 0 0
2851 1 24.03778655083936 16.65609688908396 2.788895169472155 0 0 0
2037 1 24.589090339789323 17.654427819678748 0.17190955403532265 0 0 0
1170 1 27.342587030426465 17.58187201546932 0.7299338752995874 0 0 1
1801 1 35.38099468725017 15.51939968528362 1.4352830356221733 0 0 1
636 1 35.076393811438884 18.27903493935983 1.306078406542041 0 0 1
3323 1 38.95130490484297 16.212788044592457 1.3363319689339894 0 0 1
1434 1 41.34824214520733 15.197328222032702 1.3708250801304263 0 0 1
2518 1 45.840889995106814 15.842521503603418 1.6240835965886475 0 0 0
3382 1 53.228857689017296 16.258903258355332 1.2578369087131451 0 0 1
182 1 55.859935324836684 15.581427165186717 1.2033165843718776 0 0 0
3394 1 60.72127857332479 15.229256583631155 0.700720215674858 0 0 1
804 1 63.486149235696786 15.304922169642452 1.059503846251982 0 0 0
302 1 64.18535916751249 18.04622981680378 0.8738204324782418 0 0 0
455 1 66.73085417011748 18.24795166992856 1.0590268289657165 0 0 0
2026 1 68.30568725235551 15.927092514341794 1.0239608561467015 0 0 1
94 1 71.10038678552671 16.796005629064382 0.9509126678910536 0 0 0
2817 1 71.9398062421638 18.467328504168243 2.997806774264316 0 0 0
357 1 76.15754075175755 17.604975219793992 0.5793310605637267 0 0 1
6 1 76.36752910462714 15.9608691679056 2.924614425674404 0 0 0
2597 1 78.83192275179827 14.94862211923769 2.3985842994704485 0 0 0
1765 1 80.39663651076134 17.769018752061292 0.5635534693012023 0 0 1
728 1 80.95100847519382 16.563898870785685 3.044703001500349 0 0 1
2214 1 87.42431645902923 16.235717974225782 0.6259594274836456 0 0 0
3376 1 85.50339436263205 16.607295859389783 2.68850575029015 0 0 1
2812 1 91.82120928791973 17.979215235378675 0.97374375192345 0 0 1
1221 1 92.43879356403173 16.585274321893547 2.992380629675774 0 0 1
1275 1 94.71172511155827 15.347959562742577 2.9863455573788587 0 0 1
1627 1 96.08514306277321 16.279549693372534 0.6479832574251342 0 0 1
1678 1 98.21932420140034 15.458716068640456 3.1596215605789157 0 0 2
3135 1 99.75938423474638 17.727710123265 2.8094505896054276 0 0 0
1486 1 101.62565049252655 17.41413130902658 0.6189509469856661 0 0 0
1240 1 105.858215649398 17.754500163415496 0.5175424244830641 0 0 -1
647 1 109.61770466715718 16.919937913555685 2.6272176906728086 0 0 0
3050 1 106.89907238014005 18.15516357765045 3.0232637649138825 0 0 1
3524 1 109.83482895151576 15.42465718100027 0.24092904165061685 0 0 -1
1045 1 114.24147633034904 16.198983887781992 0.6810892327226234 0 0 0
190 1 114.13180215593046 17.689682351392246 3.109877314911861 0 0 -1
3227 1 122.39602669657505 15.181279163018242 0.4924446472689238 0 0 2
1154 1 121.96748131334394 17.908193613660718 1.771596129866283 0 0 -1
624 1 124.69125068068661 17.00240369447252 0.0018933579345704332 0 0 0
735 1 127.64562682960803 17.63750725415248 0.23062215851406842 0 0 0
1480 1 129.87966643431128 16.255533855448483 0.24228801807813732 0 0 0
13792 1 132.23725414544916 17.913598891782343 0.1795637559910791 0 0 0
11334 1 134.04789634048683 17.34796525319453 2.2935467838271313 0 0 -1
12042 1 -2.383426998343208 18.764851878902803 1.045185625654784 1 0 1
217 1 -0.37124407504850376 21.564118320952815 1.0116961913611904 0 0 1
993 1 3.654696796165842 19.555444046155117 0.4218877247001457 0 0 1
541 1 7.222138627112862 19.196760757868933 2.236479159072322 0 0 2
2216 1 11.742266229549722 20.21086038946929 1.973671519674042 0 0 0
716 1 14.396859087797548 19.226607013083193 2.1889423150321026 0 0 1
657 1 15.899612878075608 21.562248891940808 2.291332132280498 0 0 0
2246 1 20.17091903397552 18.77627330831516 2.5072063596954646 0 0 0
2447 1 21.92917517151625 20.793642080252397 2.0069147200471997 0 0 0
3375 1 31.975353343422604 18.91152005990902 1.281690118392956 0 0 0
687 1 31.925662803322524 21.543067934250267 1.275661933257089 0 0 0
3144 1 44.20791961540612 19.37684469478741 1.649514718511873 0 0 1
903 1 46.60314229649565 18.335126311324792 1.3729121843630965 0 0 0
422 1 52.51227881612864 18.82191895914732 1.407133636351142 0 0 0
57 1 55.011980420264294 20.05543623617522 0.890905442294981 0 0 1
1203 1 56.572424648070374 19.478185346854215 3.357300234021825 0 0 1
659 1 58.762063505794735 21.165805234064432 3.281618183948444 0 0 -1
452 1 61.0449473853582 20.21562678676109 0.8535056281882518 0 0 1
969 1 74.38200915473651 18.898415779893067 7.688331458402922 0 0 -1
2416 1 70.19928809703002 20.534290632393652 3.2177207738288978 0 0 0
3037 1 78.21413672543609 19.278972341351 0.28205807368797586 0 0 0
1896 1 77.1801093572035 20.323865124643582 2.655730155653813 0 0 1
191 1 84.09700309203572 19.00696945579671 2.5209008965937594 0 0 0
2024 1 86.26635307436132 20.42025445142874 1.7380224488689624 0 0 2
3513 1 89.01116895880683 19.8835785149453 2.3611878792903984 0 0 1
1306 1 93.49565498286319 20.326000194694224 0.8344529187772834 0 0 1
2441 1 97.24611818713798 20.54065924498454 0.5463837502244968 0 0 1
280 1 98.7672385788036 20.410239674835868 2.843655112933012 0 0 0
2117 1 103.52374136217998 19.187842318275337 0.8281511491252878 0 0 0
3251 1 102.95945833367293 20.706459618221412 3.1475455788335562 0 0 -1
1947 1 107.45509113550517 21.058648059164383 2.8697673776013835 0 0 0
3259 1 111.35578339557622 20.28314327148383 0.8654767176122539 0 0 -1
2473 1 111.73087577648842 18.729249350800302 2.9077143402764603 0 0 0
2154 1 116.06524818725205 21.010850425830313 0.6552641828411858 0 0 1
2351 1 119.23447930126842 20.26270639456317 0.6366008178295306 0 0 2
215 1 116.50329235549852 19.328206746721406 2.813047626242268 0 0 0
3553 1 119.42431854150905 18.6625735725167 3.0254281080464875 0 0 0
2602 1 121.80629876102581 21.708761362376517 0.3977769838584836 0 0 0
2048 1 123.9605275507874 19.883283741807833 1.1095824297032995 0 0 -1
1418 1 125.42246609233757 20.53900492090312 3.0368811652103727 0 0 0
1190 1 130.97671070928024 20.3028669109859 0.5179344109666686 0 0 0
1162 1 2.1997791306221073 22.769798885812634 0.7523382351602013 0 0 0
423 1 5.422994333630648 24.24670839957472 2.166835397986706 0 0 1
878 1 8.707607618220013 22.39972701561473 0.10125772284543968 0 0 1
3288 1 8.154843578613988 23.839485892301578 2.6398702628044606 0 0 -1
2065 1 14.576142903635194 23.94680510615197 2.04239847624429 0 0 0
684 1 13.18779231046496 23.866202027162736 8.79191686860553 0 0 -1
695 1 20.573703766856188 23.223277988563982 2.0629698281586633 0 0 0
143 1 25.18665686597274 24.07539533942566 1.5706215778053185 0 0 0
2228 1 29.349129805206672 22.433904582627374 1.167859227315798 0 0 1
3108 1 35.30303056383756 21.668913195281423 0.7955613919609691 0 0 0
1499 1 37.60074295686097 23.142201303841677 1.5847494850449466 0 0 0
1631 1 40.17667757757022 21.756591416780164 1.4398861391216449 0 0 1
15 1 42.09149619203662 23.562023492121813 1.5898477828651834 0 0 0
1895 1 44.57369838694048 22.39195234037665 2.3546174345396342 0 0 1
347 1 46.93787448308979 22.640001887774677 1.1718080038016099 0 0 0
1819 1 51.02514901876763 21.9310599631091 3.8120836551980677 0 0 0
2909 1 51.978530382669014 22.917742852325603 1.4537193404514424 0 0 1
311 1 56.3650681992576 24.40433273933017 1.0345075516058095 0 0 0
3133 1 58.73552324085388 22.752601756384838 1.0260937838942998 0 0 0
2211 1 60.77922218201137 24.433185745004742 1.0053590380808135 0 0 1
172 1 63.25121307125518 23.237101160291747 1.4019088226941725 0 0 1
550 1 63.74238597639109 21.73947386929772 3.5652684140391466 0 0 0
1027 1 67.41101796553014 23.48373469966804 1.3136058284524037 0 0 0
3446 1 66.62053343634184 21.899296712658 3.323708597528763 0 0 1
251 1 70.01099400061514 24.183266088370022 1.0432208227276198 0 0 1
2734 1 71.18746631235368 21.60811402479263 0.946091687906677 0 0 1
103 1 73.91641724146214 21.929522144349257 0.7305800866713003 0 0 0
1975 1 74.35465747648722 23.470885560311388 2.7512704885652095 0 0 1
1073 1 78.34471021009378 22.80273200396785 2.435236542177172 0 0 1
942 1 82.15615207318294 22.072215224343008 0.06456152289027689 0 0 0
3053 1 86.12644648021916 22.85952615509775 2.603500534339073 0 0 0
2269 1 83.20256137658866 23.026877237226916 2.4466739669154243 0 0 1
2224 1 86.99816574295767 24.24930609762033 0.43405206497100157 0 0 0
1563 1 89.53934142011013 24.17473175893186 0.47003736245908867 0 0 0
2187 1 90.0364393306588 22.306228214428273 2.606408450277231 0 0 1
3487 1 92.71851632175868 21.665348973634984 3.2040547462965208 0 0 0
3040 1 94.79078722983053 23.401501416200503 2.7510960924241146 0 0 1
2122 1 95.95553568401631 23.169821417536546 0.22808867356776052 0 0 1
1496 1 99.90702371201509 23.407746991575944 0.722405294809009 0 0 1
298 1 100.7256792805841 22.306574846206704 3.2412845041217118 0 0 0
950 1 104.77160353992502 23.679283193126267 0.6703726727516496 0 0 1
930 1 105.18101997226377 22.437964764596533 2.880799198268541 0 0 1
3036 1 109.03343176788074 21.72198031181796 0.6776836851104248 0 0 0
935 1 112.9003555399936 23.603090775863382 3.3284861195811524 0 0 -2
1554 1 113.52557132129527 22.215513522185656 0.8393125590346832 0 0 -1
41 1 117.85046212598586 23.088013067500718 0.7849272542275353 0 0 1
967 1 121.66948886769774 23.037537220774617 2.939800100884756 0 0 1
3450 1 125.84513445738213 23.235295895989164 2.0709900222340405 0 0 -1
2651 1 133.0999815511027 22.135168966998197 0.4987153136500275 0 0 0
1742 1 132.24233419816287 24.663993570476514 0.7608426646089989 0 0 0
1959 1 -2.091488330436775 26.602860969635536 0.9347772796195348 0 0 -1
2478 1 2.1954627604182413 25.505642219014966 0.9634593744682922 0 0 0
664 1 4.681324294241591 25.91833989790724 0.2889974262014433 0 0 1
3 1 11.189342802991279 25.91889920344148 0.2757873679826528 0 0 0
2595 1 10.116947682668338 25.833270453725902 2.647959983478136 0 0 0
3208 1 16.41686154212468 26.106063656143323 1.9682860097459187 0 0 0
1296 1 22.56750507524729 25.134206560370153 1.5233088669312476 0 0 1
3351 1 26.996982152917205 26.063284870862905 1.408671687783548 0 0 0
3440 1 29.584684619823975 25.15834866571617 1.3315308050172028 0 0 1
2139 1 35.1540884182672 27.931592609487428 1.563283027997237 0 0 0
2294 1 47.9537109097683 25.315517829378223 1.062365136507222 0 0 0
2804 1 50.835275306339405 25.490035337249985 1.1734714929869643 0 0 0
3522 1 65.29513473063929 25.149673485254084 1.5457870549836201 0 0 1
2038 1 65.6757680735049 26.561454060370245 3.7058671639000833 0 0 0
2184 1 70.2487037900598 25.58502184040646 3.230224842002448 0 0 1
618 1 73.01709463267927 25.625674225202804 3.2217714211245116 0 0 1