LAMMPS data file via write_data, version 29 Oct 2020, timestep = 150621

2099 atoms
1 atom types

3.678975663395164 266.32102433660816 xlo xhi
3.678975663395164 266.32102433660816 ylo yhi
0.1362583579034764 9.863741642096473 zlo zhi

Masses

1 18.015

Atoms # atomic

878 1 115.54994339444079 89.11747804153204 2.401308596826941 0 0 -1
1110 1 111.45538449908126 88.64708373123419 9.223999078406935 0 0 -5
1684 1 117.56379252368467 90.34388088262726 5.458761025734912 0 0 0
968 1 120.38119030180988 90.63727044073885 4.200681234530881 0 0 -1
822 1 118.63206494289788 88.97104613413981 9.806309026356736 0 0 -4
1703 1 109.02953764672407 89.80412861185303 5.9311220884085465 0 0 -5
770 1 104.67972312587467 91.17590665587846 8.894284767705324 0 0 -1
74 1 116.13745095111905 87.9245160286054 5.035630187326744 0 0 0
316 1 131.0412962025112 90.95121642876987 9.684250660374637 0 0 -5
383 1 125.17285295745734 90.61403444462648 6.728157688200014 0 0 1
781 1 122.84275326661174 91.19983215204381 3.0166219553669644 0 0 -2
133 1 110.81398040850259 90.3580596213879 1.6518191320156705 0 0 -1
885 1 133.3567983422868 89.83885837765831 1.2883749538480744 0 0 3
1086 1 116.1420068182315 90.37398826046692 9.19859030074057 0 0 -2
1954 1 113.86227102262568 87.77628458317882 6.883201860445904 0 0 -1
791 1 117.81261324890863 90.90872247266066 2.3793540098987083 0 0 0
246 1 127.37590534778107 89.0338502294943 7.880016382787612 0 0 -1
1419 1 129.48207876615226 88.61061024550955 6.1222553928962995 0 0 -1
581 1 111.51592442833731 90.56422142040473 7.264773652908724 0 0 -1
854 1 114.27563393159717 88.13659645150078 9.684305340770885 0 0 -4
400 1 133.60728935570563 89.18612684109527 3.892678163058398 0 0 -4
1869 1 131.80539451879358 90.04965516351997 7.092929220969411 0 0 0
385 1 127.12666582750559 90.36705040146315 3.242010736272658 0 0 0
268 1 134.7625856575359 89.92062640462464 6.966333013483665 0 0 2
976 1 114.38085448852267 90.56521818181695 7.195242121878572 0 0 -1
644 1 124.74458070275521 89.51163972842612 4.1506376914660095 0 0 2
1884 1 128.81161494864406 91.07800225175133 5.103822952418581 0 0 1
1643 1 128.34585219350092 91.20867174541091 9.06926211523678 0 0 2
11 1 106.28978975759712 91.21992645142154 6.3986729714803845 0 0 1
37 1 133.67818971828734 107.9586773297289 0.2563698184099628 0 0 -1
341 1 133.43670334572647 100.49903735968972 6.599573154482119 0 0 1
894 1 103.6336551612824 94.64398134691021 6.245006871135838 0 0 -3
662 1 114.85013548110597 92.29692809297113 0.4940920993996275 0 0 -4
979 1 118.81942353419404 93.85985912945988 0.3616551704960482 0 0 7
1184 1 134.92017765738706 121.67123327837699 1.9924605160475333 0 0 1
463 1 134.26507081194552 101.24021220063717 2.274335913038803 0 0 -2
484 1 106.8193117452865 92.05411260772664 0.6562993531513632 0 0 -1
629 1 102.99209714008265 93.88252524268391 2.271356578403381 0 0 -1
1766 1 122.88831881908584 92.42979988674139 7.551383974894698 0 0 -1
34 1 130.58837577084816 95.66368709735815 0.626908435600311 0 0 0
668 1 103.32523094941817 97.9801409542341 0.5465354619681428 0 0 1
930 1 104.27954214308879 97.51591943539121 7.550322032343672 0 0 -6
127 1 106.29249917696866 94.87313409044208 7.4736396642648435 0 0 -4
537 1 114.24534213944646 94.36635548885931 8.909132713355524 0 0 -6
1431 1 116.70788110848804 93.5427682227671 2.4970360143964077 0 0 -2
1915 1 125.84891068712513 96.42740314929007 5.950457994886903 0 0 0
669 1 124.58393413913942 96.4470768303335 2.673350118042 0 0 2
672 1 126.54563873387794 95.79085167037829 8.665787982855319 0 0 3
168 1 102.94970987995094 98.73669399772211 5.528020124017315 0 0 3
349 1 105.40241168893608 100.05173543477217 8.86441672314555 0 0 3
1334 1 112.51725889330358 95.75813501579356 0.6423588102184897 0 0 -2
160 1 118.55595046357668 98.35073662764006 7.884999485876824 0 0 -1
390 1 122.58096591966417 98.42417495041326 2.823538388013177 0 0 1
2009 1 125.00327508107867 100.30401030704384 8.089917844177604 0 0 -4
603 1 126.59115866149129 98.47897416184101 9.402262133437526 0 0 3
1620 1 129.1934269981662 99.69462971677335 9.014264365419 0 0 3
746 1 100.05673021088832 98.51201639667256 6.450485994596785 0 0 0
303 1 104.6934598996555 102.51034148640085 7.428155891043848 0 0 -5
297 1 109.49928309708794 99.21245248324477 8.50834717316338 0 0 -7
1251 1 113.64094966591963 101.55060719783229 0.8391900676491307 0 0 -6
816 1 117.49959119931485 96.86696558465735 0.3024567664009945 0 0 0
214 1 126.5895432707167 104.42286092526444 1.0110427040804069 0 0 2
5 1 130.99263577372832 101.33502373066747 1.0245449412111733 0 0 -1
33 1 104.38343706250409 106.58974326880613 6.331892109065024 0 0 -1
200 1 105.75786944277246 102.23804354540995 1.2416501984397594 0 0 0
222 1 108.27783113114435 102.14770118483088 2.4843838767505764 0 0 3
578 1 112.10856193711084 106.32638463104145 9.139819107321491 0 0 2
287 1 112.16374769554558 105.89115893039646 3.954327037816752 0 0 0
923 1 116.87853079244954 103.43393858219909 2.879391642115938 0 0 1
239 1 116.22697291879031 103.58331774752834 8.337269728191417 0 0 -2
612 1 118.02720038894121 105.70357190815567 9.153006090381064 0 0 -2
441 1 119.00357344275592 105.0833353623301 1.8430643139258553 0 0 -2
424 1 121.96345188633026 105.78953841102263 8.484656845533557 0 0 -2
82 1 129.19004709766696 105.61775489931343 1.2931634049911873 0 0 -2
1903 1 129.69378691321054 108.96201925126246 4.743231581584891 0 0 5
1752 1 131.60834696271075 103.53648297411196 4.19649317765754 0 0 -4
776 1 95.82333322414502 108.48176503405976 2.7159548087010976 0 0 -4
88 1 102.71167908173521 107.00198534989237 8.95507446507648 0 0 2
723 1 106.55925558369684 106.41355583587543 1.125945363436151 0 0 -3
60 1 112.77406812373827 110.2925051711016 1.9737745583923454 0 0 -1
204 1 115.27687703041946 108.32907407622484 1.1410179919140184 0 0 -5
107 1 117.51738031616057 108.27279497450908 9.857867762730882 0 0 -5
1119 1 119.41953598067104 107.61586488696489 7.212189810527668 0 0 0
1723 1 123.9471021730764 105.59338046387714 1.1815948538576295 0 0 -6
604 1 126.6057223803797 105.24552136389458 8.06040486984223 0 0 -2
1511 1 125.3696655824114 107.71056008165172 9.61427628492795 0 0 0
1113 1 129.27311920766343 105.49667279466547 7.027457222765211 0 0 -3
293 1 128.24559502129836 108.3333811408631 0.5820822958564604 0 0 3
1972 1 133.66248207380258 109.87817357407813 6.781495135820165 0 0 -7
561 1 101.4788318848729 110.6778091005953 1.6079686599860739 0 0 -1
863 1 100.33195859676633 112.24477537937821 9.45257231343516 0 0 -6
1012 1 100.14595764740758 108.24673167509657 0.9609803316445942 0 0 0
799 1 106.26168005972835 110.9718738386015 1.0449000824204842 0 0 2
244 1 110.06125778360602 109.81453143131993 5.393924702191858 0 0 0
467 1 115.3833357150763 114.34060692329741 2.3858067262494123 0 0 -1
927 1 115.80310242744068 112.19633867867465 8.4170705122265 0 0 -4
366 1 117.74149021586554 113.23382954436991 3.036982900840622 0 0 1
980 1 123.25135249989624 114.04087559261023 7.686540897778377 0 0 -1
541 1 124.53268690073422 111.26488163587086 8.00657413202422 0 0 0
1193 1 128.81145281359733 110.26138723123081 2.5454765367944776 0 0 -3
866 1 123.35372994537782 177.8451146612139 5.723585600911247 0 0 -1
1489 1 132.9123180589814 112.95039054443589 7.20518987408394 0 0 -3
1002 1 96.39920846986392 114.53107712778105 0.2914084409111545 0 0 -8
435 1 102.296314653539 116.62488213293727 0.966588719343261 0 0 -4
1516 1 105.26435813310492 111.14037867768681 8.433075336313482 0 0 -1
299 1 105.44611126664596 114.06433562564557 7.615193528502532 0 0 1
2099 1 110.95833376872099 112.39012158335346 1.1678741021947974 0 0 0
958 1 109.7077768340935 113.05764661849788 4.99028135244164 0 0 1
1458 1 110.41328472022485 114.376139670754 2.8699885608982716 0 0 0
675 1 116.84315284629784 115.2178090246499 9.586758148333814 0 0 0
594 1 119.51984339916613 114.54792912790322 1.0548618023760905 0 0 0
786 1 123.50500087805544 111.27982636116643 2.0524631451506767 0 0 0
13 1 127.11728005457766 114.49641582368085 1.5175303391983592 0 0 -1
1913 1 134.6922138422006 93.81634561235686 0.6433458619037238 0 0 4
777 1 99.64690024781689 121.9664986359238 8.92420960996898 0 0 -4
641 1 100.33672360776299 115.15180529480286 9.329243098433363 0 0 -6
707 1 104.5040661364548 115.05219015653257 2.504314850682237 0 0 2
447 1 100.92802540781504 115.16001260643174 5.957961223843222 0 0 -2
609 1 103.44545114292193 114.03240683660415 5.027935147909606 0 0 -4
432 1 108.4772348220549 114.5729990707985 8.192050074652002 0 0 -4
693 1 107.41730322928383 117.8560645319098 1.5919046422822225 0 0 2
306 1 112.56974222196594 118.7110477813834 2.09561844279962 0 0 0
2029 1 115.33558281610199 116.92131091950394 3.3378692287698906 0 0 -4
455 1 118.36493095034723 117.71550208055041 0.9267047368048614 0 0 1
660 1 122.33127066130518 117.43689540755246 1.0243766665183918 0 0 1
458 1 126.76778897822308 116.67832419255551 9.754960918166725 0 0 -3
454 1 127.84703426565535 119.12630723363135 0.7428459877799632 0 0 -1
1694 1 132.70001314408208 99.09504198293509 9.476395274016351 0 0 -3
889 1 96.65831641097921 118.3226452806439 0.640565459904019 0 0 2
1886 1 100.01871926257034 124.61272517726381 9.58013523256026 0 0 2
1000 1 103.29982205719577 117.88889255436403 7.9529805073570765 0 0 -2
951 1 105.29533047205464 116.32894813389157 9.500586210807004 0 0 0
1200 1 104.57134586231597 116.56694644548689 5.778768621693629 0 0 -3
386 1 110.69330423745863 119.62790187868154 9.792295517123053 0 0 -1
557 1 118.40378669958655 120.1234182625202 2.2059640032331247 0 0 0
1945 1 123.50350780541359 119.92605141458597 1.7050083564918137 0 0 -3
155 1 125.97812848033291 119.7207046592399 2.6624580515251473 0 0 1
631 1 130.36975276525624 119.32039822875021 1.57699270207582 0 0 3
1699 1 132.77685541741087 177.27977471239572 3.7484887312109763 0 0 -1
234 1 117.31461020659489 171.2772088600633 5.2028445085703465 0 0 -3
376 1 95.36066935788956 122.80396882447262 9.067182134235862 0 0 -3
456 1 95.17896078961121 119.59390031468163 2.658867665897266 0 0 -7
718 1 97.13760108079188 121.01223117052315 8.035396965231735 0 0 -8
220 1 105.01806702270038 124.07504735734454 3.388770954000941 0 0 -2
108 1 103.58194887740856 120.58188600404155 8.605353969710189 0 0 -7
134 1 106.99208970624777 122.46831223428781 1.6119580352777612 0 0 0
931 1 109.66969141443562 122.65132723432271 2.48879141226462 0 0 1
835 1 111.33437228269842 122.19847660207037 0.5250679981555033 0 0 1
1566 1 114.05036511101075 122.49189461842784 1.3520885660760824 0 0 2
257 1 115.79927728004293 121.65300365380438 8.889105219262948 0 0 1
70 1 118.45289393866986 121.69379501242308 9.77488282229088 0 0 2
1100 1 123.17153505664025 124.02779323425506 0.7079096295470202 0 0 0
23 1 125.75300607040423 123.9015243047496 1.4983139206131564 0 0 0
446 1 130.64935456438988 121.94913552354384 2.5050198263726964 0 0 2
556 1 130.27929957708065 123.99071675501078 0.444793741409137 0 0 5
715 1 91.53841396864478 123.59711077614055 1.2796908770153343 0 0 0
164 1 99.86268552493297 125.72295340157163 2.6559805056550294 0 0 -1
782 1 98.2098372899527 122.36106265950599 5.784685239405045 0 0 -8
539 1 106.94239434042049 126.96828251644862 0.6723681075050711 0 0 0
1625 1 109.80708111021492 127.1865694416534 1.5609529004324585 0 0 -1
466 1 114.27733641736738 126.89226501170732 0.35748508079223107 0 0 -2
378 1 114.7549582384011 125.08862936568565 2.370716097047855 0 0 -2
897 1 118.8986090574146 124.3609414039544 1.0996930676292997 0 0 -2
1151 1 121.30914703750162 124.83862148516224 2.6601251308317027 0 0 -3
1815 1 126.4120082894757 126.47700082635674 2.2025166767192266 0 0 4
365 1 131.02312342381148 126.42184918783464 1.354974997445854 0 0 -2
1593 1 133.55241624926026 126.61105776809589 2.379535614665715 0 0 3
687 1 132.33073658835238 91.61914940243489 4.860163620492252 0 0 -3
126 1 93.91955601702736 127.98764436529605 3.2457689431976835 0 0 -5
161 1 92.51870797393308 126.41453046686458 1.137562023382517 0 0 2
504 1 94.51420462705656 126.61759534788091 9.174696753472887 0 0 -2
678 1 96.94154150524999 126.49380136961382 2.813882600511123 0 0 -4
690 1 98.747108215069 128.9388705719631 1.6560508647822334 0 0 2
494 1 102.61717026740092 127.45623214292863 1.4299104406552394 0 0 -2
283 1 105.0742643549665 128.3682806591369 2.3020617023693566 0 0 -3
464 1 110.34351615672196 129.69012310378713 2.7056071119080003 0 0 2
492 1 114.83319551931977 129.56140472192612 1.2841571931928035 0 0 1
318 1 117.40967722826416 129.5789784837684 2.396170249305944 0 0 -2
337 1 119.19211375006392 129.0248778124961 0.43925920260824974 0 0 1
393 1 121.78938153447974 129.2326744104276 1.1074348565465326 0 0 0
1095 1 126.14803319291475 128.88985436766194 0.5474312546479068 0 0 1
952 1 91.25623416717627 129.11692597627058 3.161834789514842 0 0 7
864 1 95.9021038780041 129.26671659088058 2.0239655157266028 0 0 2
461 1 98.74165266279867 134.41194434496876 9.003550207204327 0 0 -2
830 1 101.08022249767174 132.5206654503774 2.9865343864644687 0 0 3
971 1 97.88491938621353 131.78522896745375 0.5016872754171982 0 0 3
922 1 102.90919482692728 131.97023416716684 1.2009017464338452 0 0 -1
71 1 105.33117317313474 132.0268757907367 1.6759418129117505 0 0 3
1654 1 110.30801078130017 131.74059574111203 0.8208179453739607 0 0 2
948 1 122.22021436856384 131.71245721243176 2.1425563443766604 0 0 4
1662 1 121.96535917695932 133.87846438322168 0.14756628673706906 0 0 2
836 1 126.37747009207371 131.95415922046493 1.306624943281055 0 0 2
368 1 128.78180691064037 131.62899552949793 2.3137189308111146 0 0 0
870 1 130.83107745871988 130.98940881904443 0.33689832584026935 0 0 1
2030 1 133.41105650002143 131.03772727319637 1.5887515737496594 0 0 4
795 1 134.0285417146523 133.71643095784952 2.5295849020182484 0 0 2
949 1 90.68168138758058 132.63621831073763 9.066711079933125 0 0 -5
39 1 96.84974712256725 134.48944822076402 6.7569068583387875 0 0 -3
843 1 95.25587193645721 132.38538035593447 1.212293143921764 0 0 0
110 1 98.62006872861448 135.9724486806347 1.5204766606471631 0 0 1
659 1 105.84208585278373 134.54091479205573 2.499091352687489 0 0 2
528 1 105.98374974493606 136.7047453630502 0.6031799246905352 0 0 -1
766 1 110.25947838453457 134.3795628489039 1.8143473893281936 0 0 1
1681 1 112.85143962250017 134.667297768874 2.512329201440423 0 0 2
577 1 114.71714656534421 133.83748944377106 0.4318859631652315 0 0 2
860 1 117.32907235364107 133.9617633545889 1.3913930014088123 0 0 2
584 1 121.97136814163092 136.34076068498177 1.398759636719413 0 0 3
962 1 124.49046072517565 136.54459866005942 2.388760640541017 0 0 2
2001 1 129.07199206377817 135.60307688607813 1.6237749372198567 0 0 3
114 1 126.52366265260233 135.84584842403467 0.48991875849716626 0 0 -1
1688 1 133.61415125895488 135.68899475383455 0.6751084262832903 0 0 -1
249 1 90.32135752816687 133.6865638635483 2.3407645778682107 0 0 -9
892 1 95.28999745424746 135.00222898703822 2.8853044589012242 0 0 -4
22 1 95.84718492741152 137.05384253287656 1.140056124445138 0 0 1
19 1 101.33393447116524 136.266103313533 1.6659251792975074 0 0 -3
571 1 106.32924951620984 139.0947823453816 1.5749628656143184 0 0 -2
506 1 110.71504087731599 138.80021135881304 0.31425951421301834 0 0 0
92 1 108.85238215732934 139.37993726515222 2.3236452326083326 0 0 -5
893 1 113.2059615842736 138.7249832878201 1.504155130840817 0 0 -2
462 1 117.9177886358417 136.46069285345783 2.007431210163697 0 0 0
2089 1 117.48394471190815 138.4738145093229 9.801102055211194 0 0 2
743 1 129.55032558212528 138.14456477163083 2.556643587443621 0 0 0
920 1 132.08328156325652 138.5560613194003 3.9804339244629188 0 0 2
314 1 133.78832721261264 138.33949440415427 1.6207772767804178 0 0 0
684 1 91.92698173239116 136.5207550946879 5.737259937233318 0 0 1
1484 1 92.95454917282548 140.35684144824262 0.8678088891627908 0 0 2
638 1 96.27715546504797 139.3290797400448 2.465886561041866 0 0 1
774 1 101.85407498767738 138.90074065626138 2.3544621547869915 0 0 2
524 1 101.67219452929172 141.02102137970124 0.475259286619776 0 0 1
344 1 113.36021816526457 141.5096525861947 2.1786403052114296 0 0 -1
59 1 118.00339138363526 140.70671620300521 1.504252371798345 0 0 4
760 1 120.59278366161976 141.25658218194496 2.4164452236822602 0 0 4
322 1 122.55619832253161 140.74929537232472 0.4783204164643436 0 0 3
635 1 124.8464708369003 140.70644578764276 1.9194594704929893 0 0 -2
698 1 129.42084450432736 140.2913519273558 0.7864291841372205 0 0 0
657 1 134.14942828730696 142.1602564662424 0.46725164083776816 0 0 1
94 1 93.67379548623273 139.22707018628552 3.52045366778859 0 0 -2
370 1 96.86405769789714 141.6993799433588 1.2484523326600367 0 0 3
729 1 96.86225598818216 143.9641044659529 3.3750367854169765 0 0 4
1005 1 101.81930404716594 143.47635306172924 1.5056429097884483 0 0 1
804 1 104.44156937593884 143.85990802986268 2.3083901228355255 0 0 -4
875 1 106.2969244703993 143.62308905909833 0.42061480355367376 0 0 3
817 1 108.73457956881833 143.7611267698809 1.2079793563073138 0 0 0
353 1 113.39196971977127 146.2226922656862 1.2136884830686812 0 0 4
117 1 113.32699017271486 143.73735917541782 9.85623313693584 0 0 -2
611 1 120.27701459929656 145.49117698589959 1.6986159404174521 0 0 1
304 1 125.257370439526 143.49649709382274 2.595299860411822 0 0 0
865 1 124.75596450693624 145.17010661169553 0.6048975322568175 0 0 2
692 1 129.8856735270821 143.14963164604316 1.8613461942344272 0 0 -1
1015 1 132.45258353498983 142.9047861109195 2.4638466076226875 0 0 0
950 1 132.56004691099844 145.66244819894592 3.2747950569558237 0 0 1
96 1 93.59858486006624 146.7766647734082 9.371686373965105 0 0 -1
710 1 93.59965289823239 144.31585422554406 8.497801277773886 0 0 0
956 1 101.79056291624852 147.97890528424787 0.571696363146855 0 0 1
677 1 104.34175771107785 148.238147185447 1.5592234929669213 0 0 0
759 1 108.96656561393299 146.4181298124172 2.107677546288883 0 0 1
442 1 108.48916695874193 148.2528489584713 0.41409314223734134 0 0 0
252 1 116.14467375367373 145.80902587384347 2.303602055694993 0 0 1
819 1 117.91071120134451 145.08470222236136 0.3452646675253685 0 0 1
12 1 120.93001532027293 148.14242897280374 2.4952514187748314 0 0 2
778 1 125.1942249841953 147.71021961131598 1.875938875774113 0 0 -1
905 1 123.4999288462937 148.3266502507889 3.700426915716368 0 0 -2
832 1 127.93523403079082 147.8216625700104 2.4384161690160373 0 0 1
942 1 132.35223939550343 147.53978840758958 1.112349764308343 0 0 -1
271 1 129.84981106996776 147.14641390814114 0.5691798749201334 0 0 3
918 1 93.58714050013899 150.64762057310796 9.537790241576516 0 0 3
555 1 96.24137866808017 144.5167990199959 0.5373456684325326 0 0 -1
558 1 95.72132334751042 150.52581548075258 1.3554514480621849 0 0 2
443 1 99.57983302671346 148.60475392657392 2.282910472296994 0 0 3
151 1 99.97974551869193 151.127629986066 3.314038467661043 0 0 2
358 1 104.3490478213158 150.84672986405124 2.2483835250614708 0 0 5
414 1 106.70991348585902 151.22704284170354 3.3384268053052093 0 0 5
591 1 108.82915066494311 150.8395116521077 1.2493993783647268 0 0 1
196 1 111.3864317668358 150.84108215272923 2.148709601492463 0 0 3
181 1 116.07984409605447 150.31988844181237 0.8520815652561459 0 0 -1
329 1 113.27380643601035 150.34189434481533 9.68422014096657 0 0 1
371 1 120.53952453110412 149.8682772382946 0.23995224373494303 0 0 -2
106 1 128.2823438554138 150.17460619855845 3.410078576069501 0 0 2
748 1 132.73727273564543 150.18696610416455 1.9748335319578068 0 0 3
767 1 93.34922701825862 153.39196039184563 9.112721788232394 0 0 -4
47 1 99.61087717000416 152.9366353721486 1.208399839819525 0 0 3
999 1 104.65758910807926 152.6967071369687 0.2531715659136423 0 0 -5
627 1 111.9435376328981 153.40790337971484 2.997260362985065 0 0 -1
150 1 116.46274124664974 153.02335826438778 1.9623225485046711 0 0 1
667 1 120.6882629266409 152.53689675522074 1.5693720677155878 0 0 2
943 1 123.21376105325646 153.1255754841554 2.3382051548212828 0 0 2
216 1 124.94875043859889 151.93461941825782 0.4031774464939607 0 0 0
674 1 127.77095476101009 151.9569955997144 1.3363171364362543 0 0 0
995 1 132.11086685262106 152.23179409050695 0.34473295503539997 0 0 -1
852 1 95.71136813029041 154.64641488393931 0.3929981265496357 0 0 3
780 1 98.1818892564441 156.43123821327893 9.453892827913275 0 0 0
255 1 100.3156903102617 155.51265550703909 1.6198511049532975 0 0 2
521 1 102.74272580162983 155.60128809156637 3.037894223547443 0 0 2
903 1 104.87104241110453 155.22007199323514 1.4078745207965746 0 0 -2
427 1 107.22374818783827 155.8624650111408 2.256490786298154 0 0 2
753 1 108.89122455853571 155.27599806073647 9.801539972345582 0 0 2
793 1 111.29216311213588 155.59012156683724 1.229953918869491 0 0 0
912 1 116.43708098170005 157.24446927755872 1.0898445521398814 0 0 2
966 1 115.77565356784068 154.72612452315016 0.1668857051563375 0 0 2
1001 1 118.85449643645627 157.4209756584702 2.422463269840297 0 0 1
505 1 120.760372735063 157.03836818566927 0.5387370114839161 0 0 2
673 1 123.61052035653064 157.863491039738 1.1354672501194358 0 0 -1
2 1 128.08515387083716 154.8141162605313 2.065474955316371 0 0 0
533 1 130.63510674073163 155.03032849118892 3.4076794528794876 0 0 1
436 1 132.66580244597236 154.7837889817262 1.4341574742799739 0 0 1
65 1 98.21914759600925 159.89884817015388 0.14747391585243363 0 0 0
40 1 97.4474564630151 157.99648851231484 1.9429779566554939 0 0 -1
877 1 101.57727092114054 156.83704221540737 9.432873023909869 0 0 -3
203 1 101.0266649413331 159.33133715112115 0.7934394310106522 0 0 1
735 1 107.13973922904465 158.17703148097084 3.212427367627645 0 0 1
31 1 107.11863961628178 159.94519218610478 1.090841008999392 0 0 -2
321 1 111.96283182006879 158.1038264753538 2.2049818133252144 0 0 -1
18 1 111.80386129743852 159.98733830864646 0.3233943959151064 0 0 2
929 1 119.28748595987578 159.87913841226867 3.5509618578066053 0 0 1
655 1 123.8034098331477 160.33417791279976 2.4188717059732383 0 0 3
1018 1 128.4668229257224 159.23259834051737 1.4500347041050172 0 0 2
975 1 126.4852244921359 159.81773923823485 3.328526126242792 0 0 1
1750 1 130.83821251118115 159.11208276578216 2.6543460749274117 0 0 1
983 1 132.83808577431708 159.06864558592417 0.5400727054876269 0 0 2
1315 1 131.12302542604039 177.15194294758538 8.437851069707282 0 0 -2
989 1 103.46866968907557 161.4785322212952 2.2356562040380044 0 0 -1
722 1 101.80507992958631 162.34734320099938 9.386875895386417 0 0 0
765 1 107.84378443753815 162.35442204332784 2.090404846922708 0 0 -2
457 1 110.18350983280696 162.7141979812847 3.6702404478962634 0 0 0
217 1 111.79751895282952 162.5181737752502 1.737474735659764 0 0 -1
224 1 114.39465048819093 162.36504539078254 2.5516926482771702 0 0 0
251 1 118.88203958290765 162.11701199282456 1.761602651521079 0 0 1
1024 1 131.08863038065053 161.60977361978675 3.5043350152359936 0 0 0
600 1 105.65272388359809 162.37652999933172 3.897598474120068 0 0 -2
946 1 111.20136022963578 166.29719075439309 1.8291410920500257 0 0 2
281 1 114.68569542707898 164.8275702928936 3.4870664943339746 0 0 -3
185 1 119.3866178733471 164.44505814132464 2.622246343795523 0 0 2
1597 1 121.7780562544366 164.607279662743 3.636828994367103 0 0 2
17 1 123.80049496169605 164.42030685786088 1.86527169133796 0 0 -1
53 1 126.56579956130528 164.31932763535016 2.3449733515676443 0 0 2
726 1 130.8020536508621 163.63194814678755 1.5659717120708259 0 0 1
880 1 131.1187706287173 166.2177111918596 2.9158110574631815 0 0 2
1420 1 133.87081693172243 166.41015692963077 3.3841391048402945 0 0 2
686 1 114.25807914206354 167.30478116207613 1.8990276714831729 0 0 0
800 1 113.37962331240776 170.14332692321386 2.0979901138051096 0 0 -1
1017 1 118.95628763412391 169.11958471376656 1.6929822725893402 0 0 0
847 1 116.59543602190334 169.08842903055094 3.2410661125184714 0 0 1
186 1 121.7097370361839 169.1419524489871 2.315295606390129 0 0 3
1117 1 126.73266918887548 166.53834153358167 3.815125264115802 0 0 1
961 1 126.4827530391335 168.57342547087615 1.8927768452903964 0 0 -1
2078 1 134.60259133457276 168.89176015349392 4.502340841164642 0 0 1
542 1 112.13760609802671 171.437249398212 9.721778224635598 0 0 1
56 1 122.12341392043648 171.5049738056094 3.736532378760958 0 0 0
384 1 126.8543437138933 171.2294267503535 2.6293477172908037 0 0 2
162 1 131.13202304348093 170.49500141808568 1.7018249990927328 0 0 2
651 1 129.5686704051859 171.30359749455948 3.9899137501735233 0 0 1
315 1 133.79732039856233 170.80643090703194 2.1711795202198276 0 0 1
756 1 119.43127892902291 173.2235475560647 0.6675323696927643 0 0 1
78 1 117.17650222679697 172.95870229220108 2.491888001614279 0 0 0
430 1 121.9856341674297 173.47453405689708 1.3507861156738863 0 0 0
410 1 122.06289224156403 176.15294678357242 2.534744818016026 0 0 -2
738 1 126.57524573088446 175.7672474301045 1.8065609282533517 0 0 0
829 1 129.36168400746675 174.95495125709164 2.6934994534117744 0 0 0
982 1 133.58620641073387 175.42424740617935 1.7651716997982974 0 0 1
1985 1 132.1659365186687 93.29661013622768 8.591501832963974 0 0 5
873 1 121.25765326316115 177.4136369402029 0.2787607800841734 0 0 0
532 1 125.76584311370378 177.07479444806654 4.484639640668011 0 0 1
1177 1 132.08744586242696 97.41758288544449 3.8733733249163262 0 0 -3
1397 1 126.57567071626164 173.21268531373798 0.602717288339029 0 0 0
308 1 106.71526720335278 92.76169150960986 3.679500615600049 0 0 1
61 1 110.60097457953667 93.96336696943493 0.9843974280184016 0 0 -2
787 1 111.68139864788655 93.31135056393084 3.6271810999455427 0 0 3
1677 1 134.77409708530655 123.28530762211032 9.622599918092273 0 0 2
121 1 121.55167338800814 93.84982620469549 1.2535511176990088 0 0 2
1590 1 134.67884721424267 96.34069646918032 0.25275170079967724 0 0 1
76 1 134.9689609785234 97.66805293727325 7.687736122275226 0 0 -3
9 1 127.89694435636014 93.48068058993894 7.098907576030535 0 0 -4
260 1 114.35370397391209 172.4626691278393 8.356672055426973 0 0 -1
1153 1 134.55789269049987 128.0794292329821 8.332666531148647 0 0 -1
574 1 108.72567188264209 96.18726804202039 1.1281227103529587 0 0 -1
763 1 112.26684180866683 95.48778753557266 5.180315904353348 0 0 2
984 1 111.68523858889478 93.34954823842496 7.778201494133686 0 0 -3
1207 1 123.67314346636512 91.6315710763273 0.3944804263498707 0 0 2
148 1 119.35792938974834 93.50986454870312 3.747887031475316 0 0 1
300 1 124.42751774006491 94.83415341957215 0.34495892552262264 0 0 -3
327 1 127.95611191144818 94.38188140218489 1.2336141486793746 0 0 -2
44 1 130.35566238784807 93.99020317274199 6.038281944237312 0 0 0
428 1 132.5964564770088 93.76609387555212 2.149326485895462 0 0 -1
883 1 100.4808764309736 98.27736649089557 9.191540238834559 0 0 0
1673 1 101.07185274554048 100.2734637716603 3.4933758353653634 0 0 -2
1165 1 105.31029683374517 96.62355885994884 2.3013538213815763 0 0 -1
828 1 107.36454166007915 95.46974890142039 3.7308016206853925 0 0 0
166 1 108.64810829771216 98.8066829566045 1.4786014758166615 0 0 0
179 1 113.01748849413018 97.04550469085906 2.9471051628084104 0 0 -1
699 1 119.0883982182767 95.97069781118421 4.901978088221282 0 0 -2
534 1 125.8604244877938 92.65309597375322 4.960138580488475 0 0 2
1481 1 119.06493354295993 100.39957885427432 9.66325035203649 0 0 0
1530 1 123.33241832345482 102.76794841764422 0.5120462091497094 0 0 -3
1671 1 126.10575880831831 99.34122848300494 2.417365381823407 0 0 0
258 1 121.72520608197507 100.63421079384389 4.754822072357092 0 0 -1
46 1 128.4015561688781 102.40026495561877 7.639790572835273 0 0 -5
2027 1 128.3991177126865 98.04170038047955 3.8657159644959407 0 0 -4
944 1 134.02623964054052 93.60377993427261 5.2832821041931055 0 0 -1
343 1 99.97835451302971 101.31605221116597 5.777541043526976 0 0 5
124 1 102.48033196002231 101.80761252458835 1.427830758004798 0 0 -2
994 1 109.90549727504079 102.45779944417235 9.778373307077645 0 0 -2
856 1 106.0445982854787 99.2883322365165 2.220482781187206 0 0 -3
180 1 114.99409779388127 99.89913671279771 5.29291911213011 0 0 6
230 1 120.66980854253812 104.16396747193372 4.9109119167259125 0 0 -2
1180 1 115.5213926494203 98.74935549836336 9.823952971949248 0 0 -1
140 1 128.52648690485685 103.12602970007053 4.632697809877148 0 0 -2
706 1 131.5946889528761 100.71318388050379 4.471244667993131 0 0 0
818 1 104.55475302816372 104.69464282968923 9.577330409880147 0 0 2
286 1 106.40977358643929 104.18838701135668 6.329764257318714 0 0 -3
538 1 111.16750051610742 103.53282524164382 2.513320839515175 0 0 0
1243 1 113.12077677325256 104.91976996290501 6.479944622194497 0 0 -2
1964 1 115.70611315104632 102.95277198448336 5.644949241778188 0 0 1
849 1 120.41876392639143 102.88080550455538 0.5676971966419118 0 0 -5
207 1 120.34561876140405 104.10209261829874 7.733945705450756 0 0 -2
1650 1 126.02792560272623 103.36744505984761 3.590222595007381 0 0 0
256 1 119.56337805804374 101.90162507444008 3.252059290768126 0 0 2
1450 1 126.07107532878719 106.30864739881656 4.126489117845003 0 0 -2
1239 1 129.10655036283606 106.17230611711945 4.141438397386343 0 0 -2
621 1 132.71964895815353 103.72056921321148 1.3477128753270042 0 0 -1
826 1 98.21676051263134 108.16790523369968 3.6928599155588215 0 0 -9
500 1 102.47662367753341 104.66512159604524 1.849970666625543 0 0 -1
8 1 103.89192880386717 108.1856181135666 3.1339195216573104 0 0 3
947 1 104.77506011947173 105.41559298546011 3.698560712017778 0 0 1
926 1 111.47104874539235 107.84034224934474 1.8153479713040857 0 0 -5
277 1 115.60881334995804 106.20345750397475 5.160822575183742 0 0 -1
685 1 121.0752888961829 107.03143065120881 0.9878768454548479 0 0 -1
1318 1 114.76158304351993 105.66552285014528 2.5656286207172037 0 0 0
64 1 118.93573894013836 108.45926153039213 2.872207800047024 0 0 -3
1685 1 124.1276506857599 107.02419818566538 6.68684682973834 0 0 -1
824 1 122.98659383753505 107.61159582255458 3.4198438869078966 0 0 0
1947 1 125.91903024893581 109.0482052792697 5.973898481932909 0 0 2
1936 1 130.79005345233418 109.64691186830603 7.470611044843961 0 0 -5
827 1 134.09709175596498 107.33401779299113 7.472043355401908 0 0 3
202 1 130.33265129784184 91.88177716397111 2.7150776365719844 0 0 1
1638 1 100.5062967947073 109.80708141055106 4.08652695074433 0 0 0