
# Create simulation box of size 270 x 270 x 20 Angstrom
#
lattice	            sc 1
Lattice spacing in x,y,z = 1.0000000 1.0000000 1.0000000
region 	            all block 0 270 0 270 0 20 units box
create_box          1 all
Created orthogonal box = (0.0000000 0.0000000 0.0000000) to (270.00000 270.00000 20.000000)
  2 by 3 by 1 MPI processor grid

# fill box with 7151 randomly distributed atoms
#
create_atoms        1 random 48200 63782 all
Created 48200 atoms
  create_atoms CPU = 0.003 seconds
mass                1 18.015

# Define potential
#
pair_style          sw
pair_coeff          * * ML_mW.sw mW
Reading sw potential file ML_mW.sw with DATE: 2019-02-27

# Run minimization
#
minimize            1.0e-8 1.0e-8 10000 1000
WARNING: Using 'neigh_modify every 1 delay 0 check yes' setting during minimization (../min.cpp:187)
Neighbor list info ...
  update every 1 steps, delay 0 steps, check yes
  max neighbors/atom: 2000, page size: 100000
  master list distance cutoff = 6.0032907
  ghost atom cutoff = 6.0032907
  binsize = 3.0016454, bins = 90 90 7
  1 neighbor lists, perpetual/occasional/extra = 1 0 0
  (1) pair sw, perpetual
      attributes: full, newton on
      pair build: full/bin/atomonly
      stencil: full/bin/3d
      bin: standard
Per MPI rank memory allocation (min/avg/max) = 5.555 | 5.563 | 5.570 Mbytes
Step Temp E_pair E_mol TotEng Press 
       0            0 1.3104625e+08            0 1.3104625e+08    8422633.1 
     893            0      -519484            0      -519484   -416.77259 
Loop time of 12.9514 on 6 procs for 893 steps with 48200 atoms

99.7% CPU use with 6 MPI tasks x no OpenMP threads

Minimization stats:
  Stopping criterion = max force evaluations
  Energy initial, next-to-last, final = 
      131046247.638764  -519480.204157023   -519483.99508751
  Force two-norm initial, final = 2.1457810e+09 17.150719
  Force max component initial, final = 6.9133203e+08 3.1582335
  Final line search alpha, max atom move = 0.031546767 0.099632057
  Iterations, force evaluations = 893 1000

MPI task timing breakdown:
Section |  min time  |  avg time  |  max time  |%varavg| %total
---------------------------------------------------------------
Pair    | 10.781     | 11.477     | 12.115     |  14.5 | 88.61
Neigh   | 0.38717    | 0.39448    | 0.40014    |   0.7 |  3.05
Comm    | 0.11553    | 0.75565    | 1.457      |  56.8 |  5.83
Output  | 0          | 0          | 0          |   0.0 |  0.00
Modify  | 0          | 0          | 0          |   0.0 |  0.00
Other   |            | 0.3244     |            |       |  2.50

Nlocal:        8033.33 ave        8131 max        7907 min
Histogram: 1 1 0 1 0 0 0 0 0 3
Nghost:        7840.67 ave        7934 max        7755 min
Histogram: 1 0 1 0 1 1 1 0 0 1
Neighs:        0.00000 ave           0 max           0 min
Histogram: 6 0 0 0 0 0 0 0 0 0
FullNghs:     228431.0 ave      233574 max      222063 min
Histogram: 2 0 0 0 1 0 0 0 0 3

Total # of neighbors = 1370588
Ave neighs/atom = 28.435436
Neighbor list builds = 36
Dangerous builds = 0

# Add velocity/set timestep
#
velocity            all create ${TEMP} 120598 rot yes dist gaussian
velocity            all create 225 120598 rot yes dist gaussian
timestep            5.0

# Define output
#
compute	            1 all msd
thermo	            100
thermo_style        custom step temp press vol etotal ke pe c_1[4] density

# Neighbor lists
#
neigh_modify        delay 0 every 1 check yes

# Set fixes
#
fix                 1 all momentum 10 linear 1 1 1 rescale
fix                 2 all nve
fix                 3 all temp/csvr ${TEMP} ${TEMP} 500.0 928347
fix                 3 all temp/csvr 225 ${TEMP} 500.0 928347
fix                 3 all temp/csvr 225 225 500.0 928347
fix                 4 all press/berendsen iso ${PRES} ${PRES} 1000.0 modulus 20000
fix                 4 all press/berendsen iso 1 ${PRES} 1000.0 modulus 20000
fix                 4 all press/berendsen iso 1 1 1000.0 modulus 20000

# Run 0.5 ns equilibration
#
dump                1 all custom 1000 eq.${NAME}.dump id type x y z vx vy vz
dump                1 all custom 1000 eq.wall_225K_20A.dump id type x y z vx vy vz
run                 100000
Per MPI rank memory allocation (min/avg/max) = 4.805 | 4.813 | 4.820 Mbytes
Step Temp Press Volume TotEng KinEng PotEng c_1[4] Density 
     893          225     596.7424      1458000   -487157.78    32326.214      -519484 9.6139538e-35    0.9889466 
     900    94.785977    1293.3717    1460686.7   -486307.94    13618.097   -499926.04  0.031320979   0.98712756 
    1000    159.13867   -46.926277      1460360    -473432.9    22863.781   -496296.68   0.42273357   0.98734839 
    1100    185.52459   -76.987544    1458685.2   -466276.03      26654.7   -492930.73   0.87145756   0.98848203 
    1200    202.39996   -33.147752    1457127.8   -462000.57    29079.221   -491079.79    1.3670343   0.98953859 
    1300     212.2888   -100.42936    1456248.4   -459571.73     30499.97    -490071.7    1.8898237   0.99013613 
    1400    218.41549    12.695624    1455756.8   -458161.41    31380.204   -489541.61    2.4345891    0.9904705 
    1500    222.17066   -53.701613    1455305.3   -457238.28    31919.718      -489158    2.9803657    0.9907778 
    1600    225.43359   -1.9129497    1454026.2   -457144.68     32388.51   -489533.19    3.5415868   0.99164935 
    1700     225.9143    31.559529    1453941.1   -457001.58    32457.574   -489459.15    4.0900769   0.99170737 
    1800    225.96392   -57.832266      1453680   -457209.94    32464.702   -489674.64    4.5886512   0.99188555 
    1900     225.4864   -109.94496    1453456.9   -457578.09    32396.096   -489974.19    5.0702473   0.99203775 
    2000    225.92968    9.2649522    1453663.2   -457671.02    32459.783    -490130.8     5.542853   0.99189698 
    2100    225.19368    63.510478    1454101.4   -457851.74    32354.041   -490205.78    6.0504643   0.99159807 
    2200    227.48751    30.849669    1454842.1   -457869.87    32683.601   -490553.47    6.5355253   0.99109319 
    2300    226.27653    14.367923    1455022.4   -458382.09    32509.615   -490891.71    6.9922643   0.99097038 
    2400    225.32049    39.347144    1455093.9   -458580.79     32372.26   -490953.05    7.4492016   0.99092171 
    2500    225.38313    10.594111    1456360.3   -458540.77     32381.26   -490922.03    7.8856043   0.99006007 
    2600    224.89741      18.2118    1456839.7   -458790.88    32311.475   -491102.35    8.3745707   0.98973425 
    2700    226.99602    47.790322    1457874.2   -458818.19    32612.986   -491431.17    8.7716715   0.98903192 
    2800    226.35921   -6.3483792    1457535.9   -458884.23    32521.494   -491405.72    9.2554966   0.98926151 
    2900    226.36603     35.61016    1458946.5   -458946.08    32522.474   -491468.56    9.6146722   0.98830504 
    3000    225.19978    26.803441    1458629.2   -459447.97    32354.917   -491802.89    10.070517      0.98852 
    3100    225.65287    5.8801394      1459266   -459417.64    32420.014   -491837.66    10.500025   0.98808862 
    3200    227.97968     11.56211    1460520.3   -459293.23    32754.311   -492047.54    10.938487   0.98724008 
    3300    226.41404   -20.519053    1460816.2   -459508.85    32529.372   -492038.22    11.389586   0.98704011 
    3400    226.07158    9.7895574    1460563.2   -459806.76    32480.171   -492286.93    11.799977   0.98721103 
    3500    226.56082    35.732649    1461482.9   -459992.85     32550.46   -492543.31    12.201127   0.98658983 
    3600     226.0555     2.959601    1461153.5   -460156.74     32477.86    -492634.6    12.620662   0.98681225 
    3700    227.18809    62.347528    1461816.6   -460085.83    32640.582   -492726.42    13.077322   0.98636458 
    3800    225.81892    19.020737    1462962.3   -460190.55     32443.87   -492634.42    13.505757   0.98559213 
    3900    225.38836    32.805043    1464517.6   -460379.61    32382.011   -492761.62    13.953642   0.98454548 
    4000     227.1756      20.3799    1464269.5   -460409.57    32638.788   -493048.35    14.381038   0.98471228 
    4100    224.36644   -8.1055277    1464662.2   -460762.75     32235.19   -492997.94    14.750816   0.98444826 
    4200    225.12074   -33.693312    1465166.8   -460809.42    32343.561   -493152.98    15.145586   0.98410923 
    4300    224.86905    26.207653      1464669   -460796.32    32307.401   -493103.72    15.546251   0.98444371 
    4400    226.23206   -61.099529    1465109.4   -460910.96    32503.227   -493414.18    15.822876   0.98414776 
    4500     226.5062   -6.5922084    1465367.2    -460881.5    32542.613   -493424.12    16.194571   0.98397465 
    4600    226.74832    31.618494    1465999.5   -460961.61    32577.399   -493539.01    16.518048   0.98355024 
    4700    225.50177   -2.8499664    1466564.5   -461027.93    32398.304   -493426.24    16.923193    0.9831713 
    4800    225.59793    21.880605    1466924.4   -461165.39     32412.12   -493577.51    17.256119   0.98293009 
    4900    224.78331   -18.745606    1467224.1   -461371.51    32295.082   -493666.59    17.550961   0.98272931 
    5000    224.28915   -57.042362      1467193   -461506.27    32224.085   -493730.35    17.905985   0.98275018 
    5100    225.09701    57.778223    1467133.9    -461312.5    32340.152   -493652.65    18.279523   0.98278971 
    5200    225.20507    1.9992478    1467717.6   -461558.28    32355.677   -493913.95    18.542833   0.98239889 
    5300    225.31334    54.076349    1467907.1   -461539.91    32371.232   -493911.14    18.838576   0.98227206 
    5400    224.23689    25.765919    1467750.1   -461699.89    32216.576   -493916.47     19.13155    0.9823771 
    5500    224.72413    20.558668    1468578.1   -461691.19    32286.579   -493977.77    19.422189   0.98182324 
    5600    225.34162   -22.465793    1469878.3   -461423.38    32375.296   -493798.67    19.803846   0.98095475 
    5700    225.27241    36.455482    1469324.3   -461397.76    32365.352   -493763.11    20.116804   0.98132463 
    5800    226.32126    54.635227    1470364.1   -461230.83    32516.042   -493746.87    20.515842   0.98063068 
    5900     225.8356    61.869167    1470975.5   -461550.11    32446.267   -493996.37    20.888151   0.98022306 
    6000    226.35102   -19.440023    1471131.6   -461566.92    32520.319   -494087.24      21.2965   0.98011908 
    6100    225.45098  -0.39077824    1470323.7   -461895.62    32391.008   -494286.63    21.626934   0.98065759 
    6200    224.70092     75.50178      1470790   -462042.54    32283.245   -494325.78    21.957263   0.98034671 
    6300    225.33319    26.132884    1471558.7   -462282.64    32374.084   -494656.73    22.265638   0.97983463 
    6400    226.08964    10.539489    1471426.7   -462228.62    32482.765   -494711.39    22.507676   0.97992249 
    6500    224.10447  -0.74144888    1472154.4   -462284.51    32197.552   -494482.06     22.87219   0.97943812 
    6600    224.51194    27.364958    1472211.4   -462308.99    32256.094   -494565.08    23.258468   0.97940019 
    6700    225.31056    37.157889    1472378.7   -462203.75    32370.833   -494574.58    23.618487   0.97928893 
    6800    224.23797    1.5734793    1472437.8    -462408.8    32216.733   -494625.53    23.976986   0.97924962 
    6900    225.32662    60.150068    1473035.3   -462406.04     32373.14   -494779.18    24.293254   0.97885242 
    7000    223.58789    1.7606852      1473514   -462613.49    32123.333   -494736.82     24.56689   0.97853442 
    7100     224.7441    60.754704    1473779.8   -462403.72    32289.449   -494693.17    24.913213    0.9783579 
    7200    224.94234    25.771485    1473740.9   -462106.21     32317.93   -494424.14     25.25694   0.97838372 
    7300    224.21868   -2.3336286    1474724.7   -462423.87     32213.96   -494637.83    25.512841   0.97773105 
    7400    223.74925    17.500055    1474487.3   -462505.36    32146.517   -494651.88    25.742628   0.97788845 
    7500     224.8378   -8.4972299    1474028.9   -462543.26    32302.911   -494846.17    26.041989   0.97819257 
    7600    224.06277   -5.2282944    1474438.9   -462704.12    32191.561   -494895.68    26.377573   0.97792058 
    7700    226.80601     32.07334    1475000.8   -462491.34    32585.687   -495077.02    26.724432   0.97754801 
    7800    225.06868    48.247885    1475725.2    -462533.9    32336.082   -494869.98     27.04265    0.9770682 
    7900    225.55413    69.124264    1475790.7   -462528.01    32405.827   -494933.83    27.417208   0.97702479 
    8000    225.05859    52.008991    1475778.8   -462533.75    32334.632   -494868.38    27.785122   0.97703269 
    8100    224.01117   -77.366244    1475408.9    -462885.3    32184.147   -495069.44    28.084491   0.97727767 
    8200     225.0292    69.830151    1475309.9   -462839.94     32330.41   -495170.35    28.402109   0.97734325 
    8300    225.08507   -10.805313    1475896.7   -462674.73    32338.437   -495013.16    28.767064   0.97695466 
    8400    225.30209    32.806247    1475881.8   -462866.51    32369.616   -495236.13    29.059273   0.97696449 
    8500     225.7877    18.679101    1475663.9    -462541.1    32439.384   -494980.48    29.421004   0.97710879 
    8600    225.04478   -4.3184266      1476350   -462702.36    32332.648   -495035.01    29.736413   0.97665469 
    8700    225.34284    21.384483    1476003.5   -462783.38     32375.47   -495158.85    30.010129   0.97688397 
    8800    225.01269    32.533008    1477011.7   -462596.16    32328.037   -494924.19    30.267247   0.97621716 
    8900    225.74083    31.934688    1477231.7   -462560.46    32432.651   -494993.11    30.500305   0.97607177 
    9000    226.00614   -45.996257    1477753.1   -462667.58    32470.768   -495138.35     30.74126   0.97572738 
    9100    225.09102    65.094192    1477693.3    -462768.5    32339.292   -495107.79    30.945565   0.97576684 
    9200     227.3734   -41.127209      1478462   -462549.48    32667.205   -495216.69    31.221056   0.97525954 
    9300    224.94309   -47.055977    1477953.1   -462771.28    32318.038   -495089.32    31.538736   0.97559534 
    9400    225.06853   -23.200735    1478395.7   -462809.35     32336.06   -495145.41    31.894566   0.97530323 
    9500    225.89789    3.3441013    1478837.1   -462866.57    32455.215   -495321.79    32.280939   0.97501217 
    9600     224.5416    36.525752    1478732.7   -462870.64    32260.355   -495130.99    32.560358   0.97508099 
    9700    223.77459    -3.598841    1479480.9    -463070.2    32150.158   -495220.36    32.832257   0.97458788 
    9800    224.80852   -7.0356808    1479319.7   -463164.35    32298.704   -495463.05     33.10061    0.9746941 
    9900    226.19399    29.874141    1479540.4   -463063.84    32497.757    -495561.6    33.367879   0.97454867 
   10000     225.0893   -10.786626    1479643.5   -463090.44    32339.044   -495429.48    33.625931   0.97448079 
   10100    226.28667   -7.2614645    1479448.6   -462966.19    32511.073   -495477.26    33.929695   0.97460912 
   10200    224.50651    3.2924619      1479238   -463314.74    32255.314   -495570.05    34.144293   0.97474791 
   10300    225.57843    7.9685375    1479640.3   -463089.82    32409.319   -495499.14    34.389932   0.97448289 
   10400    224.75104    4.2866454    1479695.6   -463367.11    32290.445   -495657.55    34.567056   0.97444646 
   10500    225.28464   -17.283002    1479679.6   -463210.26    32367.109   -495577.37    34.840626     0.974457 
   10600    225.39815     39.03131    1480099.3   -463017.13    32383.417   -495400.54    35.056547   0.97418068 
   10700    225.43123   -13.523126    1479803.1    -463094.3     32388.17   -495482.47    35.164062   0.97437565 
   10800    225.14115    -31.19962    1479398.2      -463041    32346.493   -495387.49    35.372367   0.97464232 
   10900    224.13894   -10.666956    1479294.7   -463086.08    32202.505   -495288.58    35.569339   0.97471055 
   11000    225.69033   -1.2131066    1478572.5   -463064.25    32425.395   -495489.65    35.804983    0.9751866 
   11100    226.91158    3.0227675    1478555.6   -462790.28    32600.855   -495391.13    36.084567    0.9751978 
   11200    225.92753    8.1124632    1478620.6   -462863.67    32459.474   -495323.15    36.371325   0.97515488 
   11300     225.9665   -4.8666353      1479223   -463060.24    32465.074   -495525.32    36.661903   0.97475778 
   11400    226.40638    89.076033    1479564.5   -463043.76    32528.271   -495572.03    36.955524    0.9745328 
   11500     224.6249   -17.911197      1479439   -463256.86    32272.324   -495529.19    37.210634   0.97461544 
   11600     225.0639    22.953897    1478976.6   -463251.23    32335.395   -495586.62    37.445226    0.9749202 
   11700    224.39466   -33.096362    1479887.6   -463666.51    32239.244   -495905.76    37.748724   0.97432002 
   11800    223.56882     48.63782    1479210.2   -463786.69    32120.594   -495907.28    37.959393   0.97476625 
   11900    224.25032   -3.0509646    1480810.5   -463455.62    32218.506   -495674.13    38.305491    0.9737128 
   12000    226.51991   -54.167185    1481802.6   -463466.22    32544.583    -496010.8     38.60041   0.97306091 
   12100    224.82289   -17.457431    1481518.9   -463703.35    32300.769   -496004.12    38.797979    0.9732472 
   12200    226.26804    33.435912    1482211.8   -463632.64    32508.397   -496141.03    39.038384   0.97279225 
   12300    225.48449    54.789684    1482207.8   -463717.74    32395.822   -496113.56    39.237952   0.97279486 
   12400    225.80981   -23.190854    1482383.9   -463398.61    32442.562   -495841.18    39.447894   0.97267927 
   12500    225.98633    -38.87582    1482181.3    -463267.2    32467.922   -495735.12    39.644989   0.97281228 
   12600    225.95829   0.70830219    1482444.2   -463142.21    32463.894   -495606.11    39.863984   0.97263975 
   12700    225.73037    25.236648    1482891.5   -463300.95    32431.148    -495732.1    40.060927   0.97234632 
   12800    226.02785     15.60838    1483548.8   -463506.64    32473.887   -495980.52    40.220859   0.97191551 
   12900    226.16264   -1.4789282    1483137.3   -463457.18    32493.253   -495950.43    40.445638   0.97218523 
   13000    224.82484    10.615628    1482962.9   -463639.65    32301.049    -495940.7    40.629772   0.97229952 
   13100    224.64982   -39.753708    1483222.9   -463622.98    32275.903   -495898.88    40.836579   0.97212912 
   13200    224.25399    8.0825275      1482639   -463854.33    32219.034   -496073.36    41.036215   0.97251197 
   13300    225.70771    42.896733    1482820.7   -463774.18    32427.893   -496202.07    41.224855   0.97239278 
   13400     225.7919   -14.406615    1484029.5   -463649.02    32439.989   -496089.01    41.458539   0.97160073 
   13500    225.30296    23.072167    1483597.5   -463727.53    32369.741   -496097.27    41.737034   0.97188364 
   13600    224.81721    26.461121    1483350.6   -463800.74    32299.953   -496100.69    41.824919   0.97204543 
   13700    225.72512   -49.986833    1483640.3   -463791.47    32430.393   -496221.86    41.972507   0.97185559 
   13800    225.40709   -8.6983598    1483544.9   -463688.55    32384.701   -496073.25    42.208231   0.97191809 
   13900    224.11944    23.221886    1482853.4   -463859.81    32199.702   -496059.51    42.416323   0.97237135 
   14000    224.93579   -14.740483    1482093.2   -463928.45    32316.989   -496245.44    42.649934   0.97287006 
   14100    224.95147   -3.8078865    1482108.7   -463916.76    32319.241      -496236    42.919305   0.97285992 
   14200    223.71156  -0.44037631    1482620.3   -464167.44    32141.102   -496308.54    43.173367   0.97252423 
   14300    224.76464   -9.3673061    1482252.7   -464085.63    32292.399   -496378.03    43.449184   0.97276541 
   14400     224.0953    6.3054029    1482617.7   -463978.39    32196.235   -496174.62    43.707113   0.97252591 
   14500    223.98413    23.054468    1482335.3   -464073.52    32180.263   -496253.78    43.933086   0.97271118 
   14600    225.06127   -18.909921    1483121.2   -463916.95    32335.016   -496251.96    44.203919   0.97219573 
   14700    225.19268    15.446604    1483367.6   -463991.09    32353.897   -496344.99    44.478966   0.97203429 
   14800    225.22696   0.68483694    1484039.2   -463721.15    32358.822   -496079.97    44.716049   0.97159439 
   14900    224.19249   -39.592726    1483211.3   -463683.38    32210.198   -495893.58    44.921386   0.97213673 
   15000    225.75518    22.784304    1482655.1   -463826.69    32434.713   -496261.41    45.097059   0.97250138 
   15100    225.00715    67.433609    1482610.3   -463756.65    32327.241   -496083.89    45.389517   0.97253075 
   15200     224.9799    5.0904072    1483013.9   -463813.21    32323.327   -496136.54    45.619763   0.97226608 
   15300    225.14172   -17.267547    1482378.4   -463853.32    32346.575    -496199.9    45.822436   0.97268291 
   15400    223.46562   0.81293139    1482299.5   -464016.03    32105.766   -496121.79    46.024917   0.97273467 
   15500    225.73199    2.9439138      1482520   -463808.92    32431.381    -496240.3    46.293349   0.97259002 
   15600    224.54009    11.190467    1482692.5   -463573.16    32260.138    -495833.3    46.587061   0.97247687 
   15700      224.657   -8.8770785    1482594.9   -463722.33    32276.934   -495999.26    46.936863    0.9725409 
   15800    224.70328   -55.096602    1482171.1   -463827.95    32283.584   -496111.53    47.202332   0.97281895 
   15900    224.75161    89.452406      1481925   -463760.86    32290.527   -496051.39    47.416435   0.97298051 
   16000    224.68845    40.193983      1482274   -463703.93    32281.453   -495985.38    47.708149   0.97275139 
   16100    224.55967    18.510907    1482674.5   -463676.48    32262.951   -495939.43    47.946763   0.97248867 
   16200     224.2096   -26.569479    1482256.8   -463773.08    32212.657   -495985.73    48.105233   0.97276268 
   16300    223.68901   -3.5537878    1482295.7    -463738.3    32137.862   -495876.16    48.267851    0.9727372 
   16400    225.96531     24.73371    1482239.1   -463296.25    32464.903   -495761.16    48.408957   0.97277431 
   16500    226.56776    -11.95704    1482057.8    -463290.7    32551.458   -495842.16    48.677006   0.97289335 
   16600    226.19025     19.08921    1482188.9   -463162.96     32497.22   -495660.18    48.874503   0.97280728 
   16700    224.94048    25.776665      1482139   -463271.39    32317.663   -495589.05    49.073629   0.97283999 
   16800    226.30801   -23.434413    1480921.4   -463290.46    32514.138    -495804.6    49.163219   0.97363986 
   16900    225.67096    48.535789    1480822.8   -463573.73    32422.612   -495996.34    49.365344   0.97370472 
   17000    224.47738    41.026952    1481413.6   -463554.45    32251.128   -495805.58    49.616182    0.9733164 
   17100    224.64886   -59.001894    1480615.9   -463602.02    32275.765   -495877.78    49.854757   0.97384077 
   17200    226.17426    72.096956    1481479.9   -463557.69    32494.923   -496052.62    50.083196   0.97327285 
   17300    226.45892    12.420071    1482302.9   -463617.97     32535.82   -496153.79    50.336319   0.97273243 
   17400    225.26756   -15.977223    1481532.7   -463612.76    32364.656   -495977.42    50.517723   0.97323815 
   17500    225.91107    8.3389118    1481948.1   -463492.84    32457.109   -495949.95    50.714324   0.97296534 
   17600    224.33828    35.351471    1483168.3   -463578.94    32231.144   -495810.08    51.025351   0.97216486 
   17700    225.78847    34.150523    1483050.4   -463669.19    32439.495   -496108.68    51.240807   0.97224216 
   17800    225.89674   -38.220957    1482983.8   -463883.24    32455.051   -496338.29    51.480759   0.97228586 
   17900    224.09517    19.232377    1483183.1   -463695.57    32196.216   -495891.79    51.701679   0.97215519 
   18000    225.87073   -29.231404    1482782.5   -463913.77    32451.314   -496365.09    51.801433    0.9724178 
   18100    225.06204   -47.704651    1483090.1   -463977.69    32335.128   -496312.82    52.045431   0.97221612 
   18200    224.58219    29.190459    1482623.4   -464147.15    32266.187   -496413.33    52.297475    0.9725222 
   18300    225.91247    -45.83295    1482898.2   -464072.14     32457.31   -496529.45    52.437278   0.97234197 
   18400    224.43493    32.899641    1483154.9   -463963.79    32245.029   -496208.82    52.680421   0.97217365 
   18500    225.54454    42.001822    1482539.4   -464001.91    32404.449   -496406.36    52.995639   0.97257728 
   18600    225.59506    14.673873    1483730.2   -464056.63    32411.708   -496468.34    53.379805   0.97179673 
   18700    224.92105    16.880112    1484507.5   -463837.57    32314.872   -496152.44    53.656201   0.97128786 
   18800    224.65359   -53.466672    1484394.3   -463810.55    32276.445   -496086.99    53.971858   0.97136195 
   18900    225.00604    -27.80455    1484042.6   -463616.95    32327.082   -495944.04    54.209952   0.97159215 
   19000    225.00991    5.1065568    1483826.2   -463797.09    32327.639   -496124.73    54.471161   0.97173384 
   19100     224.7696    2.8137424    1483706.3    -463876.2    32293.112   -496169.31    54.725164   0.97181236 
   19200    226.24854    19.600407    1483485.4   -463989.26    32505.594   -496494.85    54.935951    0.9719571 
   19300    224.75894    -53.04636    1483526.8   -464155.56    32291.581   -496447.14    55.137321   0.97192994 
   19400    225.55132   -27.277842      1483146   -464018.09    32405.423   -496423.51    55.373461   0.97217949 
   19500     224.6592    -17.16006    1482857.2   -464019.41    32277.251   -496296.66    55.641928   0.97236885 
   19600      225.095    25.451401    1483236.4    -464101.8    32339.863   -496441.66    55.921318   0.97212025 
   19700    223.99157    6.5045791    1483122.5   -463916.04    32181.331   -496097.38    56.094611   0.97219492 
   19800    225.53802    20.378154    1483273.1   -463959.19    32403.512   -496362.71    56.327337    0.9720962 
   19900    225.17597   -63.783302    1483065.4      -463982    32351.496   -496333.49     56.53849   0.97223234 
   20000    223.95073    18.700274      1482312   -463967.95    32175.463   -496143.41    56.784514   0.97272649 
   20100    225.01698   -39.385956    1483108.4   -463893.28    32328.655   -496221.93    57.096791   0.97220414 
   20200    224.88795    51.115468    1483841.8    -463800.2    32310.116   -496110.31    57.400624    0.9717236 
   20300    225.42288    -7.814757    1483807.8   -463861.93     32386.97    -496248.9    57.633237   0.97174592 
   20400    225.52093   -13.283356    1483715.1   -463649.69    32401.057   -496050.75    57.899769    0.9718066 
   20500    224.68549    50.168825    1484207.9   -463562.55    32281.028   -495843.58    58.163514   0.97148396 
   20600    226.40394    12.983951    1483915.6   -463733.52    32527.922   -496261.44    58.351049   0.97167532 
   20700    225.01476    16.699103    1483306.3   -463564.04    32328.334   -495892.37    58.586532   0.97207444 
   20800    225.65841     33.73585    1483833.7   -463736.75    32420.809   -496157.56    58.838745    0.9717289 
   20900      224.932   -9.5875348    1483301.6   -463904.32    32316.445   -496220.76    59.049557   0.97207752 
   21000    225.14121   -31.999327    1482920.5   -463991.11    32346.502   -496337.61    59.279467   0.97232732 
   21100    225.03612    13.808281    1482806.8   -464061.04    32331.404   -496392.44    59.593526   0.97240188 
   21200    226.37658   -8.9881823    1482860.8   -463782.84     32523.99   -496306.83    59.910677   0.97236648 
   21300    224.79224    4.8907019    1482775.6   -463946.68    32296.365   -496243.04    60.132581   0.97242236 
   21400    223.98211   -21.077444    1482422.3   -464211.37    32179.973   -496391.35    60.333786   0.97265412 
   21500    225.23334    19.347713    1482911.3   -464245.61    32359.739   -496605.35    60.499907   0.97233334 
   21600     226.3894    37.614789    1483181.6   -464062.66    32525.833   -496588.49    60.782508   0.97215619 
   21700     225.7053    41.203891    1483413.7   -463967.38    32427.546   -496394.93    60.945399   0.97200404 
   21800    225.01073   -18.038848    1483708.6   -464144.47    32327.755   -496472.23    61.248666   0.97181088 
   21900    225.68895    28.087127    1483583.8   -463906.89    32425.197   -496332.08    61.457431   0.97189262 
   22000    226.06826   -39.313206    1484123.7   -463928.12    32479.694   -496407.81    61.689206   0.97153905 
   22100    226.47973   -70.275945    1484106.2   -463838.75     32538.81   -496377.56    61.881709   0.97155052 
   22200    225.38423    11.966472    1483840.7    -463961.1    32381.417   -496342.52    62.182329   0.97172433 
   22300    226.54518   -19.106725    1483651.7   -463789.59    32548.213   -496337.81      62.4416   0.97184815 
   22400    225.38057    13.212498    1483577.6    -463750.9    32380.892   -496131.79    62.664675   0.97189668 
   22500    226.23865   -6.6077885    1484115.5    -463940.8    32504.174   -496444.98    62.904804   0.97154444 
   22600    225.92913   -68.379436    1483521.6   -464165.16    32459.704   -496624.86    63.143695   0.97193339 
   22700    223.72694    1.9225684    1483671.7   -464242.93    32143.311   -496386.24    63.509894   0.97183501 
   22800    225.18264    4.0401581    1484249.8   -464146.43    32352.454   -496498.88    63.823685   0.97145654 
   22900    222.67902    40.320281      1484275   -464217.42    31992.755   -496210.18    64.159483   0.97143999 
   23000    224.96267   -32.303768    1483902.2   -464477.74    32320.851   -496798.59    64.478822   0.97168406 
   23100    225.05811   -1.4833805    1484187.8   -464402.22    32334.563   -496736.79    64.870035    0.9714971 
   23200    224.98159     39.90157    1483978.6   -464137.68    32323.569   -496461.25    65.210489   0.97163407 
   23300     223.7453   -20.520001    1484924.5   -464102.61    32145.949   -496248.56    65.636084   0.97101513 
   23400    225.55676    31.635656    1484483.1   -464179.25    32406.205   -496585.45    65.801123   0.97130384 
   23500    224.87747    53.161117    1484050.9   -464238.51     32308.61   -496547.12    66.024624   0.97158669 
   23600    224.55572   -39.713702    1483738.6      -464259    32262.384   -496521.38    66.337466   0.97179123 
   23700    225.25365   -32.744012    1483797.8   -464056.34    32362.657   -496418.99    66.674214   0.97175242 
   23800    224.32198   -13.567708    1483743.3   -464245.33    32228.801   -496474.13    66.996658   0.97178811 
   23900    224.94688     35.13965      1485535    -464257.6    32318.582   -496576.18    67.393721   0.97061604 
   24000    224.98085   -16.521029    1486084.7   -464158.01    32323.463   -496481.47      67.7745   0.97025702 
   24100    226.17577    31.146956    1485955.3   -463989.64     32495.14   -496484.78    68.075599   0.97034156 
   24200    225.56263    71.156432      1486311    -463937.2    32407.049   -496344.25    68.409589    0.9701093 
   24300    225.81647   -46.063506    1486340.8   -463963.56    32443.518   -496407.08    68.701142   0.97008987 
   24400    224.47861   -8.6097306    1485105.5   -463892.85    32251.306   -496144.16    68.929779   0.97089677 
   24500    224.59954   0.93971814    1485583.9    -463926.5    32268.679   -496195.18    69.279429   0.97058413 
   24600    227.05628    -24.04366    1486568.8   -463908.63    32621.644   -496530.28    69.542884   0.96994105 
   24700    226.81551   -69.919365    1486573.5   -464161.49    32587.052   -496748.54    69.785503   0.96993799 
   24800    225.44523    30.618589    1486163.3   -464080.72    32390.181    -496470.9    69.858212   0.97020571 
   24900    225.12817   -20.323284    1486717.8   -464005.74    32344.629   -496350.37     70.03386   0.96984384 
   25000     225.5903    4.9293709    1486746.3   -463995.26    32411.024   -496406.29     70.30886   0.96982529 
   25100    224.09694   -1.5474913    1486756.1    -464321.4     32196.47   -496517.87    70.354235   0.96981891 
   25200    223.74813    19.644436    1486311.2   -464320.75    32146.355    -496467.1     70.56491    0.9701092 
   25300    223.65544    1.1121133    1486490.6   -464196.63    32133.039   -496329.66    70.736164   0.96999212 
   25400     224.1283    9.1561006    1485687.4   -464257.17    32200.975   -496458.15     70.95962   0.97051647 
   25500    224.93344    12.996236    1485056.9   -464383.68    32316.652   -496700.33    71.175176   0.97092856 
   25600    224.91749   -28.710599    1484422.9    -464242.3    32314.359   -496556.66    71.479607   0.97134321 
   25700    226.93154    -17.38612    1483994.1   -464237.06    32603.723   -496840.78    71.719459   0.97162387 
   25800    224.44933    49.828984    1484331.6   -464338.44    32247.098   -496585.54    71.981149   0.97140295 
   25900    223.10928   -43.780535    1484096.1   -464427.25    32054.571   -496481.82    72.235756   0.97155713 
   26000    224.09626    12.805433    1484302.6   -464484.26    32196.372   -496680.63    72.406891   0.97142196 
   26100    223.18925    57.403422    1483965.3   -464756.93    32066.061   -496822.99    72.580704   0.97164277 
   26200    225.60188   -4.1979369    1483839.4   -464339.33    32412.688   -496752.02     72.79574    0.9717252 
   26300    224.26397    31.047504    1483878.6   -464541.89    32220.468   -496762.36    73.029504   0.97169955 
   26400    224.61689   -25.627854    1484156.3   -464314.91    32271.172   -496586.08    73.290881   0.97151769 
   26500     225.9333    -18.28456    1484482.2      -464138    32460.303    -496598.3    73.586242   0.97130442 
   26600    223.82378    35.564983    1484509.2   -464372.21    32157.224   -496529.44    73.790061   0.97128674 
   26700     227.0856    -8.833132    1484911.3   -464026.14    32625.856   -496651.99    74.123771   0.97102375 
   26800    224.46997    10.059499    1485227.4   -464139.83    32250.064    -496389.9    74.504298   0.97081706 
   26900    224.89272   -45.070016    1484755.7   -464155.02    32310.801   -496465.82    74.636183   0.97112548 
   27000    225.94512   -26.987482    1484390.9   -464080.77    32462.002   -496542.77    74.925376   0.97136417 
   27100     224.6889    4.9848411    1484799.9    -464171.5    32281.518   -496453.02    75.227187   0.97109662 
   27200     224.0527   -42.670666    1485310.9   -464308.11    32190.114   -496498.22    75.514691    0.9707625 
   27300    225.50497    19.566238    1485259.6   -464142.03    32398.765    -496540.8    75.751958   0.97079601 
   27400    225.15395   -51.278412    1484737.1   -463992.43    32348.332   -496340.77     76.05851   0.97113771 
   27500    226.40555   0.35882006    1485549.2   -464056.03    32528.153   -496584.18    76.383691    0.9706068 
   27600    224.83663    -25.18137    1485032.9    -464031.7    32302.742   -496334.44     76.68291   0.97094427 
   27700    225.15279   -10.604806      1484821    -464166.6    32348.166   -496514.76    76.906106   0.97108282 
   27800    225.68828   -25.804279    1484723.9   -464045.75      32425.1   -496470.85    77.109656   0.97114633 
   27900    227.25097    -37.15934    1484051.2   -464161.12    32649.616   -496810.74    77.233065   0.97158653 
   28000    226.86457    16.504546    1484853.1   -464205.45    32594.101   -496799.55    77.444914   0.97106182 
   28100     224.3446    39.044319    1485146.4   -464237.06    32232.052   -496469.11    77.603445   0.97087002 
   28200    225.14004    24.238024    1485829.9   -464015.41    32346.334   -496361.75    77.855965   0.97042345 
   28300    224.99811    29.297919      1485782   -464040.31    32325.943   -496366.25    78.058513   0.97045471 
   28400    225.76933   -44.570747    1485612.3   -464363.08    32436.746   -496799.82    78.317024   0.97056554 
   28500    224.19193    15.313942    1485715.9   -464587.55    32210.118   -496797.67    78.369594   0.97049786 
   28600    225.47822    51.226122    1486675.9    -464213.3    32394.921   -496608.22    78.689547   0.96987118 
   28700    226.40497   -8.9520358    1486743.5   -464271.14    32528.069   -496799.21     78.96067    0.9698271 
   28800    225.43944    14.313192    1486374.5   -464425.14    32389.349   -496814.49    79.093689   0.97006784 
   28900    225.74706    15.385613      1486386   -464553.71    32433.545   -496987.25    79.258758   0.97006037 
   29000    225.40143     25.57689    1486409.3   -464441.37    32383.888   -496825.26    79.426493   0.97004513 
   29100    224.18427   -25.849955      1486404   -464379.96    32209.017   -496588.98     79.67152    0.9700486 
   29200    223.71135    17.365174    1486592.5   -464298.08    32141.072   -496439.15    79.734379   0.96992563 
   29300    225.67059   -3.1207208    1486934.6   -464206.93     32422.56   -496629.49    79.971212   0.96970248 
   29400    224.47609   -6.5955237    1486115.4   -464406.08    32250.943   -496657.02    80.163061     0.970237 
   29500    223.35766    -30.66745    1486430.6   -464462.04    32090.256    -496552.3    80.502268   0.97003124 
   29600    223.98972    -26.67932      1486192    -464440.8    32181.065   -496621.86    80.740757   0.97018696 
   29700     224.9095    28.728685    1485666.3   -464412.08    32313.212   -496725.29    80.892874   0.97053029 
   29800    224.37484    20.326281    1485562.3   -464299.08    32236.397   -496535.47     81.07603   0.97059822 
   29900    225.39505    7.4884884    1485756.1    -464217.1    32382.972   -496600.07    81.384611   0.97047164 
   30000    225.17729   -19.321395    1485455.1   -464185.48    32351.686   -496537.17    81.625231   0.97066825 
   30100    225.12704   -46.654054    1485657.8   -464033.29    32344.466   -496377.76    81.881425   0.97053581 
   30200    225.52957    6.9811976    1485611.2   -464150.28    32402.299   -496552.58    82.166007   0.97056629 
   30300    225.50773    17.017863    1485725.1   -464011.58    32399.161   -496410.74    82.379655   0.97049186 
   30400    225.24662    55.808685    1485603.5   -464160.86    32361.646    -496522.5    82.590632   0.97057133 
   30500    227.39883    42.359224      1485850   -463945.82    32670.859   -496616.68    82.716284   0.97041029 
   30600    225.99216    21.419101      1486151   -464168.82     32468.76   -496637.58     83.02128   0.97021372 
   30700    225.69237   -21.353211    1485538.3    -464326.8    32425.688   -496752.49    83.231108   0.97061394 
   30800    224.22551   -19.180031    1485446.3   -464368.69    32214.942   -496583.63    83.474104   0.97067403 
   30900    224.97263    29.403789    1484917.5   -464408.84    32322.282   -496731.12    83.679774    0.9710197 
   31000    224.99243   -61.002959    1484553.6   -464314.11    32325.126   -496639.23    83.795845   0.97125774 
   31100    224.60287   -36.223213    1484117.9   -464269.86    32269.158   -496539.02    83.985676   0.97154284 
   31200    226.36239   -3.3923864    1484279.9   -464093.66    32521.952   -496615.61    84.210644   0.97143684 
   31300    224.58697   -49.322503    1484405.6    -464418.2    32266.873   -496685.08    84.489023   0.97135455 
   31400    223.66192    52.541226    1484130.4    -464492.4    32133.969   -496626.37    84.684373   0.97153467 
   31500    224.52561    29.773898      1483860   -464226.17    32258.058   -496484.22    84.790514   0.97171168 
   31600    225.25862    26.202566    1484974.5   -464567.39     32363.37   -496930.76    84.913686   0.97098242 
   31700    225.39952    7.2882607    1485034.7    -464252.8    32383.614   -496636.42     85.05398   0.97094308 
   31800    224.99558    7.0630429    1485531.6   -464313.88    32325.579   -496639.45    85.179364   0.97061826 
   31900    224.96101    37.248107    1486276.9   -464271.33    32320.613   -496591.95    85.319323    0.9701316 
   32000    225.74775    6.7989995    1486147.3   -464273.49    32433.645   -496707.14    85.475482   0.97021619 
   32100    225.39466    70.746331    1486582.2   -464252.61    32382.916   -496635.52    85.630375   0.96993234 
   32200    225.67229    16.922591    1486413.1   -464049.99    32422.803    -496472.8    85.789514   0.97004268 
   32300    226.32014    4.9968619    1486711.8   -464238.16    32515.881   -496754.04    85.893489    0.9698478 
   32400     225.6305   -30.246261    1486710.3   -464220.68    32416.799   -496637.48    85.872636   0.96984879 
   32500    225.49468    29.974273    1486717.8   -464342.76    32397.286   -496740.05    85.926078   0.96984388 
   32600     225.8239   -58.582006    1486758.8   -464241.25    32444.585   -496685.84    86.008389   0.96981711 
   32700     225.4032   -11.245237    1486686.9   -464441.73    32384.142   -496825.87    86.143165   0.96986404 
   32800    224.10156     13.01405    1485962.7   -464550.11    32197.133   -496747.24    86.269646   0.97033668 
   32900    223.53652   -36.350201    1485939.8    -464421.9    32115.953   -496537.85    86.480851   0.97035165 
   33000    224.26574     19.52135    1486086.3   -464526.44    32220.721   -496747.16    86.794623   0.97025596 
   33100    224.42576    11.842071    1486271.5   -464550.37    32243.712   -496794.09     87.10715   0.97013506 
   33200     225.2287   -34.822799      1486392   -464451.13    32359.072   -496810.21    87.312203   0.97005643 
   33300     224.8894   -1.3072849    1486643.3   -464493.23    32310.324   -496803.55    87.477109    0.9698925 
   33400    226.89223    7.4833681    1486304.6   -464450.83    32598.074    -497048.9    87.590744    0.9701135 
   33500    225.96743     31.06242    1486951.6    -464419.2    32465.207    -496884.4    87.793068   0.96969139 
   33600     225.0017    73.960896    1486555.6   -464624.96    32326.459   -496951.42    88.040378   0.96994967 
   33700    226.31864    33.100204    1487079.1   -464404.07    32515.666   -496919.74    88.300037   0.96960825 
   33800    224.95144    44.658392    1487099.2   -464417.12    32319.237   -496736.36    88.521524   0.96959513 
   33900    225.66451   -16.488446    1487627.5    -464556.7    32421.685   -496978.39    88.820335   0.96925078 
   34000    225.76485    6.0448978    1486955.8   -464493.73    32436.102   -496929.83    88.985547   0.96968865 
   34100    224.57544   -5.1177712    1487115.4   -464576.27    32265.217   -496841.48    89.276675   0.96958458 
   34200    224.60396    31.600461    1486751.4   -464612.41    32269.314   -496881.72    89.519513   0.96982193 
   34300    223.72202    48.435605    1486946.2   -464802.24    32142.604   -496944.84    89.636828   0.96969488 
   34400    223.53859    10.605009    1486867.3   -464747.55     32116.25    -496863.8    89.716849   0.96974632 
   34500    223.26108   -24.735553    1486707.3   -464585.19     32076.38   -496661.57    89.924775   0.96985072 
   34600    226.31774    9.1879688    1486732.6   -464266.86    32515.537   -496782.39    90.114671   0.96983421 
   34700     226.6383   -47.963424    1487373.2   -464119.74    32561.592   -496681.34     90.22459   0.96941652 
   34800    226.15684   -7.0357787    1487741.2   -464181.49    32492.419   -496673.91    90.521915   0.96917675 
   34900    225.50202   -19.093485    1487494.8   -464441.93    32398.341   -496840.27    90.649864   0.96933725 
   35000    224.70029    -47.16194    1487112.9   -464577.14    32283.154    -496860.3     90.76755   0.96958617 
   35100     225.7759    1.0433245    1487654.1   -464414.24     32437.69   -496851.93     91.03907   0.96923346 
   35200    225.58485   -27.225285    1488381.2   -464574.17    32410.241   -496984.41    91.239442   0.96875996 
   35300    225.39748    2.2591674    1487672.4   -464563.34    32383.321   -496946.67    91.483583   0.96922153 
   35400    226.10751    9.8278443    1487225.2   -464158.85    32485.333   -496644.18    91.842408   0.96951297 
   35500    225.39968    52.032541    1487668.6   -464321.94    32383.637   -496705.58    92.043549   0.96922402 
   35600    225.19617    28.848393    1488112.9   -464623.25    32354.399   -496977.65    92.327898   0.96893466 
   35700    224.31838    14.252744      1488042   -464635.65    32228.284   -496863.94    92.530292   0.96898084 
   35800    225.10678    26.967296    1488323.5   -464600.66    32341.555   -496942.22    92.847453   0.96879755 
   35900    224.81182    38.277308    1487937.8   -464548.96    32299.178   -496848.14    93.075114   0.96904866 
   36000    225.15902   -23.026417    1487922.8   -464593.65    32349.061   -496942.71    93.283999   0.96905843 
   36100    223.91344   -32.932726    1487274.8   -464520.09    32170.105   -496690.19    93.401732   0.96948065 
   36200    224.58227   -32.300935      1486881   -464585.27    32266.199   -496851.47    93.634333   0.96973739 
   36300    224.51704   -29.533448    1487568.6   -464662.94    32256.827   -496919.77     93.81318   0.96928919 
   36400    225.54671     25.09388    1487651.1   -464544.22    32404.761   -496948.98    93.973981   0.96923542 
   36500    224.79158    72.771822    1487813.8   -464740.93     32296.27    -497037.2    94.228354   0.96912946 
   36600    226.45126    23.096872    1487711.1   -464507.99    32534.719   -497042.71    94.359828   0.96919633 
   36700    226.12418    -12.97758    1487700.7   -464397.96    32487.728   -496885.69    94.530858   0.96920309 
   36800    224.36252   -22.765636    1487898.4    -464646.8    32234.627   -496881.42    94.752949    0.9690743 
   36900    226.12257    72.704536    1487287.8   -464657.81    32487.497   -497145.31    94.927022   0.96947216 
   37000    224.48354    36.023246    1487386.3   -464829.79    32252.014   -497081.81     95.06434   0.96940799 
   37100      223.801    33.928373    1487197.6   -464874.47    32153.952   -497028.42    95.253586   0.96953097 
   37200     224.6425   -5.9470468    1486939.9   -464772.24    32274.851   -497047.09    95.497644   0.96969903 
   37300    223.91872   -28.094678    1486903.6   -464918.52    32170.864   -497089.38    95.695757   0.96972269 
   37400    224.39194    8.1076097    1487148.2   -464782.62    32238.853   -497021.47    95.998206   0.96956319 
   37500    223.66502   -28.755864    1487861.5   -464739.02    32134.415   -496873.44    96.160805   0.96909836 
   37600    224.06734   -11.661236    1487241.5   -464953.16    32192.217   -497145.38    96.307895   0.96950233 
   37700    222.44081    1.8386145    1486662.3   -465075.55     31958.53   -497034.08    96.470805   0.96988006 
   37800    223.74506    19.737102    1486571.2   -465035.66    32145.914   -497181.57     96.65309   0.96993949 
   37900    224.65666   -29.649608    1486244.9   -464967.02    32276.886   -497243.91    96.634076   0.97015245 
   38000    224.14232    40.775864      1486223   -465016.27     32202.99   -497219.26     96.74822   0.97016673 
   38100    223.74077    30.482627    1486020.8   -465084.91    32145.298   -497230.21    96.902025   0.97029876 
   38200    224.60106    22.334769    1486442.9   -464996.93    32268.897   -497265.83    97.141666   0.97002321 
   38300    224.48006   -27.249144      1486773   -464964.84    32251.513   -497216.36    97.350777   0.96980785 
   38400    224.81565    4.0572161    1487084.9   -464976.03    32299.728   -497275.76    97.543079   0.96960443 
   38500    223.16089    18.516937    1487253.1   -465093.59    32061.985   -497155.58    97.772922   0.96949482 
   38600    223.94866   -34.306875    1487540.5   -465217.81    32175.166   -497392.98    98.033398   0.96930746 
   38700    223.12716    30.815126    1487686.8   -465293.66     32057.14    -497350.8      98.2915   0.96921215 
   38800    224.88759    46.045967    1487858.5   -464922.89    32310.065   -497232.96    98.522385   0.96910034 
   38900    223.11887    41.990029    1488432.3      -464990    32055.948   -497045.95    98.691228   0.96872671 
   39000     225.4448   -5.2973351    1487926.1   -464682.33     32390.12   -497072.45    98.851264   0.96905629 
   39100    225.99741    19.881829    1487839.7    -464564.4    32469.515   -497033.91    99.038293   0.96911253 
   39200    225.20733   -54.046003    1487213.8   -464749.08    32356.002   -497105.08    99.219605   0.96952041 
   39300    224.59406    50.977996    1487069.4   -464821.55    32267.892   -497089.45    99.456482   0.96961458 
   39400    225.95373    33.383722    1487792.7   -464757.59    32463.239   -497220.83    99.732132   0.96914314 
   39500    225.11829   -31.673496    1487005.9   -464783.13    32343.209   -497126.34    99.813213   0.96965597 
   39600    225.33938    32.730872    1487348.6   -464763.17    32374.973   -497138.15    100.03032   0.96943255 
   39700    225.27849   -17.741846      1487402   -464608.72    32366.225   -496974.94    100.19212   0.96939777 
   39800    224.80777     50.71106    1487523.1   -464571.87    32298.597   -496870.47    100.25212   0.96931885 
   39900    225.22789   -29.171806      1487612   -464649.97    32358.956   -497008.92    100.42093   0.96926091 
   40000    226.40556    35.379788    1486256.6   -464562.08    32528.154   -497090.24    100.61356   0.97014481 
   40100    223.67359     -21.5728    1486708.8   -464964.27    32135.646   -497099.92    100.91713   0.96984974 
   40200    223.44457   -9.8260831    1486960.3   -464725.56    32102.742   -496828.31     101.1512   0.96968572 
   40300    224.01711    14.199777    1486699.4   -464706.59    32185.001   -496891.59    101.32786   0.96985587 
   40400    225.44269    17.214919    1486519.4   -464519.11    32389.817   -496908.92    101.60304   0.96997332 
   40500      225.695   -6.8192077    1485910.9   -464538.77    32426.066   -496964.84    101.78097    0.9703705 
   40600    225.03158    13.437151    1485606.8   -464641.09    32330.751   -496971.84    102.13566   0.97056917 
   40700    225.43783    22.218169    1486561.6   -464637.23    32389.118   -497026.35    102.52893   0.96994577 
   40800    225.61549    36.944016    1487188.3   -464580.87    32414.643   -496995.51    102.85833   0.96953704 
   40900    225.07202    37.318774      1487006   -464618.06    32336.561   -496954.62    103.03305    0.9696559 
   41000    225.29503   -32.343591    1486930.5   -464688.33    32368.601   -497056.93    103.38344   0.96970514 
   41100    224.84093    64.260876    1486805.7   -464654.23    32303.361   -496957.59    103.56146   0.96978654 
   41200    222.94099    21.258989      1486873   -464625.68    32030.392   -496656.07    103.75918   0.96974263 
   41300    224.29242    14.387225      1486984   -464586.88    32224.555   -496811.44    104.04534   0.96967027 
   41400    227.08296    -13.32003    1486831.5   -464247.17    32625.477   -496872.65    104.33319   0.96976971 
   41500    223.85245    24.478477      1486392   -464580.93    32161.343   -496742.27    104.51569   0.97005645 
   41600    224.14906    30.707187    1486844.7   -464588.01    32203.958   -496791.96    104.69974    0.9697611 
   41700    224.69965    7.3127777    1487796.5   -464620.97    32283.062   -496904.04    104.95362   0.96914067 
   41800    225.42795   -28.072832    1487660.1   -464424.66    32387.698   -496812.35    105.14048   0.96922956 
   41900     223.3305    15.983853    1487025.5   -464825.16    32086.353   -496911.51    105.29956   0.96964317 
   42000    224.04201   -9.8807106    1486630.2   -464503.28    32188.578   -496691.86    105.48514   0.96990099 
   42100    225.87589   -20.539623    1486016.4   -464345.31    32452.055   -496797.37    105.64142   0.97030161 
   42200    224.80544   -35.168121      1486473   -464459.15    32298.261   -496757.41    105.74432   0.97000358 
   42300    225.36937    21.568714    1486830.9   -464463.81    32379.282   -496843.09    105.91392   0.96977009 
   42400    224.28182   -39.037469    1486279.9   -464390.34    32223.031   -496613.37    106.12477   0.97012958 
   42500      225.992   -36.131686    1486530.9   -464586.69    32468.737   -497055.43    106.24913   0.96996581 
   42600    224.35034   -65.728124    1486017.1   -464688.76    32232.876   -496921.63     106.4243   0.97030117 
   42700    224.54732   -3.9219596    1485143.9   -464658.95    32261.177   -496920.13    106.59118   0.97087166 
   42800    224.48877    12.762628    1485785.4   -464641.69    32252.764   -496894.45    106.84134   0.97045247 
   42900    224.32049    1.3240792    1485933.4   -464737.49    32228.588   -496966.08    107.07592   0.97035585 
   43000    223.74618    21.355329    1486019.4   -464954.06    32146.076   -497100.13    107.38038   0.97029966 
   43100    224.39732    22.994199    1485869.1    -464702.9    32239.626   -496942.53    107.57913    0.9703978 
   43200    226.24402   -2.3618998    1485719.1    -464663.3    32504.946   -497168.25    107.85353   0.97049581 
   43300    225.12344    8.2867177    1485584.2   -464675.12     32343.95   -497019.07    108.15834   0.97058392 
   43400    224.54693     -31.2993    1485740.8   -464747.22    32261.121   -497008.34    108.52262    0.9704816 
   43500    224.19351   -34.801673    1485343.3   -464673.96    32210.345   -496884.31    108.73705   0.97074132 
   43600    223.86363    5.4600394    1485893.2   -464916.83     32162.95   -497079.78    108.99085   0.97038209 
   43700    223.95908     13.69273    1486018.6    -464719.1    32176.664   -496895.76    109.17252   0.97030021 
   43800    225.62317   -16.929756    1486211.5   -464773.44    32415.746   -497189.18    109.47368   0.97017425 
   43900    224.62208   -33.499681    1485793.5   -464492.86    32271.918   -496764.78    109.59517   0.97044718 
   44000     224.8049   -1.3687713    1485110.3   -464478.95    32298.184   -496777.13    109.62253   0.97089364 
   44100    224.78635   -18.877564    1485438.4   -464642.66    32295.519   -496938.18    109.71103   0.97067918 
   44200    224.64073    7.4111611    1485746.7   -464498.96    32274.597   -496773.56    109.96949   0.97047775 
   44300     226.6278    13.191619    1486094.2    -464234.3    32560.084   -496794.39     110.1636   0.97025083 
   44400    225.26406   -4.0313434    1485549.2    -464423.4    32364.153   -496787.56    110.25432   0.97060677 
   44500    223.41306   -3.9655737    1484946.9   -464710.43    32098.215   -496808.65    110.41282   0.97100048 
   44600    224.00441   -61.154432      1484650   -464618.26    32183.175   -496801.44    110.61736   0.97119463 
   44700    224.21717     2.829039    1485186.9   -464703.92    32213.744   -496917.67    110.81338   0.97084353 
   44800    224.84518   -61.582196    1485061.8   -464719.55    32303.971   -497023.52    111.06019   0.97092534 
   44900    223.67732    1.5325175    1485289.2   -464895.92    32136.182    -497032.1    111.28517   0.97077671 
   45000     224.7668  0.026602525    1485501.8    -464643.5     32292.71   -496936.21    111.44751   0.97063779 
   45100    223.97831     53.40354    1486412.6   -464675.29    32179.425   -496854.71    111.68842   0.97004302 
   45200    225.60295    27.555944    1486421.7   -464697.67    32412.841   -497110.51     112.0361   0.97003706 
   45300    224.64658   -48.429421    1486548.9   -464530.37    32275.437   -496805.81    112.38243   0.96995403 
   45400    225.04475    10.826461    1486832.9   -464613.69    32332.643   -496946.33    112.67952   0.96976876 
   45500    224.46575    12.260151    1487002.5   -464666.07    32249.457   -496915.53    112.92718   0.96965816 
   45600      224.845   -18.796372    1487179.5   -464812.46    32303.945    -497116.4    113.03806    0.9695428 
   45700    225.45272    55.143979    1487275.5   -464629.31    32391.258   -497020.57    113.21521   0.96948021 
   45800    225.82639    -26.67443      1487608   -464822.91    32444.943   -497267.85    113.42364   0.96926349 
   45900     224.4931   -17.123266      1487234   -464598.88    32253.387   -496852.26    113.61736   0.96950723 
   46000    224.38697   -14.803574      1486250   -464491.64    32238.138   -496729.78    113.74396    0.9701491 
   46100    224.87574    33.596924    1486995.2   -464415.44    32308.361    -496723.8    114.08431   0.96966294 
   46200    226.97767    64.731188    1487289.4   -464271.62     32610.35   -496881.97    114.31835   0.96947114 
   46300    225.33087    27.225083    1487526.6   -464304.98    32373.751   -496678.73    114.57142   0.96931652 
   46400    225.05517   -32.907677    1486976.1   -464377.78     32334.14   -496711.92    114.64807   0.96967538 
   46500    225.21912   -27.352985    1486612.9   -464478.59    32357.696   -496836.29    114.83895   0.96991231 
   46600    225.02461   -33.194999    1485734.5   -464495.64     32329.75   -496825.39    115.00259   0.97048575 
   46700    225.10515    12.863034    1486405.3   -464387.53    32341.321   -496728.85     115.2729   0.97004777 
   46800    226.93098    16.927311    1486827.9   -464271.82    32603.642   -496875.46     115.5446   0.96977202 
   46900    226.11538    13.589183    1487229.2   -464357.68    32486.463   -496844.14    115.77847   0.96951038 
   47000     226.1335   -40.301277    1486505.5   -464184.74    32489.067   -496673.81    115.97501    0.9699824 
   47100    226.52893    5.7134693    1486656.2   -464189.55    32545.878   -496735.42    116.16197   0.96988404 
   47200    226.32585    24.036067    1486601.2   -464298.91    32516.702   -496815.61    116.32087   0.96991991 
   47300    225.72905   -59.055994      1486183   -464325.13    32430.959   -496756.08     116.5926   0.97019285 
   47400    225.36382   -17.823424    1486116.7    -464481.1    32378.486   -496859.59    116.90611   0.97023614 
   47500    225.50304   -35.459712    1486098.5   -464353.71    32398.488    -496752.2    117.10998   0.97024801 
   47600    225.02129   -41.343609    1485920.1   -464171.02    32329.274   -496500.29    117.25512   0.97036452 
   47700    224.73199    10.241364    1485277.1   -464302.81    32287.708   -496590.51     117.3291   0.97078462 
   47800    225.29295    29.702686    1485106.3   -464048.01    32368.303   -496416.31    117.46438   0.97089622 
   47900    223.49829    22.270086    1485164.4    -464357.7     32110.46   -496468.16     117.6544   0.97085826 
   48000    224.82714      16.5388    1485573.9   -464484.54    32301.379   -496785.92    117.84875   0.97059068 
   48100    225.67835    44.942981    1486331.7   -464393.97    32423.674   -496817.64    118.16674   0.97009578 
   48200    224.45681   -23.196165    1485849.7   -464514.05    32248.172   -496762.23    118.36425   0.97041052 
   48300     223.4455     25.19905    1484774.6   -464523.01    32102.876   -496625.89    118.44254   0.97111312 
   48400    224.83035    34.275639    1485533.8   -464482.48    32301.841   -496784.32    118.61395   0.97061685 
   48500    224.28217   -32.665003    1485309.2   -464478.31    32223.083   -496701.39     118.8983   0.97076364 
   48600    226.71281    36.343317    1485514.8   -464288.61    32572.297   -496860.91    119.17055    0.9706293 
   48700    224.69483    7.9795319    1485488.5   -464530.43     32282.37    -496812.8    119.41014   0.97064642 
   48800    224.56042   -41.344678    1484864.7   -464539.09    32263.059   -496802.15    119.75552   0.97105422 
   48900    224.81649    5.9368274    1485090.1   -464811.32    32299.849   -497111.17    120.01782   0.97090686 
   49000    225.00055   -12.286188    1485359.4   -464606.43    32326.293   -496932.73     120.4547   0.97073079 
   49100    224.94672   -12.219908    1485291.2   -464423.89     32318.56   -496742.45    120.70837   0.97077539 
   49200     225.4838   -32.000626    1484975.7   -464306.32    32395.723   -496702.04     121.0015   0.97098165 
   49300    224.76217      47.3591    1485548.1    -464515.3    32292.045   -496807.35    121.27511   0.97060749 
   49400     223.1539    23.230877    1485078.8   -464633.92    32060.982    -496694.9    121.53778   0.97091424 
   49500    224.59536   -6.7267485    1484865.3   -464457.96    32268.079   -496726.04    121.80168   0.97105386 
   49600    224.27036   -41.044888    1484833.2   -464473.43    32221.385   -496694.81    122.18297   0.97107483 
   49700    225.14557   -27.418094    1484881.2   -464370.89    32347.128   -496718.02    122.64156   0.97104345 
   49800    224.54475    46.932832    1484660.9   -464345.06    32260.808   -496605.87    123.03698   0.97118755 
   49900    225.79582   -41.560735    1484527.4   -464165.93    32440.551   -496606.48    123.33818   0.97127488 
   50000    225.10297    21.015358    1484405.9   -464110.36    32341.008   -496451.37    123.71122   0.97135435 
   50100    224.37609   -57.248772    1484220.9   -464199.16    32236.576   -496435.74    124.02423   0.97147541 
   50200     225.4725    18.723371    1484415.7   -464320.93    32394.099   -496715.03    124.32845   0.97134798 
   50300     223.4226    3.7194799    1484372.6   -464320.93    32099.585   -496420.52    124.67724   0.97137614 
   50400    224.64329   -2.5256307    1484041.7   -464418.61    32274.965   -496693.58    124.95702   0.97159271 
   50500    224.51422    18.571723    1484409.5   -464182.53    32256.422   -496438.95    125.27895   0.97135199 
   50600    223.34832   -1.4860097    1484381.9   -464320.17    32088.915   -496409.09    125.65651   0.97137009 
   50700    223.00846   -9.0200762    1484116.2   -464276.43    32040.086   -496316.52    125.99473   0.97154398 
   50800     225.3595    23.601585    1484608.3   -464118.82    32377.865   -496496.69     126.2597   0.97122196 
   50900    224.69924   -24.997771    1484095.7   -463983.28    32283.004   -496266.28     126.4266   0.97155741 
   51000    225.92037    -23.02943      1484176   -463978.61    32458.445   -496437.06     126.7245   0.97150484 
   51100    226.06255   -25.013617    1483829.8   -464068.93    32478.873   -496547.81    126.94453   0.97173146 
   51200    224.84662   -28.591348    1483863.2   -464198.97    32304.177   -496503.15    127.21839    0.9717096 
   51300    225.63109   -0.4838775    1483874.1   -464041.75    32416.884   -496458.64    127.49146   0.97170248 
   51400    225.27921    22.980671    1483902.8   -463821.21     32366.33   -496187.54     127.6889    0.9716837 
   51500    225.44727    2.2947431    1483835.1   -463936.01    32390.475   -496326.49    128.03495   0.97172805 
   51600    223.99917   -51.711736    1483819.9   -464389.84    32182.423   -496572.26    128.34473   0.97173797 
   51700    225.35339    26.558903    1483655.4   -464333.73    32376.987   -496710.71    128.71025   0.97184573 
   51800    225.29202    5.1072595    1483941.5   -464225.86    32368.169   -496594.03    129.09486   0.97165835 
   51900    224.18564    9.4812994    1484117.5   -464209.75    32209.214   -496418.97    129.44608   0.97154312 
   52000    223.80639  -0.93301461    1484003.8   -464297.14    32154.725   -496451.86    129.78129   0.97161758 
   52100    223.15787   -59.916003    1483743.5   -464520.82    32061.552   -496582.37    130.02439     0.971788 
   52200    224.48869    45.042917    1483645.9   -464299.76    32252.754   -496552.51    130.30298   0.97185193 
   52300    226.22665   -40.721683    1483511.7   -464354.41     32502.45   -496856.86    130.64666   0.97193982 
   52400    224.21326   -27.067704    1483408.6   -464340.46    32213.182   -496553.64    130.99274   0.97200742 
   52500    224.42947   -40.525727    1483530.9   -464350.21    32244.245   -496594.45    131.39466   0.97192727 
   52600    224.81008    1.0345378    1483339.2    -464166.3    32298.928   -496465.22    131.71802   0.97205285 
   52700    223.64902   -38.642975      1483550   -464174.16    32132.116   -496306.27    131.94606   0.97191473 
   52800    224.56075    26.492302      1483956   -464316.16    32263.107   -496579.27    132.28473   0.97164886 
   52900    225.07075   -65.112221    1483702.4   -464213.21    32336.379   -496549.59    132.42414   0.97181494 
   53000    223.89609   -30.708443    1483653.7   -464348.65    32167.614   -496516.27    132.59928   0.97184682 
   53100    224.75547   -11.800407    1483739.7   -464278.05    32291.082   -496569.13    132.74936   0.97179048 
   53200    225.29072    44.405397    1484359.3   -464526.53    32367.983   -496894.52    133.06605   0.97138484 
   53300    224.74401    3.0931667    1484644.8   -464501.52    32289.436   -496790.95    133.29538   0.97119803 
   53400    225.44926    23.331557    1484499.7    -464190.9    32390.761   -496581.66    133.57216   0.97129296 
   53500    224.19344   -16.551306    1484977.4   -464274.54    32210.334   -496484.87    133.83185    0.9709805 
   53600    225.06463   -12.164405    1485475.2   -464022.98      32335.5   -496358.48    134.13549   0.97065512 
   53700    226.84634   -14.573104    1485851.8   -464081.57    32591.482   -496673.06    134.44649   0.97040909 
   53800    225.62136    25.151096    1485161.2   -464106.02    32415.486   -496521.51    134.65295   0.97086035 
   53900    225.21052   -21.876608    1485553.2   -464332.79    32356.459   -496689.25    134.73163   0.97060419 
   54000    223.82136    38.304695    1485385.2   -464581.41    32156.876   -496738.28    134.96134   0.97071397 
   54100    223.94825   -19.380405    1485590.7   -464613.27    32175.107   -496788.38    135.11842   0.97057967 
   54200    225.58154   -14.384958    1485910.8    -464358.4    32409.766   -496768.17    135.26423   0.97037059 
   54300    225.05288    26.192993      1485772   -464283.59    32333.812    -496617.4    135.43085   0.97046127 
   54400    224.32623   -46.011023    1485281.7   -464464.63    32229.412   -496694.04    135.43114   0.97078158 
   54500    225.09231   -15.802424    1485056.3   -464263.02    32339.476   -496602.49    135.40264   0.97092891 
   54600    224.08166    13.845812    1484056.1   -464550.33    32194.274   -496744.61    135.57271   0.97158332 
   54700     225.8734   -5.0612549    1484120.6   -464392.87    32451.697   -496844.57    135.73991   0.97154111 
   54800    225.46922   -20.017618    1484481.3   -464284.89    32393.628   -496678.52    136.01907   0.97130505 
   54900    224.68781    8.7293914    1484489.4   -464116.95    32281.361   -496398.31     136.2533   0.97129974 
   55000    225.11387   -23.090631    1485114.9   -464038.66    32342.574   -496381.23    136.63068   0.97089065 
   55100    225.00607    24.889011    1484631.3   -464066.73    32327.086   -496393.82    136.96291   0.97120685 
   55200    226.57684   -2.0824296    1484480.9   -464008.29    32552.763   -496561.06    137.19816   0.97130528 
   55300    224.64296   -28.541932    1484234.5   -464058.97    32274.917   -496333.88    137.39774   0.97146656 
   55400    225.19506    20.768816    1484099.5   -464131.14     32354.24   -496485.38    137.67273   0.97155487 
   55500    224.26726    8.0620032    1484324.8    -464117.8    32220.939   -496338.74    137.92104   0.97140742 
   55600    224.33027    28.539793    1484125.5   -464125.08    32229.993   -496355.08     138.1674   0.97153789 
   55700    225.42521    5.8191394    1483818.4   -464012.16    32387.306   -496399.46     138.3189   0.97173893 
   55800     225.2229   -44.006192      1484445    -463936.5    32358.239   -496294.73     138.5146   0.97132876 
   55900    224.88621   -26.000767    1484006.5   -464074.84    32309.867    -496384.7    138.62427   0.97161578 
   56000    224.83485    14.304753      1483907    -464456.4    32302.487   -496758.89    138.83261   0.97168095 
   56100    223.68782    9.7138438    1483534.4   -464722.06    32137.691   -496859.75    139.09691   0.97192497 
   56200    224.48421   -68.373476    1483044.2    -464430.1     32252.11   -496682.21    139.18118   0.97224622 
   56300    224.24529    23.512578    1483407.9   -464354.02    32217.784    -496571.8    139.40661   0.97200783 
   56400    225.55833   -23.938487    1483068.1   -464076.25    32406.431   -496482.68    139.55884   0.97223053 
   56500     225.9308    43.800053    1482690.7   -463994.56    32459.944    -496454.5    139.76411   0.97247803 
   56600    226.54809   -27.361713    1483212.5   -463844.64    32548.632   -496393.28    140.01543   0.97213593 
   56700    225.71349    30.329958    1483566.5   -463868.96    32428.723   -496297.69    140.28956   0.97190394 
   56800    225.53748   -56.582934    1484008.7   -463911.49    32403.436   -496314.93    140.65636   0.97161432 
   56900    225.07466    28.957495    1484690.9   -463942.99    32336.941   -496279.93    141.06181   0.97116788 
   57000     225.9278   -2.4629593    1485219.3   -463930.77    32459.514   -496390.28    141.32981    0.9708224 
   57100    225.68579   -20.531921    1484738.7    -464242.3    32424.743   -496667.04    141.59762   0.97113666 
   57200    225.69445   -39.071216    1484129.2   -464335.91    32425.988    -496761.9    141.72819   0.97153547 
   57300    224.69056   -52.227532    1483598.7   -464601.13    32281.757   -496882.89    142.01653   0.97188288 
   57400    223.58719   -8.9179392      1483560   -464716.87    32123.233    -496840.1    142.31803   0.97190823 
   57500    224.15847    42.979696    1484019.5   -464590.45     32205.31   -496795.76     142.6797   0.97160728 
   57600     225.2185    8.5575357      1484183   -464415.19    32357.606    -496772.8     142.9302   0.97150026 
   57700    224.70535   -11.137127    1484293.6   -464467.15    32283.881   -496751.03    143.17856   0.97142787 
   57800    224.30928    21.942908    1483800.3   -464669.22    32226.977    -496896.2    143.35174   0.97175083 
   57900    224.71623    2.6997656    1483203.7   -464343.09    32285.444   -496628.54    143.51479    0.9721417 
   58000     225.0587   -37.254544    1483473.2   -464292.42    32334.648   -496627.06    143.80166   0.97196509 
   58100    224.15472     24.18097    1482904.8   -464622.13    32204.771    -496826.9    143.97183   0.97233761 
   58200    223.96689    44.838775      1482830    -464381.5    32177.785   -496559.28    144.16611   0.97238666 
   58300    224.43394   -2.7239223    1483590.5   -464332.33    32244.887   -496577.21    144.41208    0.9718882 
   58400    223.94018    6.7717239    1483829.6    -464639.8    32173.947   -496813.74    144.76705   0.97173164 
   58500    223.73568   -39.106845    1484443.5   -464379.46    32144.567   -496524.03     145.1473   0.97132972 
   58600    224.20196   -12.201585    1483784.1   -464231.54    32211.558    -496443.1    145.15812   0.97176144 
   58700    224.85674   -4.2796157    1484578.8      -464070    32305.633   -496375.63    145.49153   0.97124125 
   58800    225.17807    59.353308    1483802.4   -463988.05    32351.798   -496339.85    145.54378   0.97174942 
   58900    224.64053    17.802723    1484519.8   -464186.25    32274.568   -496460.82    145.74526   0.97127985 
   59000    225.60955    22.779036    1484587.5      -463924     32413.79   -496337.79    145.93286   0.97123552 
   59100    224.83216   -24.803248    1485065.3   -464115.37      32302.1   -496417.47    146.18832   0.97092304 
   59200    224.79672   -38.058819    1485038.5   -464190.86    32297.008   -496487.87    146.37575   0.97094057 
   59300    224.19952   -4.2790463    1484909.1   -464378.76    32211.208   -496589.97    146.36265   0.97102517 
   59400     225.0975   -96.235622    1484257.2   -464398.56    32340.223   -496738.78    146.33808   0.97145168 
   59500     225.7884    84.126989      1484047    -464346.4    32439.486   -496785.88    146.38193   0.97158925 
   59600    223.81081   -64.091902    1484547.8    -464403.8    32155.361   -496559.16    146.47147    0.9712615 
   59700    224.86037    19.944167    1484746.8   -464141.58    32306.154   -496447.73    146.60882   0.97113134 
   59800    225.27503    29.041499    1484950.2   -464058.51    32365.728   -496424.24     146.8762   0.97099833 
   59900    226.33641    23.815554    1484852.5   -464036.41    32518.219   -496554.63    147.02354   0.97106221 
   60000    223.78755    63.027767    1485157.4      -464297    32152.019   -496449.02    147.38096   0.97086285 
   60100    225.03598    25.535943    1484706.3   -464217.84    32331.384   -496549.23    147.56389   0.97115783 
   60200    224.99385      -66.188    1484082.7   -464082.55     32325.33   -496407.88    147.71764   0.97156593 
   60300    224.71464    49.781934    1484282.7   -464349.35    32285.216   -496634.57    147.90292   0.97143496 
   60400    225.24494   -48.133171    1484318.9   -464260.43    32361.405   -496621.83    148.08385   0.97141127 
   60500    225.66953    -25.71738    1484575.5   -464084.09    32422.407    -496506.5    148.23569   0.97124341 
   60600     223.7827   -2.5010403    1484335.1   -464264.11    32151.322   -496415.43    148.51924   0.97140069 
   60700    224.56528   -8.7023552    1484807.7   -464310.39    32263.758   -496574.15    148.78811   0.97109152 
   60800    223.78895   -28.823582    1484730.9   -464272.47     32152.22   -496424.69    149.12323   0.97114172 
   60900    224.69808   -23.511703    1484337.9    -464168.1    32282.837   -496450.94    149.41373   0.97139884 
   61000    225.86999   -8.8958303    1484101.8   -464114.38    32451.208   -496565.58    149.58404   0.97155337 
   61100    225.92161    8.2351547    1484456.1   -464026.76    32458.623   -496485.38    149.98981   0.97132152 
   61200    226.22944   -2.2540534    1485028.8   -463868.43     32502.85   -496371.28    150.27445    0.9709469 
   61300    225.44064   -20.733936    1484709.8   -464095.92    32389.522   -496485.44    150.42332    0.9711555 
   61400    225.44856    41.245832    1485217.1   -464193.43     32390.66   -496584.09    150.86382   0.97082382 
   61500      226.036   -20.532551    1484800.9   -463795.13    32475.059   -496270.19    151.13898   0.97109596 
   61600    225.73902      9.23048    1484543.1    -463952.9    32432.391   -496385.29    151.41352    0.9712646 
   61700    225.12218   -11.475366    1484619.4   -464125.76    32343.768   -496469.53    151.62111   0.97121469 
   61800    224.46419    -10.35325    1484541.2    -464140.5    32249.233   -496389.73    151.97292   0.97126583 
   61900    225.66722    28.031974    1484561.4   -464089.14    32422.075   -496511.21    152.10994   0.97125259 
   62000    225.96285  -0.97398999    1484973.6   -463922.98    32464.548   -496387.53    152.45565   0.97098299 
   62100    225.01777   -0.1715398    1484271.1   -464150.47    32328.767   -496479.24    152.58072   0.97144259 
   62200    225.30291   -9.9633958    1484262.2   -464324.42    32369.735   -496694.15    152.66865   0.97144837 
   62300    224.00259    23.513579    1484103.4   -464292.37    32182.914   -496475.28     152.9485   0.97155235 
   62400    225.30511    1.1155049    1484622.9    -464342.7     32370.05   -496712.75    153.13252    0.9712124 
   62500    224.67057    61.819355    1485723.6   -464417.73    32278.884   -496696.61    153.34935   0.97049286 
   62600    223.32184   -6.8522305    1484628.3   -464419.62     32085.11   -496504.73    153.52414   0.97120883 
   62700    224.64819    49.011407    1484687.8   -464184.28    32275.668   -496459.94    153.61435   0.97116993 
   62800    225.18266   -24.053915    1484873.2   -464225.03    32352.457   -496577.49     153.8898   0.97104868 
   62900     224.2278   -17.781028    1485509.5   -464438.25     32215.27   -496653.52    154.26639    0.9706327 
   63000    226.11052     100.9982      1485397   -464090.14    32485.765    -496575.9    154.58491   0.97070623 
   63100    225.27112   -2.9037349    1486172.1   -464237.67    32365.167   -496602.84    154.86209   0.97019999 
   63200    225.16048   -26.842105    1484982.8   -464302.46    32349.271   -496651.73    154.89749   0.97097697 
   63300    224.84845   -37.396895    1485553.7   -464368.38    32304.441   -496672.82    155.21076   0.97060386 
   63400    224.47427   -30.020345    1485184.7   -464430.73    32250.681   -496681.41    155.44602   0.97084497 
   63500    223.81698    30.556031    1485733.2   -464580.03    32156.248   -496736.28    155.50016   0.97048658 
   63600    224.58636  -0.42471592      1486248   -464581.48    32266.786   -496848.26    155.66378   0.97015041 
   63700    225.39122   -11.747204    1486332.3   -464373.85    32382.421   -496756.27    155.88035    0.9700954 
   63800    224.49364   -20.713383      1485861   -464448.58    32253.465   -496702.04    156.11016   0.97040309 
   63900    224.96843  0.029267755    1486351.9   -464609.22    32321.679   -496930.89     156.3572   0.97008263 
   64000    226.05749    49.805974    1486712.1   -464315.83    32478.146   -496793.97    156.66571   0.96984757 
   64100    224.50292   -3.8858749    1487256.5    -464546.8    32254.797   -496801.59    156.77785   0.96949261 
   64200    224.61743   -11.682346    1487801.3   -464738.02     32271.25   -497009.27    157.09406   0.96913759 
   64300    223.78975   -61.886869    1487733.1   -464747.54    32152.335   -496899.88    157.30236   0.96918202 
   64400    224.20807   -9.2660569    1486984.9   -464876.44    32212.436   -497088.88     157.5484   0.96966968 
   64500    224.44891    20.704927    1487165.4    -464864.8    32247.038   -497111.84    157.84979   0.96955195 
   64600    223.73591    45.399228    1487560.6   -465099.76      32144.6   -497244.36    158.06952   0.96929438 
   64700    224.36161   -93.644574    1487751.4   -464839.45    32234.495   -497073.94     158.3999   0.96917006 
   64800    225.40126   -31.593201    1486821.2   -464722.28    32383.864   -497106.14    158.44507   0.96977644 
   64900    226.06855   -25.651378    1487327.4   -464635.36    32479.735   -497115.09    158.62905   0.96944637 
   65000    226.25273    -6.949397    1487416.6   -464541.78    32506.196   -497047.98      158.637    0.9693882 
   65100     225.6343    23.757156    1487031.4   -464686.37    32417.345   -497103.72    158.74732   0.96963931 
   65200    224.77476    37.206952    1487046.1    -464847.2    32293.854   -497141.05    158.92291   0.96962974 
   65300    224.98043   -7.7057052    1487359.8   -464792.62    32323.403   -497116.02    159.01166   0.96942524 
   65400    223.83075    30.451147    1488140.1   -464831.03    32158.226   -496989.26    159.07073   0.96891695 
   65500     224.0165   -35.331859      1487858   -464838.17    32184.913   -497023.08    159.17092   0.96910064 
   65600    223.80958    13.681627    1487260.4   -464681.72    32155.185    -496836.9    159.37284   0.96949004 
   65700    225.00405   -21.244829    1487030.2   -464422.31    32326.797   -496749.11    159.59356   0.96964011 
   65800    225.90988   -11.251947      1487146   -464329.49    32456.939   -496786.43    159.78678   0.96956464 
   65900    224.27571   -1.5603858      1486906   -464562.64    32222.154   -496784.79    160.03784   0.96972113 
   66000     224.9766   -4.7213404    1487732.3   -464528.22    32322.852   -496851.07    160.51647   0.96918249 
   66100    226.45056   -2.2469896    1487731.3   -464386.52     32534.62   -496921.14    160.88238    0.9691832 
   66200    225.71595   0.49679159    1487937.3    -464564.2    32429.077   -496993.28    161.04991   0.96904901 
   66300    225.89643    32.323303    1487842.4   -464465.26    32455.007   -496920.26    161.41258   0.96911081 
   66400    226.85004   -12.170623    1487452.4   -464580.39    32592.013    -497172.4    161.58885   0.96936486 
   66500    226.74371   0.94564163    1487045.5   -464464.87    32576.737   -497041.61    161.80787   0.96963013 
   66600    225.40899   -19.585599    1487275.7   -464645.78    32384.975   -497030.75    162.22232   0.96948004 
   66700    225.33198   -49.981534    1487565.1   -464646.07    32373.911   -497019.98    162.46018   0.96929148 
   66800    224.89498   -56.429451    1486352.1   -464703.21    32311.125   -497014.33    162.50275   0.97008248 
   66900    226.30197   -35.393064    1486321.6   -464590.67    32513.271   -497103.94    162.67767   0.97010236 
   67000    224.80159   0.41704537      1486084   -464793.23    32297.708   -497090.94    162.74886    0.9702575 
[...]
   84900     223.5918    30.224889    1486416.5    -464463.4    32123.895   -496587.29    203.60451   0.97004045 
   85000    224.94948    4.0275849    1486392.3   -464212.05    32318.955      -496531    203.78642   0.97005627 
   85100    225.16906   -30.044721    1485638.3   -464271.05    32350.503   -496621.55    203.96107   0.97054857 
   85200    224.69326   -11.081267    1486121.4   -464464.53    32282.144   -496746.67    204.27646    0.9702331 
   85300     224.7083    24.950908    1486650.2   -464536.16    32284.306   -496820.46    204.64884   0.96988795 
   85400    225.60263   -36.523905    1486649.2   -464345.54    32412.795   -496758.34    204.96873   0.96988864 
   85500    225.56588   -21.433752      1485964   -464383.14    32407.516   -496790.65    205.03124   0.97033582 
   85600     224.4967    20.399792    1485831.9   -464368.97    32253.905   -496622.87    205.42178   0.97042215 
   85700     225.8705   -28.375131    1485715.2   -464223.11    32451.281   -496674.39    205.63843   0.97049835 
   85800    225.15906   -31.399096    1484449.3   -464304.72    32349.067   -496653.78    205.72023   0.97132593 
   85900    225.52355   -19.741647    1484195.8   -464308.04    32401.434   -496709.48    205.80376   0.97149185 
   86000    225.94113    34.535572    1484034.9   -464406.77    32461.428    -496868.2    206.17972   0.97159721 
   86100    223.10755    -17.13646    1484137.9   -464384.16    32054.323   -496438.49    206.47855   0.97152977 
   86200     225.8487   -5.3679681    1484534.4   -464356.61    32448.149   -496804.76     206.8198   0.97127025 
   86300    223.89761   -10.371659    1484158.3   -464322.12    32167.832   -496489.96    207.05415   0.97151639 
   86400    223.91154      8.88936    1483644.1   -464238.95    32169.834   -496408.78    207.19841   0.97185309 
   86500    224.56706    18.722979    1483717.8   -464172.67    32264.013   -496436.69    207.45943   0.97180484 
   86600    224.08318    11.620606    1484380.7   -464115.44    32194.492   -496309.93      207.831   0.97137086 
   86700    226.21339    4.6159594    1483920.5   -464009.02    32500.545   -496509.57    208.09213   0.97167211 
   86800    224.42919   -17.221807    1483179.4   -464107.92    32244.205   -496352.12    208.16974    0.9721576 
   86900    226.00149    14.905027    1484233.1    -463999.1      32470.1    -496469.2    208.23792   0.97146747 
   87000    225.02339   -34.567973    1483858.2   -463978.96    32329.575   -496308.53    208.40977   0.97171287 
   87100     224.4704   -7.0118129    1483791.5   -464055.62    32250.125   -496305.75    208.65248   0.97175658 
   87200    224.46228    26.982002    1484529.8   -464215.75     32248.96   -496464.71    208.95616   0.97127329 
   87300    224.30574    0.5951122    1484607.3   -464283.28    32226.469   -496509.75    209.11621   0.97122261 
   87400    225.03573   -24.885201    1484798.7   -463910.12    32331.348   -496241.47    209.45724   0.97109736 
   87500    224.94754   -2.7353051    1484594.1   -463988.49    32318.678   -496307.16    209.68247   0.97123125 
   87600    224.87974    16.770574    1485025.6   -464301.35    32308.936   -496610.29    210.08053   0.97094902 
   87700    224.14853   -48.627785    1485105.3   -464178.38    32203.881   -496382.26    210.14452   0.97089693 
   87800    224.69769    16.486728    1484534.4   -464211.13    32282.781   -496493.91    210.30122   0.97127025 
   87900    225.64424     4.271275    1484796.8   -463976.85    32418.774   -496395.62    210.60667   0.97109863 
   88000    225.70809   -18.134734      1484938   -464142.36    32427.946   -496570.31    210.70141    0.9710063 
   88100    225.89234   -5.5968403      1484637   -464056.71    32454.419   -496511.13    210.96026   0.97120314 
   88200     223.8903   -16.952421    1484059.3   -464171.54    32166.782   -496338.32    211.15915   0.97158118 
   88300    224.44271    65.934846    1485300.4   -463916.18    32246.147   -496162.33     211.5169   0.97076935 
   88400    225.01101     41.39607      1485532   -463912.36    32327.796   -496240.16    211.73904   0.97061805 
   88500    225.33343    1.6072691    1484532.1   -463904.32    32374.119   -496278.44    211.84079   0.97127176 
   88600    225.08099   -27.320989    1484779.3   -464073.92     32337.85   -496411.77    212.10938   0.97111005 
   88700    224.41628    17.031679    1484049.6   -464047.64    32242.351   -496289.99    212.20882   0.97158759 
   88800    223.97558    2.6085836    1484804.4   -464157.37    32179.034    -496336.4     212.4546   0.97109366 
   88900     224.7692    6.6751592    1484566.7   -464089.54    32293.055    -496382.6    212.62813   0.97124912 
   89000    225.03685   -30.671256      1484354   -464202.07    32331.509   -496533.58    212.83192   0.97138833 
   89100    225.77056   -17.404055    1483951.3    -464142.5    32436.922   -496579.42     213.1029   0.97165191 
   89200    225.03325   -2.2478001      1483931   -464124.63    32330.992   -496455.63    213.40572   0.97166525 
   89300    225.71095    14.092878    1483872.6   -464118.14    32428.358   -496546.49    213.55398   0.97170345 
   89400    224.35155   -46.406933    1483581.2   -464165.98    32233.051   -496399.03    213.70571   0.97189429 
   89500    226.02974   -2.2830435    1484556.5   -463966.07     32474.16   -496440.23     214.0076    0.9712558 
   89600     224.5243     30.44967    1483945.2   -464231.26    32257.869   -496489.13    214.29777   0.97165594 
   89700    224.05819     57.27526    1484764.6   -464154.69    32190.903   -496345.59    214.67218   0.97111967 
   89800    225.39477   -39.864798    1485265.5   -464113.98    32382.931   -496496.91    215.02087   0.97079221 
   89900      224.069   -19.424057    1485116.8   -464323.43    32192.455   -496515.88    215.21787   0.97088937 
   90000    225.33225   -28.445198    1484106.8   -464286.67     32373.95   -496660.62    215.51814   0.97155012 
   90100    223.71557    -26.87492    1484263.5   -464378.41    32141.678   -496520.08    215.89405   0.97144758 
   90200    224.53866     25.17254    1484166.4   -464142.65    32259.933   -496402.58     216.2591   0.97151112 
   90300    224.37188   -9.3044719    1484290.9   -464444.17    32235.971   -496680.14    216.58029   0.97142964 
   90400     224.1707     38.85644    1484133.1   -464600.77    32207.066   -496807.84    216.72337   0.97153289 
   90500    224.84381    3.6933844    1484516.9   -464298.16    32303.774   -496601.93    217.05903   0.97128174 
   90600    225.25798     4.300371    1483927.2   -464089.77    32363.279   -496453.05    217.09399   0.97166773 
   90700    224.24526    19.556412    1483995.9   -464223.68    32217.779   -496441.46    217.19233   0.97162275 
   90800    224.96276   -44.058012      1484303   -464314.46    32320.864   -496635.32    217.39595   0.97142171 
   90900    225.88913      -24.953    1484369.8   -464233.37    32453.958   -496687.33    217.48723   0.97137801 
   91000    225.32696   -8.7783919    1484809.3   -464475.89     32373.19   -496849.07    217.88237   0.97109047 
   91100    224.39125    5.4006322    1484532.5   -464449.66    32238.755   -496688.41    218.00111   0.97127154 
   91200    226.55177    15.599271    1484744.9   -464265.94    32549.161    -496815.1    218.17129   0.97113259 
   91300    224.71665    1.7759947    1485799.3   -464384.69    32285.504    -496670.2    218.52122   0.97044341 
   91400     224.9299    12.682772      1485671   -464466.63    32316.143   -496782.77    218.65187    0.9705272 
   91500    224.73882    35.825589    1486168.3   -464687.18     32288.69   -496975.87    218.87627   0.97020246 
   91600    225.85315   -19.252629    1486726.2   -464635.29    32448.789   -497084.08     218.9369   0.96983838 
   91700    224.68787    59.448496    1486542.3    -464742.5     32281.37   -497023.87    218.96017   0.96995835 
   91800     224.8781   -3.0383156    1486490.3   -464748.31    32308.701   -497057.01    218.98475   0.96999231 
   91900    224.33987     -1.82685    1487076.1   -464945.67    32231.371   -497177.05    219.17788   0.96961021 
   92000    224.06221   -36.981294      1486877   -464804.71    32191.481   -496996.19    219.18953   0.96974001 
   92100    224.52737   -63.805356    1486655.9   -464676.98     32258.31   -496935.29    219.21009   0.96988427 
   92200    224.45321   -33.080565    1485874.3   -464482.25    32247.656   -496729.91    219.28761    0.9703944 
   92300    227.09352    61.793183    1486065.7   -464275.75    32626.994   -496902.75    219.43089   0.97026942 
   92400    225.36841   -15.252172    1485884.8    -464370.5    32379.144   -496749.64    219.51708   0.97038757 
   92500    225.15446   -34.589029    1485642.9   -464607.34    32348.407   -496955.74     219.7688   0.97054556 
   92600    225.59791    32.490793    1485629.5   -464373.87    32412.118   -496785.99    219.88567    0.9705543 
   92700    225.56335     5.424269    1485753.1   -464509.94    32407.153    -496917.1    220.05501   0.97047361 
   92800    224.46449    16.341086    1486226.7   -464695.62    32249.277    -496944.9    220.38496   0.97016433 
   92900    225.28703    3.2902321    1486392.6   -464577.42    32367.453   -496944.87     220.4855   0.97005607 
   93000    224.95416    26.690403    1486885.8   -464622.83    32319.628   -496942.45    220.77597    0.9697343 
   93100     226.0673   -37.665064    1486864.7   -464418.17    32479.555   -496897.73     220.8896   0.96974808 
   93200    225.39508    48.793541    1487150.5   -464666.82    32382.976   -497049.79     221.0176   0.96956167 
   93300    226.38425   -23.222554    1487581.8   -464494.14    32525.092   -497019.23    221.22097   0.96928055 
   93400    225.95319   -28.007383    1487383.1   -464290.16    32463.161   -496753.32    221.44728   0.96941006 
   93500    224.89252   -26.219953    1487485.5   -464505.25    32310.772   -496816.02     221.6108   0.96934331 
   93600    224.79634   -40.953875    1486472.6   -464519.51    32296.955   -496816.46    221.69059   0.97000384 
   93700    224.06133    59.559388    1486545.3   -464641.77    32191.353   -496833.13    221.90376   0.96995644 
   93800    224.31802    14.346152    1487472.7   -464683.66    32228.232    -496911.9     222.1597   0.96935163 
   93900    225.90746    50.487558    1488080.7   -464452.12     32456.59   -496908.71    222.47137   0.96895559 
   94000    224.33089   -13.456825    1487930.4   -464646.56    32230.081   -496876.65    222.67975    0.9690535 
   94100    224.27093    15.033853    1487445.5   -464798.23    32221.467    -497019.7    222.73024   0.96936936 
   94200    224.63423   -37.075539    1487239.8   -464968.95    32273.664   -497242.61    222.80439   0.96950347 
   94300    223.98556    52.296647    1487462.4   -464916.96    32180.468   -497097.43    222.94693   0.96935838 
   94400     225.3322    12.482925    1487498.2   -464871.46    32373.942    -497245.4    223.16897   0.96933508 
   94500    224.40269   -21.713536    1487306.6   -464933.56    32240.397   -497173.95     223.4161   0.96945993 
   94600    224.42716   -26.623176    1487533.4   -464928.43    32243.914   -497172.34     223.7127    0.9693121 
   94700    223.14702  -0.30205031    1487617.6    -465098.5    32059.993    -497158.5    223.95037   0.96925727 
   94800    224.85412    20.390005    1487291.7   -465031.12    32305.255   -497336.37    224.12514    0.9694696 
   94900    224.38663    24.376036    1487529.2   -464830.76    32238.089   -497068.85    224.17794   0.96931484 
   95000    225.90147   0.37386895    1487658.6   -464764.97    32455.731    -497220.7    224.42566   0.96923053 
   95100    224.87529    -2.643585    1487486.9   -464810.34    32308.297   -497118.64    224.65733   0.96934242 
   95200    226.17353    72.744812      1487842    -464798.5    32494.818   -497293.32    224.89101   0.96911103 
   95300    225.07123   -48.422662    1488015.4   -464983.91    32336.448   -497320.36    225.22061   0.96899814 
   95400      224.685   -42.971174    1487866.4   -464955.79    32280.958   -497236.75     225.4788   0.96909515 
   95500    225.16173   -10.608134    1487807.4   -465105.42     32349.45   -497454.87    225.82781   0.96913358 
   95600    224.15229    4.0976669    1487783.7   -465191.77    32204.422   -497396.19     226.1433   0.96914903 
   95700    223.13584   -20.436252    1487484.8    -465212.3    32058.386   -497270.69    226.35245   0.96934379 
   95800    225.74277    56.876148    1488023.2   -465129.82     32432.93   -497562.75    226.69243   0.96899307 
   95900     225.4536   0.67595697    1488228.1   -464971.89    32391.383   -497363.27    227.11523   0.96885965 
   96000    225.55905    -22.95601      1488186   -465024.91    32406.534   -497431.44     227.3909   0.96888704 
   96100     225.0734    2.4843912      1487925   -464790.12    32336.759   -497126.88    227.53372   0.96905698 
   96200    225.57085    40.771731    1488093.2   -464905.39     32408.23   -497313.62    227.92523   0.96894744 
   96300    226.88245   -36.118892    1488559.1   -464734.78    32596.669   -497331.45    228.25524    0.9686442 
   96400    225.46049   -10.098339    1488358.1   -464817.74    32392.373   -497210.12    228.51425   0.96877503 
   96500    224.56284   -44.632813      1488624   -465058.03    32263.406   -497321.44    228.82721   0.96860198 
   96600     226.3565   -9.2948554    1488701.6   -464878.39    32521.106    -497399.5     228.9131   0.96855151 
   96700     225.1303   -26.095028    1488961.6   -464845.44    32344.935   -497190.37    229.12741   0.96838237 
   96800    226.64146    -29.48918    1488611.2   -464770.24    32562.047   -497332.29    229.24255   0.96861029 
   96900    226.49489    28.093682    1488569.7   -464607.38    32540.988   -497148.37    229.68431    0.9686373 
   97000    224.33858    1.5574071    1488720.2   -464723.61    32231.187    -496954.8    229.92797   0.96853938 
   97100    224.65712   -5.5272748    1488593.7   -464928.39    32276.952   -497205.34    230.11005   0.96862167 
   97200    223.94665   -3.0082322    1488597.3   -464887.66    32174.877   -497062.53     230.3025   0.96861935 
   97300    225.67631   -33.624721    1488371.4   -464776.75    32423.381   -497200.13    230.41595   0.96876639 
   97400    225.34566   -26.181026    1487966.4   -464838.97    32375.876   -497214.84    230.52033   0.96903001 
   97500    224.62347    23.362742    1488619.6   -464800.04    32272.117   -497072.15    230.84748   0.96860484 
   97600    225.10981     21.52427    1488480.4   -464792.81     32341.99    -497134.8    231.00905   0.96869544 
   97700    224.77905   -11.619842    1487940.9   -464916.88     32294.47   -497211.35    231.26372   0.96904664 
   97800    223.67577     35.39765    1487675.1   -465052.06     32135.96   -497188.02    231.35399   0.96921976 
   97900    225.52458     14.59798    1487909.1   -465059.97    32401.581   -497461.55    231.60416   0.96906738 
   98000    225.83244    3.1688246    1487879.1   -464877.81    32445.813   -497323.62    232.00233   0.96908687 
   98100    224.72381    -27.58133    1487086.9    -464620.3    32286.533   -496906.83    232.12055   0.96960315 
   98200    224.71398   -41.625213    1487768.2    -464804.5    32285.121   -497089.62    232.49633   0.96915916 
   98300     225.2582    -0.474869    1486917.3   -464630.17     32363.31   -496993.48    232.75337   0.96971373 
   98400    225.89704    -26.14425    1487377.9   -464507.95    32455.094   -496963.04    233.07131   0.96941342 
   98500    225.86784   -51.620509    1486676.6   -464411.81    32450.899   -496862.71    233.21524   0.96987076 
   98600    224.47595    30.294967      1486395   -464725.84    32250.924   -496976.76    233.45847   0.97005446 
   98700    226.55404    4.1012957    1486559.8   -464550.94    32549.487   -497100.43    233.72876   0.96994695 
   98800    224.95846    11.994105    1486208.1    -464784.2    32320.246   -497104.45    233.81513   0.97017647 
   98900    224.81362    1.9740666    1485933.3   -464783.37    32299.436    -497082.8     234.0591   0.97035591 
   99000    226.03045    29.676604    1486670.7   -464704.53    32474.261   -497178.79    234.37714   0.96987462 
   99100    226.24171    -39.19234    1486844.1   -464574.07    32504.613   -497078.68     234.6165   0.96976145 
   99200    225.86463    44.277351    1487661.2   -464659.18    32450.437   -497109.61    234.89227   0.96922882 
   99300    224.91923    23.665969    1486485.3   -464702.37     32314.61   -497016.98    234.93655   0.96999559 
   99400    224.45215    11.284065    1487259.3   -464601.31    32247.503   -496848.81    235.31516   0.96949072 
   99500    225.66454   -11.127051      1487294   -464546.62     32421.69   -496968.31    235.71212   0.96946816 
   99600    225.86322    4.4290223      1487571    -464494.5    32450.235   -496944.73    236.02542   0.96928759 
   99700     225.0804    24.557113    1487025.3   -464719.14    32337.766   -497056.91     236.1947   0.96964334 
   99800     223.8859   -30.473337    1486890.8   -464651.23     32166.15   -496817.38    236.55437     0.969731 
   99900    224.91835    36.098182    1486900.4    -464800.9    32314.484   -497115.39    236.74323   0.96972473 
  100000    225.17017   -3.0754391    1487121.9   -464817.16    32350.662   -497167.82    236.99515   0.96958035 
  100100    225.06479    40.788141    1486735.4   -464851.41    32335.523   -497186.94    237.14169   0.96983237 
  100200    224.55833   -13.029447    1487119.3   -464876.68    32262.759   -497139.44    237.22635   0.96958203 
  100300    225.24912    36.650586    1486623.5   -464802.82    32362.005   -497164.82    237.28787    0.9699054 
  100400    225.50391    21.846119    1487354.5   -464717.16    32398.612   -497115.77    237.54881   0.96942872 
  100500    225.79038   -15.443091    1487469.6   -464772.25     32439.77   -497212.02    237.82061    0.9693537 
  100600    226.25612    19.499356    1487410.7   -464756.14    32506.684   -497262.82    237.96854   0.96939209 
  100700    225.09189    16.866966    1487340.3   -464907.99    32339.416   -497247.41    238.16851   0.96943794 
  100800    225.64103   -28.495229    1487075.3    -464721.4    32418.313   -497139.71    238.48897   0.96961074 
  100893    222.84837    12.399017      1487604   -464916.76    32017.086   -496933.85    238.92792   0.96926609 
Loop time of 1009.27 on 6 procs for 100000 steps with 48200 atoms

Performance: 42.803 ns/day, 0.561 hours/ns, 99.082 timesteps/s
99.8% CPU use with 6 MPI tasks x no OpenMP threads

MPI task timing breakdown:
Section |  min time  |  avg time  |  max time  |%varavg| %total
---------------------------------------------------------------
Pair    | 865.1      | 872.64     | 889.35     |  28.1 | 86.46
Neigh   | 72.498     | 72.673     | 72.968     |   1.9 |  7.20
Comm    | 18.973     | 35.919     | 43.596     | 140.2 |  3.56
Output  | 1.6928     | 1.6954     | 1.7066     |   0.4 |  0.17
Modify  | 20.475     | 20.62      | 20.786     |   2.2 |  2.04
Other   |            | 5.726      |            |       |  0.57

Nlocal:        8033.33 ave        8048 max        8008 min
Histogram: 1 0 0 1 0 0 1 0 1 2
Nghost:        7770.83 ave        7814 max        7749 min
Histogram: 2 1 1 0 0 1 0 0 0 1
Neighs:        0.00000 ave           0 max           0 min
Histogram: 6 0 0 0 0 0 0 0 0 0
FullNghs:     226214.0 ave      226853 max      224892 min
Histogram: 1 0 0 1 0 0 0 1 0 3

Total # of neighbors = 1357282
Ave neighs/atom = 28.159378
Neighbor list builds = 6725
Dangerous builds = 0
write_data 	    data.${NAME}
write_data 	    data.wall_225K_20A
System init for write_data ...

undump              1
unfix               2
unfix               3
unfix               4


################################################
#######         Run Simulation         #########
################################################

reset_timestep      0
log                 log.run_${NAME}
log                 log.run_wall_225K_20A
