LAMMPS (29 Oct 2020)
# read data from wall
# read data from water cylinder
# save new configuration






variable            TEMP string 225
variable            PRES string 1
variable            NAME string config_10A_NVT
variable            TCOUPL string 5000.0
variable            PCOUPL string 10000.0
variable            TDAMP string 1000.0
variable            PDAMP string 2500.0

units	   	    real
atom_style 	    atomic
log		    log.eq_${NAME}
log		    log.eq_config_10A_NVT
