
# Create simulation box of size 270 x 270 x 10 Angstrom
#
lattice	     sc 1
Lattice spacing in x,y,z = 1.0000000 1.0000000 1.0000000
region 	     all block 0 270 0 270 0 10 units box
create_box          1 all
Created orthogonal box = (0.0000000 0.0000000 0.0000000) to (270.00000 270.00000 10.000000)
  2 by 3 by 1 MPI processor grid

# Create quasi-2d droplet, with radius of 11nm (110 A)
#
region              droplet cylinder z 135 135 45 -0.0 10 units box

# fill box with randomly distributed atoms such that density is ~0.0333 N/A^3
#
create_atoms        1 random 2099 63782 droplet
Created 2099 atoms
  create_atoms CPU = 0.000 seconds
mass                1 18.015

# Define potential
#
pair_style          sw
pair_coeff          * * ML_mW.sw mW
Reading sw potential file ML_mW.sw with DATE: 2019-02-27

# Run minimization
#
minimize            1.0e-8 1.0e-8 10000 1000
WARNING: Using 'neigh_modify every 1 delay 0 check yes' setting during minimization (../min.cpp:187)
Neighbor list info ...
  update every 1 steps, delay 0 steps, check yes
  max neighbors/atom: 2000, page size: 100000
  master list distance cutoff = 6.0032907
  ghost atom cutoff = 6.0032907
  binsize = 3.0016454, bins = 90 90 4
  1 neighbor lists, perpetual/occasional/extra = 1 0 0
  (1) pair sw, perpetual
      attributes: full, newton on
      pair build: full/bin/atomonly
      stencil: full/bin/3d
      bin: standard
Per MPI rank memory allocation (min/avg/max) = 3.870 | 4.030 | 4.352 Mbytes
Step Temp E_pair E_mol TotEng Press 
       0            0    4556529.9            0    4556529.9     588694.4 
     621            0   -22225.762            0   -22225.762   -18.598325 
Loop time of 1.52895 on 6 procs for 621 steps with 2099 atoms

99.8% CPU use with 6 MPI tasks x no OpenMP threads

Minimization stats:
  Stopping criterion = max force evaluations
  Energy initial, next-to-last, final = 
      4556529.94246482  -22225.6606765089  -22225.7620222393
  Force two-norm initial, final = 99522465.0 3.0572753
  Force max component initial, final = 67423427.0 0.68975535
  Final line search alpha, max atom move = 0.11430036 0.078839283
  Iterations, force evaluations = 621 1000

MPI task timing breakdown:
Section |  min time  |  avg time  |  max time  |%varavg| %total
---------------------------------------------------------------
Pair    | 5.39e-05   | 0.44887    | 1.4551     |  95.2 | 29.36
Neigh   | 0.00020599 | 0.01067    | 0.032431   |  14.3 |  0.70
Comm    | 0.020468   | 0.95932    | 1.501      |  60.8 | 62.74
Output  | 0          | 0          | 0          |   0.0 |  0.00
Modify  | 0          | 0          | 0          |   0.0 |  0.00
Other   |            | 0.1101     |            |       |  7.20

Nlocal:        349.833 ave        1061 max           0 min
Histogram: 4 0 0 0 0 0 0 0 0 2
Nghost:        614.000 ave        1676 max          85 min
Histogram: 4 0 0 0 0 0 0 0 0 2
Neighs:        0.00000 ave           0 max           0 min
Histogram: 6 0 0 0 0 0 0 0 0 0
FullNghs:      9386.00 ave       28900 max           0 min
Histogram: 4 0 0 0 0 0 0 0 0 2

Total # of neighbors = 56316
Ave neighs/atom = 26.829919
Neighbor list builds = 23
Dangerous builds = 0

# Add velocity/set timestep
#
velocity            all create ${TEMP} 120598 rot yes dist gaussian
velocity            all create 225 120598 rot yes dist gaussian
timestep            10.0


##### Equilibrate #####

thermo	            100
thermo_style        custom step temp press vol etotal ke pe

# Neighbor lists
#
neigh_modify        delay 0 every 1 check yes

# Set fixes
#
fix                 1 all momentum 10 linear 1 1 1 rescale
fix                 2 all nve
fix                 3 all temp/csvr ${TEMP} ${TEMP} 500.0 928347
fix                 3 all temp/csvr 225 ${TEMP} 500.0 928347
fix                 3 all temp/csvr 225 225 500.0 928347
fix                 4 all press/berendsen iso ${PRES} ${PRES} 1000.0 modulus 20000
fix                 4 all press/berendsen iso 1 ${PRES} 1000.0 modulus 20000
fix                 4 all press/berendsen iso 1 1 1000.0 modulus 20000

# Run 0.5 ns equilibration
#
dump                1 all custom 1000 eq.${NAME}.dump id type x y z vx vy vz
dump                1 all custom 1000 eq.5A_cylinder.dump id type x y z vx vy vz
run                 50000
Per MPI rank memory allocation (min/avg/max) = 2.745 | 2.926 | 3.228 Mbytes
Step Temp Press Volume TotEng KinEng PotEng 
     621          225    69.633981       729000   -20818.671    1407.0914   -22225.762 
     700     173.8656    -34.24287    728226.03   -19999.766    1087.3102   -21087.076 
     800    207.25692   -88.008659    726220.61   -19654.597    1296.1308   -20950.727 
     900    216.29965     40.39986     726285.3   -19556.843    1352.6817   -20909.525 
    1000    226.03342    3.2530075    727039.57    -19537.98    1413.5541   -20951.534 
    1100    223.25499   -27.995017    726522.39   -19527.176    1396.1785   -20923.354 
    1200    216.03399    23.284473    726053.23   -19680.967    1351.0203   -21031.987 
    1300    228.97228   -22.912241    726906.48   -19675.043     1431.933   -21106.976 
    1400    217.12462    -9.686418    726629.68   -19743.051    1357.8408   -21100.892 
    1500    230.52008   -10.343809    726136.61   -19696.891    1441.6125   -21138.503 
    1600    226.51276    12.367901    725599.72   -19648.587    1416.5518   -21065.138 
    1700    217.49507    30.141793    726044.47   -19696.495    1360.1575   -21056.653 
    1800    219.49283   -18.336907    726415.63   -19731.446     1372.651   -21104.097 
    1900    220.27971   -2.1973359    725940.87   -19671.148    1377.5719    -21048.72 
    2000     225.5888    6.2238444    725632.63   -19644.336    1410.7736    -21055.11 
    2100    225.54696     13.74839    725553.19   -19631.851     1410.512   -21042.363 
    2200     230.5884    28.136714    725432.78   -19641.787    1442.0398   -21083.826 
    2300    233.99116    1.9968503     724857.4   -19639.387    1463.3198   -21102.707 
    2400    227.53269    48.269565    725431.04   -19658.367    1422.9302   -21081.297 
    2500    230.71693    10.635044    725301.97   -19600.828    1442.8436   -21043.672 
    2600    233.43313    4.0490195    724358.06   -19555.523      1459.83   -21015.353 
    2700    230.77475    17.565831    724763.65   -19604.365    1443.2052    -21047.57 
    2800    232.97336    2.8279985    724750.07   -19606.887    1456.9547   -21063.842 
    2900    233.16226   -6.1413691    724784.61   -19653.841     1458.136   -21111.977 
    3000    224.95001    23.640279    724296.38   -19697.944    1406.7788   -21104.723 
    3100    227.99213  -0.16101132    724023.21   -19679.683    1425.8034   -21105.486 
    3200    224.80198   -2.7669267    724317.54   -19701.026     1405.853   -21106.879 
    3300    225.54356    -9.623841    724341.81   -19647.167    1410.4907   -21057.657 
    3400    228.04329   -20.900575    724196.58   -19663.306    1426.1233    -21089.43 
    3500    224.18745  -0.41181716    724213.88   -19738.662    1402.0099   -21140.672 
    3600    226.26476    11.396878    724063.72   -19766.752    1415.0009   -21181.753 
    3700    227.31709   -15.778016    724513.89   -19761.278    1421.5819    -21182.86 
    3800    227.25108   -49.007929    723578.06   -19720.891     1421.169    -21142.06 
    3900      231.497    41.470554    723817.14   -19726.134    1447.7219   -21173.856 
    4000    218.22682    7.2979515    724238.66   -19765.577    1364.7337   -21130.311 
    4100     227.0815     19.39107    723816.22   -19718.031    1420.1086    -21138.14 
    4200    220.94871   -23.384014    723461.87    -19730.89    1381.7557   -21112.646 
    4300    216.17704   -4.9101883    723654.01   -19767.966    1351.9149   -21119.881 
    4400    223.89056   -20.893302    723580.22   -19756.284    1400.1532   -21156.437 
    4500    222.90516   -13.051565    723262.49   -19737.283    1393.9908   -21131.274 
    4600    228.44036    27.642391    723115.09   -19777.653    1428.6065    -21206.26 
    4700    225.81991    3.8509536    723771.82   -19731.019    1412.2189   -21143.238 
    4800    226.22538   -1.0127458     723138.4   -19728.919    1414.7546   -21143.673 
    4900    226.51898    6.0665927    723116.37    -19690.44    1416.5907   -21107.031 
    5000     231.4246    4.5214886    723765.46   -19647.465    1447.2692   -21094.735 
    5100    228.08739   -16.411165    722763.66   -19701.582    1426.3991   -21127.982 
    5200    218.72805   -43.320363    722475.67     -19729.2    1367.8683   -21097.068 
    5300     225.7873    8.1199205     722204.8   -19709.803     1412.015   -21121.817 
    5400    223.98944   -18.028953    721743.31   -19713.304    1400.7716   -21114.075 
    5500    221.72314   -46.731989    721671.71    -19744.42    1386.5987   -21131.019 
    5600    221.90011    9.1210261    721378.52   -19749.603    1387.7055   -21137.308 
    5700    226.95667    16.585736    721694.67   -19771.385    1419.3279   -21190.713 
    5800    223.58606   -29.571621     720956.9   -19757.368     1398.249   -21155.617 
    5900    226.41702    2.6205146    720389.33   -19795.128    1415.9531   -21211.081 
    6000     220.2794    6.5300182    721225.57   -19779.139      1377.57   -21156.709 
    6100    223.97309   -4.9766822    721410.41   -19775.786    1400.6694   -21176.456 
    6200    219.67896    23.786575    721145.74   -19804.205     1373.815    -21178.02 
    6300    224.30555   -12.927935    721073.16   -19789.559    1402.7485   -21192.308 
    6400    228.44438    22.876074    720924.47   -19714.581    1428.6316   -21143.213 
    6500    225.95662    4.3566472    720905.79   -19690.174    1413.0738   -21103.248 
    6600     224.9622    5.6598872    720748.25   -19765.158     1406.855   -21172.013 
    6700    219.12778   -24.389286    720833.33   -19787.345     1370.368   -21157.713 
    6800    226.41645   -15.847571     720177.8   -19696.321    1415.9495    -21112.27 
    6900    228.96886    10.736765    719983.08   -19682.521    1431.9116   -21114.432 
    7000    220.90687    19.814715    720242.36   -19724.471     1381.494   -21105.965 
    7100    221.81224    18.002223    719530.85   -19701.621     1387.156   -21088.777 
    7200    222.25079   -4.8589852    719185.16   -19773.099    1389.8985   -21162.998 
    7300    222.07316   -34.007574    719516.45   -19771.484    1388.7877   -21160.272 
    7400     221.6358    42.922656    719248.25   -19745.504    1386.0525   -21131.557 
    7500    223.30788   -14.230743    719097.46   -19732.624    1396.5093   -21129.134 
    7600    222.47783    1.5856602    719751.36   -19769.365    1391.3184   -21160.684 
    7700    224.77923   -6.0101326    719510.22   -19692.234    1405.7107   -21097.944 
    7800    225.68555   -28.235803    718648.17   -19682.204    1411.3786   -21093.583 
    7900    226.17007    4.6342992     718162.5     -19763.6    1414.4087   -21178.008 
    8000    225.01642    22.756012    718431.54   -19738.637    1407.1941   -21145.831 
    8100    221.59177   -24.923929    718381.48    -19793.51    1385.7772   -21179.288 
    8200    221.20469   -39.168167    717031.38    -19802.23    1383.3565   -21185.586 
    8300    223.34138    17.446108    716810.63   -19794.441    1396.7188    -21191.16 
    8400    219.87983    8.4272928    718330.12   -19768.739    1375.0712    -21143.81 
    8500    222.51964    1.9469044    717331.73   -19689.786    1391.5799   -21081.366 
    8600    220.70419   -7.8625722    717459.25   -19693.052    1380.2265   -21073.279 
    8700    224.63443   -38.206241    717210.54   -19705.454    1404.8052   -21110.259 
    8800    222.40474    31.447657    716870.06   -19726.823    1390.8613   -21117.685 
    8900    217.76147    14.885072     717099.8   -19742.181    1361.8235   -21104.005 
    9000      218.556   -6.5533242    717017.85   -19730.551    1366.7923   -21097.343 
    9100    218.53078   -39.651074    717028.99   -19787.923    1366.6346   -21154.558 
    9200    225.58525   -37.083586    716780.86   -19694.483    1410.7514   -21105.234 
    9300    222.79633    27.404524    716721.45   -19749.634    1393.3102   -21142.944 
    9400    228.39588    48.711944     717364.8   -19702.114    1428.3283   -21130.443 
    9500    227.22032    29.888421    717774.75   -19727.668    1420.9767   -21148.644 
    9600    227.71057    17.304681    717291.33   -19676.028    1424.0426   -21100.071 
    9700    230.49037   -16.667049    716926.26   -19655.233    1441.4267    -21096.66 
    9800    229.83646   -7.8472725    716007.71   -19730.551    1437.3374   -21167.888 
    9900     224.6937   -17.957745    716376.43   -19791.061    1405.1759   -21196.237 
   10000    220.33861    12.826084    716107.04   -19785.444    1377.9403   -21163.385 
   10100    222.69775   -30.674569    715006.51   -19748.141    1392.6937   -21140.835 
   10200    222.10786    23.923922    714948.51   -19794.824    1389.0047   -21183.829 
   10300     220.5897    20.564109    715115.12   -19768.197    1379.5105   -21147.707 
   10400    229.27073   -5.8802181    715087.64   -19746.832    1433.7994   -21180.632 
   10500     227.5044   -42.985227     714236.6   -19766.436    1422.7532   -21189.189 
   10600    232.29557    7.7319756    713438.29   -19693.402     1452.716   -21146.117 
   10700     229.0366     17.09795    713210.06   -19703.809    1432.3352   -21136.144 
   10800    223.94008   -44.183007    713221.31   -19701.384    1400.4629   -21101.847 
   10900    224.64189   -62.545758    712534.69   -19705.179    1404.8518   -21110.031 
   11000    231.11338    16.022717    712348.02   -19703.411    1445.3229   -21148.734 
   11100    219.13032   -20.128858    712643.57   -19775.677     1370.384   -21146.061 
   11200    229.46117    2.6381707    712070.81   -19728.648    1434.9904   -21163.639 
   11300    225.33599    8.9401166    711388.67   -19768.326    1409.1926   -21177.518 
   11400    220.58541    20.463451    711678.08   -19742.174    1379.4837   -21121.658 
   11500    225.65693    2.4990481    711518.68   -19801.215    1411.1997   -21212.414 
   11600    222.87622   -13.639672    711210.96   -19777.843    1393.8098   -21171.653 
   11700     227.1434    28.413027    710853.71    -19671.48    1420.4956   -21091.976 
   11800    227.17297   -52.237373    710945.21   -19734.905    1420.6805   -21155.586 
   11900     223.9334   -64.650486     710633.7   -19765.927    1400.4212   -21166.348 
   12000    218.26925    15.725351    710648.51    -19717.14     1364.999   -21082.139 
   12100    229.43699    32.188384     711005.3   -19645.166    1434.8392   -21080.006 
   12200    222.10338   -10.035385     710512.7   -19650.214    1388.9766    -21039.19 
   12300    230.68576   -60.367261    709647.77   -19659.842    1442.6486   -21102.491 
   12400    225.53319  -0.37260666    709629.09   -19645.349    1410.4258   -21055.774 
   12500    225.97948   -7.8546433     709740.5   -19708.414    1413.2168   -21121.631 
   12600    227.68055   -17.227396     710062.6   -19640.864    1423.8549   -21064.719 
   12700    228.90827     49.23256    710307.28   -19627.911    1431.5327   -21059.444 
   12800    226.80264   -25.990318    710255.76   -19685.928    1418.3647   -21104.292 
   12900    224.06288     25.60606     709724.5   -19728.904    1401.2309   -21130.135 
   13000     228.4736    18.411382    710039.37   -19641.579    1428.8144   -21070.393 
   13100    222.89737     5.910431    709935.51   -19669.902    1393.9421   -21063.844 
   13200    233.34493    12.010508    710110.63    -19623.03    1459.2784   -21082.309 
   13300    230.77212   -25.305694    710369.77   -19673.994    1443.1887   -21117.183 
   13400    225.34163    18.734698    709827.21    -19770.58    1409.2279   -21179.808 
   13500    219.46376     -11.9825    709786.99   -19812.718    1372.4692   -21185.187 
   13600    220.46611   -4.2994998    709604.09   -19808.443    1378.7376    -21187.18 
   13700    224.72231   -46.272383    709987.18   -19785.851    1405.3548   -21191.205 
   13800    229.67344   -4.8503726    709511.11   -19740.909    1436.3178   -21177.227 
   13900    222.87468    25.083584    709460.46    -19761.98    1393.8002    -21155.78 
   14000    221.45793     5.810787     709855.3    -19731.88    1384.9402    -21116.82 
   14100    227.08291    30.373646    709271.67   -19726.465    1420.1174   -21146.582 
   14200    219.46297      6.57889    709839.14   -19747.927    1372.4642   -21120.391 
   14300     221.4973   -17.163589    709336.75   -19853.775    1385.1864   -21238.962 
   14400    223.89762   -18.286261    708919.65   -19831.262    1400.1974    -21231.46 
   14500    225.31058     23.95181    708889.56   -19760.669    1409.0337   -21169.703 
   14600    226.93737   -6.2701032    709221.38   -19781.559    1419.2072   -21200.766 
   14700    223.40574   -11.298075    709705.44   -19774.625    1397.1213   -21171.746 
   14800     223.2537   -20.383748    709472.08   -19861.984    1396.1705   -21258.154 
   14900    222.41011    29.503322    708842.21   -19839.105    1390.8949       -21230 
   15000    221.36346    26.178056    709487.94   -19861.309    1384.3494   -21245.659 
   15100    228.12837   -3.1595347    709439.33   -19838.573    1426.6554   -21265.228 
   15200    220.63927   -5.4656577    709309.77     -19843.1    1379.8205   -21222.921 
   15300    221.33102   -3.3723799    708953.85   -19784.785    1384.1465   -21168.932 
   15400     220.1514   -21.026191    709399.15   -19772.683    1376.7695   -21149.452 
   15500     225.8712    49.218939     709076.7   -19817.961    1412.5396   -21230.501 
   15600    225.59063    -51.34025    708798.91   -19760.459     1410.785   -21171.244 
   15700    221.40699 -0.074992412    709275.61   -19805.135    1384.6216   -21189.757 
   15800    225.17491    -53.63576    709144.54   -19843.743    1408.1852   -21251.928 
   15900    220.52557    7.1350078    708380.11   -19848.145    1379.1094   -21227.255 
   16000    228.02838    29.908197     709292.6   -19786.853    1426.0301   -21212.883 
   16100    225.32931     2.254298    709428.85   -19811.994    1409.1508   -21221.145 
   16200    223.28935    0.8307721    709582.96   -19835.134    1396.3934   -21231.528 
   16300    221.57258   0.99962414    709010.09    -19839.61    1385.6572   -21225.268 
   16400    224.03168   -5.6386288    708940.47    -19767.41    1401.0358   -21168.446 
   16500    222.74438    23.012728    709565.33   -19783.929    1392.9853   -21176.914 
   16600    227.07535   -18.889779    709016.93   -19789.566    1420.0701   -21209.636 
   16700    224.64695    21.165169    708100.75   -19803.261    1404.8835   -21208.144 
   16800    233.01339    22.192496    708250.07   -19762.067     1457.205   -21219.272 
   16900    226.76986   -28.179049    708697.49   -19783.171    1418.1596    -21201.33 
   17000    222.61428   -15.516497    707825.96   -19744.213    1392.1717   -21136.385 
   17100    231.44254    10.991817    708178.73   -19651.144    1447.3814   -21098.526 
   17200    231.73327   -9.3920937    708217.85   -19718.278    1449.1995   -21167.478 
   17300    227.14621    16.687316     707772.5   -19758.704    1420.5132   -21179.217 
   17400    228.84709   -1.6237399    707951.41   -19746.364    1431.1501   -21177.514 
   17500    222.21296   -11.191837    707723.87   -19806.186     1389.662   -21195.848 
   17600    225.66431    17.970635    707507.21   -19751.396    1411.2458   -21162.642 
   17700    223.67321     16.78487    707970.37   -19790.235     1398.794   -21189.029 
   17800    225.19599   -9.8155088    707671.15   -19767.837    1408.3171   -21176.154 
   17900    224.13442   -36.534577    707485.68   -19772.264    1401.6783   -21173.943 
   18000    230.11193   -16.411347    707143.75   -19721.851    1439.0601   -21160.911 
   18100    226.25957   -14.177492    706759.91    -19820.49    1414.9684   -21235.458 
   18200    223.46408   -23.337471    706657.35   -19752.739    1397.4861   -21150.225 
   18300    230.25718    1.6854152    706130.24   -19715.303    1439.9684   -21155.271 
   18400    227.12402    5.4784618    706306.31   -19719.198    1420.3745   -21139.572 
   18500      227.931   -31.146959    706470.04   -19751.454    1425.4211   -21176.875 
   18600    222.44233    -55.44991    706154.95    -19756.39    1391.0964   -21147.487 
   18700    223.17297   -1.0587443    705807.48   -19748.775    1395.6656    -21144.44 
   18800    223.40942    11.379516    706469.92   -19742.555    1397.1443   -21139.699 
   18900    221.86887    1.6694314    706413.55    -19781.27    1387.5101    -21168.78 
   19000    224.76266   -22.468645    705795.42    -19743.83    1405.6071   -21149.437 
   19100    224.63164    50.093954    706114.25   -19752.845    1404.7878   -21157.633 
   19200     223.3973   -18.217757    706750.59   -19690.351    1397.0685   -21087.419 
   19300    228.59298   -11.965013    706026.05   -19661.412     1429.561   -21090.973 
   19400     231.2493   -13.881509    706141.56   -19669.632    1446.1729   -21115.805 
   19500    227.92122   -29.352484    706441.89   -19699.518    1425.3599   -21124.878 
   19600    223.59185   -27.021145    706301.15   -19701.181    1398.2852   -21099.466 
   19700    226.46164   -11.110036    705412.17   -19674.006    1416.2321   -21090.238 
   19800    229.47799   -8.0428357    705493.96   -19678.771    1435.0956   -21113.866 
   19900    217.70629   -5.1141744    705938.81   -19698.319    1361.4784   -21059.798 
   20000    222.90031   -13.943784    705192.98   -19684.409    1393.9604    -21078.37 
   20100    224.67057    22.470353    705994.81    -19700.93    1405.0312   -21105.961 
   20200    220.47809   -17.601126     705658.4   -19688.121    1378.8126   -21066.933 
   20300    224.90641   -16.949853     705448.9   -19683.909    1406.5061   -21090.415 
   20400    227.35238    15.109331    705131.81   -19690.087    1421.8026   -21111.889 
   20500    225.45082   -37.558611    705004.36   -19706.248    1409.9107   -21116.159 
   20600    225.03321   -9.4097132    704425.68    -19710.41    1407.2991   -21117.709 
   20700    230.47034   -24.824339    704586.18   -19647.667    1441.3015   -21088.968 
   20800    229.61709   -9.6593577    704261.07   -19676.542    1435.9655   -21112.508 
   20900    224.50567   -29.557512    703938.84   -19741.782         1404   -21145.782 
   21000    217.89193   -18.776968     703588.7   -19827.953    1362.6393   -21190.593 
   21100    217.91624    41.469692    704025.12   -19799.363    1362.7914   -21162.154 
   21200    223.89813   -9.4327984    703392.52   -19717.937    1400.2006   -21118.137 
   21300     220.6321   -21.542229    703118.95   -19712.268    1379.7757   -21092.044 
   21400    228.13184    15.576014    702784.63    -19675.19    1426.6771   -21101.867 
   21500    224.24489    8.1540966    703787.51   -19703.394    1402.3691   -21105.763 
   21600    223.83881   -25.422694    703106.53   -19674.067    1399.8296   -21073.897 
   21700    224.93924    17.646164    702689.84   -19670.968    1406.7114   -21077.679 
   21800    225.70701    25.412799    702090.77    -19660.08    1411.5129   -21071.593 
   21900    235.06015 -0.099784944    702111.34   -19674.376    1470.0049   -21144.381 
   22000    220.00767   -18.519148    701771.93   -19743.407    1375.8707   -21119.278 
   22100    225.98995   -18.723821    701583.17   -19714.595    1413.2823   -21127.877 
   22200    228.52923   -28.164481    701653.47    -19670.29    1429.1623   -21099.453 
   22300    225.75259     11.69744    701299.21   -19670.528    1411.7979   -21082.326 
   22400    225.20959    5.3857362    700759.38   -19672.337    1408.4021   -21080.739 
   22500    229.60978    7.4065863    699847.19   -19644.027    1435.9198   -21079.947 
   22600    224.47477   -1.6675484    699862.15   -19710.758    1403.8068   -21114.565 
   22700    227.29874   -5.3679162    699853.36   -19691.808    1421.4671   -21113.275 
   22800    225.21727   -43.854317    699514.13   -19710.192    1408.4502   -21118.642 
   22900    225.11307   -34.865018     699025.4   -19694.504    1407.7985   -21102.303 
   23000    228.13813    20.084756    698999.87   -19728.288    1426.7164   -21155.004 
   23100    228.31234    -3.663078    698608.93   -19740.494    1427.8059     -21168.3 
   23200    221.34119   -7.3871707    698448.42   -19778.648    1384.2102   -21162.858 
   23300    221.32253   -11.617314    698369.61   -19719.102    1384.0934   -21103.196 
   23400    225.86735   -1.3395547     698278.5     -19694.3    1412.5155   -21106.816 
   23500     222.2258   -19.224744    697980.83   -19750.506    1389.7423   -21140.248 
   23600     221.7551    7.5507336    697766.92    -19749.21    1386.7986   -21136.009 
   23700    221.94543    16.642934     697285.5   -19759.997    1387.9889   -21147.986 
   23800    226.07498   -42.191905    697311.33   -19725.151     1413.814   -21138.965 
   23900    220.43029   -6.0115069    696834.23   -19746.879    1378.5136   -21125.392 
   24000    225.16974    49.686623    696608.57   -19719.617    1408.1529    -21127.77 
   24100    224.11181    17.067098    697023.53   -19751.652    1401.5369   -21153.189 
   24200    218.03856   -21.043181    696933.43   -19809.991    1363.5563   -21173.548 
   24300    223.18788   -21.997562    697224.28   -19767.854    1395.7588   -21163.613 
   24400     217.5294   -16.720332     697089.4   -19830.715    1360.3722   -21191.088 
   24500    218.91719    -24.36216     697219.6   -19811.342    1369.0511   -21180.393 
   24600    224.71237    16.585319    697736.99   -19778.934    1405.2926   -21184.227 
   24700    225.65933   -34.551743    697361.59   -19776.361    1411.2147   -21187.576 
   24800    222.43859    53.650386    696973.41    -19764.78     1391.073   -21155.853 
   24900    227.98261   -2.7279664     697470.7   -19684.185    1425.7438   -21109.929 
   25000    226.04849    14.460441    697643.35   -19662.891    1413.6484   -21076.539 
   25100    223.43731   -43.045676     697178.1   -19669.091    1397.3187    -21066.41 
   25200    224.23184    10.727185    697066.46   -19694.702    1402.2875   -21096.989 
   25300     222.6742   -30.342256     696855.5   -19708.599    1392.5464   -21101.146 
   25400    227.63014    24.988702    696960.72   -19690.991    1423.5396    -21114.53 
   25500    226.31926     36.90167    697432.15   -19669.067    1415.3417   -21084.408 
   25600    227.89984   -75.280049    697313.31    -19656.44    1425.2262   -21081.666 
   25700    221.88472     22.23346     696753.9   -19730.358    1387.6092   -21117.967 
   25800    227.54979    9.7373486    696927.03   -19677.939    1423.0371   -21100.976 
   25900    222.39932    15.093713    697625.27   -19666.647    1390.8274   -21057.475 
   26000    222.29639   -23.995292    697206.34   -19707.474    1390.1837   -21097.657 
   26100    221.37203    -5.782198    696433.68   -19702.833     1384.403   -21087.236 
   26200    226.33861     -19.3325    696550.23   -19716.136    1415.4627   -21131.598 
   26300     223.9743   -10.909287    696553.62   -19705.664    1400.6769   -21106.341 
   26400    224.30058   -41.471478    696872.18   -19683.292    1402.7174    -21086.01 
   26500    226.18593    7.2090044    696444.93   -19708.246    1414.5079   -21122.754 
   26600    216.62093    32.987424    696158.77    -19727.99    1354.6909   -21082.681 
   26700    223.86923    4.9253213    696312.21   -19681.363    1400.0198   -21081.382 
   26800    227.97724    10.800622    696176.55   -19656.814    1425.7102   -21082.524 
   26900    220.46319    16.422577    695765.56   -19767.754    1378.7193   -21146.473 
   27000    221.80089   -6.5134926    696391.23   -19770.754     1387.085   -21157.839 
   27100    219.07993   -27.950323    695590.63   -19787.995    1370.0688   -21158.064 
   27200    225.37197    54.181171    695743.09   -19750.338    1409.4176   -21159.755 
   27300    224.80089   -11.387346    696023.11   -19766.809    1405.8462   -21172.655 
   27400    224.49544   -13.196367    696144.39    -19719.33     1403.936   -21123.266 
   27500    225.68168   -12.633629    696215.53   -19715.242    1411.3544   -21126.596 
   27600    222.38243   -3.3534564    695586.07   -19725.888    1390.7218    -21116.61 
   27700    229.43487   -5.3858969    696041.95   -19672.493    1434.8259   -21107.319 
   27800    230.35014    52.880473     696955.7   -19622.127    1440.5498   -21062.677 
   27900    225.60587   -24.257472    697105.82   -19746.288    1410.8804   -21157.168 
   28000    223.77278    10.913019    696678.04   -19736.136    1399.4167   -21135.552 
   28100    228.44403   -20.069263    696075.76   -19707.575    1428.6294   -21136.205 
   28200    226.19537   -20.544665     696068.7   -19791.374    1414.5669   -21205.941 
   28300    226.06665    11.670312    696093.93   -19774.607    1413.7619   -21188.369 
   28400    220.92124   -37.702085    696435.34   -19863.858    1381.5839   -21245.441 
   28500    221.15589   -10.680617    695713.69   -19830.944    1383.0513   -21213.995 
   28600    226.30863    10.611299    695048.15   -19783.011    1415.2752   -21198.286 
   28700    229.55877    9.9535339    695441.23   -19771.195    1435.6008   -21206.796 
   28800    222.45857    3.5807119    696013.42   -19769.423    1391.1979   -21160.621 
   28900    227.70016    10.396412    695660.32   -19753.408    1423.9775   -21177.386 
   29000    230.77835   -29.649995    695702.47   -19737.778    1443.2277   -21181.006 
   29100      223.552    28.076165    695759.78   -19705.981     1398.036   -21104.017 
   29200    220.72443    19.070717    696250.69   -19737.338    1380.3531   -21117.691 
   29300    222.96032   -1.5418737    696244.99   -19775.562    1394.3357   -21169.897 
   29400    223.24968   -26.406801    695076.68   -19768.344    1396.1454   -21164.489 
   29500    223.90574    21.300711    694869.69   -19745.335    1400.2482   -21145.583 
   29600    229.66847    4.7167987    695318.68   -19719.903    1436.2868    -21156.19 
   29700    226.57083   -47.381358    694460.72   -19766.753    1416.9149   -21183.668 
   29800    224.73476   -12.423762    694473.89   -19758.118    1405.4326   -21163.551 
   29900    229.22989   -6.4340949    693965.96   -19728.946     1433.544    -21162.49 
   30000     221.3866    27.069817     693137.6   -19786.242    1384.4941   -21170.736 
   30100    228.99283    42.121596    692998.18   -19756.487    1432.0615   -21188.549 
   30200    217.74649   -21.576235    693194.41   -19780.563    1361.7298   -21142.293 
   30300    227.33226    15.061207    693361.93   -19707.452    1421.6767   -21129.129 
   30400    223.28675    36.266331    693324.77   -19740.641    1396.3772   -21137.018 
   30500    220.71146   -50.365127    693008.62   -19759.449     1380.272   -21139.721 
   30600    223.79877   -13.982906    693089.18   -19779.862    1399.5792   -21179.441 
   30700    221.70343    -61.47095    692391.91   -19765.644    1386.4755    -21152.12 
   30800    225.27699    25.970584    692065.31    -19708.74    1408.8236   -21117.564 
   30900    221.70371    25.899315    692577.12   -19778.301    1386.4772   -21164.779 
   31000    223.46914   -4.8477429    692609.26   -19803.066    1397.5178   -21200.584 
   31100    228.23582   -4.3907722    692644.81   -19823.315    1427.3274   -21250.643 
   31200    218.36148     16.82084    692041.24   -19822.754    1365.5758    -21188.33 
   31300     235.2961    13.001032    691934.34   -19730.249    1471.4805    -21201.73 
   31400     226.4404      52.2205    692293.59   -19789.983    1416.0993   -21206.082 
   31500      228.226   -27.236041    691571.33   -19702.458     1427.266   -21129.724 
   31600    220.99719    36.341989    691029.63   -19740.036    1382.0589   -21122.095 
   31700    225.34887    1.8579913    691211.67   -19768.659    1409.2731   -21177.932 
   31800    225.21534   -27.792457    691339.88   -19718.103     1408.438   -21126.541 
   31900     222.8151   -33.511686    690776.97   -19721.438    1393.4276   -21114.866 
   32000    226.17375   -6.5792752    690465.42   -19687.704    1414.4317   -21102.135 
   32100    225.36327    30.411782    690282.31   -19713.629    1409.3631   -21122.992 
   32200    226.50075    19.330603    690544.19   -19706.927    1416.4767   -21123.403 
   32300    227.83056   -17.738565    690558.88   -19731.168     1424.793   -21155.961 
   32400    225.60892    34.146517    689716.34    -19768.75    1410.8994    -21179.65 
   32500    224.71807   -35.583072    689991.39   -19771.851    1405.3283   -21177.179 
   32600    229.88027   -16.072142    689587.26   -19772.086    1437.6113   -21209.697 
   32700    231.49903    19.031973    689659.25   -19832.905    1447.7346    -21280.64 
   32800    224.66749   -64.547155    689666.24    -19865.91    1405.0119   -21270.922 
   32900    223.00907   -4.3865787     689102.2    -19868.35    1394.6406    -21262.99 
   33000    221.48945    24.730197    688611.05   -19870.365    1385.1373   -21255.502 
   33100    225.99164   -32.383147     688197.1   -19799.204    1413.2928   -21212.497 
   33200    230.93288    13.505597    687876.12   -19824.033    1444.1941   -21268.227 
   33300     222.0654   -12.028348     687965.8   -19835.234    1388.7392   -21223.973 
   33400    220.34447    15.038485    687649.07   -19826.337    1377.9769   -21204.314 
   33500    227.16739    11.266341    687521.07   -19821.218    1420.6457   -21241.863 
   33600    227.85069   -9.1624506    688252.96   -19825.693    1424.9189   -21250.612 
   33700    218.29065   -21.294728     687804.1   -19867.621    1365.1329   -21232.754 
   33800    226.14424   -37.197014    687878.69   -19803.723    1414.2472    -21217.97 
   33900    221.08302    16.086677    688371.94    -19808.14    1382.5956   -21190.736 
   34000    224.17783    6.6848004    688283.31   -19802.801    1401.9497    -21204.75 
   34100    221.81923   -9.6479167    687319.24    -19811.72    1387.1997   -21198.919 
   34200    222.62788   -3.3275306    687464.09    -19840.72    1392.2568   -21232.976 
   34300    231.87548   -19.206598    688114.37   -19794.518    1450.0889   -21244.607 
   34400    223.26747    4.3044223    687645.67   -19768.716    1396.2566   -21164.973 
   34500     229.7278   -21.092789    687539.53   -19760.034    1436.6578   -21196.692 
   34600    221.51597    5.1114983    687806.98   -19804.449    1385.3032   -21189.752 
   34700    221.56623   -16.779587    688196.47   -19800.174    1385.6175   -21185.791 
   34800    218.94889   -9.0696369    688035.65   -19816.062    1369.2493   -21185.311 
   34900    222.58792    -7.162689    688268.87    -19790.41    1392.0069   -21182.416 
   35000    220.08079    38.237517    687910.84   -19841.298    1376.3279   -21217.626 
   35100    225.80428    10.927212    688448.25   -19759.997    1412.1211   -21172.118 
   35200    223.91598   -13.211477    687924.94   -19803.717    1400.3122   -21204.029 
   35300    222.54269   -9.4074822    687176.99   -19804.063     1391.724   -21195.787 
   35400    222.17636    46.424462    687780.96   -19754.657     1389.433    -21144.09 
   35500    225.35015    -1.321017     687910.7   -19720.117    1409.2812   -21129.398 
   35600    225.83296    7.4218578    688238.09   -19724.177    1412.3005   -21136.477 
   35700    223.32467  -0.82870575    687835.52   -19762.865    1396.6143   -21159.479 
   35800    225.40974   -1.9446468    686992.92   -19747.469    1409.6538   -21157.123 
   35900     226.5539    2.6785886    687446.07   -19698.835    1416.8091   -21115.644 
   36000    228.23008   -24.892057    687053.62   -19676.911    1427.2915   -21104.202 
   36100    227.04454   -17.143793    686236.35   -19722.502    1419.8774    -21142.38 
   36200    220.18133    6.1118109    686463.37   -19739.715    1376.9567   -21116.672 
   36300    223.57532    30.684249    686234.72   -19783.351    1398.1818   -21181.533 
   36400    231.63862   -56.857626    685722.97   -19701.011    1448.6076   -21149.618 
   36500    224.99346   -33.861096    685547.73   -19767.432    1407.0505   -21174.483 
   36600    214.44756     40.23848    685651.81   -19852.071    1341.0992    -21193.17 
   36700    218.46437    -57.29581    685123.03   -19757.892    1366.2193   -21124.111 
   36800    225.17626    51.261276    684362.18   -19752.228    1408.1937   -21160.422 
   36900    229.63795    5.1058747    684623.68   -19738.763    1436.0959   -21174.859 
   37000    228.15514   -30.191535    684917.32   -19766.009    1426.8228   -21192.831 
   37100    228.96466    -56.63771    683856.64   -19709.061    1431.8853   -21140.946 
   37200    218.53492    17.564533    683065.74   -19790.156    1366.6605   -21156.816 
   37300    217.23448   -33.761142    683090.52   -19813.858    1358.5279   -21172.386 
   37400    222.38691   -50.328068    682818.14   -19751.611    1390.7498   -21142.361 
   37500    221.05998    -17.06963    681090.47   -19790.332    1382.4515   -21172.784 
   37600    235.15342    39.675582     681271.2   -19776.341    1470.5883    -21246.93 
   37700    223.21785    3.7022604    681071.61   -19903.591    1395.9463   -21299.537 
   37800    221.80867    9.3365003    681011.74   -19915.232    1387.1337   -21302.366 
   37900    223.62429    38.904347    680826.68    -19850.11     1398.488   -21248.598 
   38000    226.03951    39.958957       681072   -19855.589    1413.5922   -21269.181 
   38100    227.25537   -25.544329     680930.1   -19862.496    1421.1959   -21283.692 
   38200    225.35756    17.947617    680163.55   -19837.468    1409.3275   -21246.796 
   38300    223.27289   -22.592902    680362.13   -19816.581    1396.2905   -21212.871 
   38400    224.49306     2.395023    679720.51     -19873.7    1403.9211   -21277.621 
   38500    221.60853    -3.153408    679638.01   -19865.082     1385.882   -21250.964 
   38600    231.90645   -23.358251       679089   -19807.681    1450.2825   -21257.963 
   38700    225.27147     2.967328    679800.53   -19852.862    1408.7891   -21261.652 
   38800    225.90848   -28.631848    679480.29   -19838.318    1412.7728   -21251.091 
   38900    228.82332    37.717962    678740.69   -19809.794    1431.0014   -21240.795 
   39000    226.70176    10.735731    678987.08   -19839.204    1417.7338   -21256.938 
   39100    223.83837   -4.9350727    678885.05   -19867.259    1399.8269   -21267.086 
   39200    226.07778    6.6196039    678621.68   -19869.425    1413.8316   -21283.257 
   39300    226.20849   -26.968814    678933.76   -19858.579     1414.649   -21273.228 
   39400     230.0613   -2.1824137    678582.31   -19861.015    1438.7434   -21299.759 
   39500    226.22307    18.615182     678690.4   -19837.007    1414.7402   -21251.747 
   39600    226.81147    31.635702    678794.74   -19882.129    1418.4198   -21300.549 
   39700    218.69092   -43.994075     678355.1   -19882.573     1367.636   -21250.209 
   39800    222.18601    30.162726     677527.1   -19926.174    1389.4934   -21315.668 
   39900    223.15993   -14.402376    677972.93   -19897.122    1395.5841   -21292.706 
   40000    219.36027    -28.22344    678198.63   -19882.062     1371.822   -21253.884 
   40100     228.1383   -18.762493       677700   -19855.792    1426.7175    -21282.51 
   40200    220.32521    24.053128    676849.75   -19888.575    1377.8565   -21266.431 
   40300    228.13403   -16.922986    677394.66   -19806.564    1426.6908   -21233.255 
   40400    234.54544   -12.322626    677113.34   -19755.406    1466.7861   -21222.192 
   40500    229.10936    7.1352671    676945.02   -19832.852    1432.7903   -21265.642 
   40600    226.85667   -19.947323    676936.03   -19857.533    1418.7025   -21276.235 
   40700    224.83357   -7.1468688    676534.42   -19878.632    1406.0506   -21284.683 
   40800    222.26941   -39.957031     676062.9   -19943.703     1390.015   -21333.718 
   40900    230.27768    22.988783    676327.91   -19869.226    1440.0966   -21309.322 
   41000    226.17015    -49.61288    676548.56   -19865.635    1414.4092   -21280.044 
   41100    228.01496   -13.154345    676183.72   -19898.749    1425.9462   -21324.695 
   41200    224.24456   -47.198716    675904.58   -19946.063    1402.3671    -21348.43 
   41300    224.43807    19.942534    675430.74   -20013.367    1403.5772   -21416.945 
   41400    222.58111   -4.6367402     675558.1    -19943.89    1391.9643   -21335.855 
   41500    221.64673   -41.788917    675733.98   -19942.026    1386.1209   -21328.147 
   41600    223.10225    2.6927978    675192.54   -19931.854    1395.2234   -21327.078 
   41700    224.70777    1.7574277     675509.7   -19933.466    1405.2638    -21338.73 
   41800    227.71343   -13.554897    674811.76   -19925.433    1424.0604   -21349.494 
   41900    234.83118     1.759682    674204.33   -19887.852     1468.573   -21356.425 
   42000    224.27807    33.932316    674363.07   -19946.587    1402.5766   -21349.163 
   42100    219.82092   -24.610357    674043.78   -19893.622    1374.7028   -21268.325 
   42200    229.08095   -7.1571675     674299.3   -19811.812    1432.6126   -21244.424 
   42300    226.62386   -22.497852    673881.23   -19869.072    1417.2466   -21286.318 
   42400    228.77731    16.723104     673149.2   -19839.952    1430.7137   -21270.666 
   42500    232.50582    29.643488    673373.92   -19815.001    1454.0308   -21269.031 
   42600    224.32863  0.021336305    673670.93   -19891.614    1402.8928   -21294.507 
   42700    225.60973   -19.350971    673841.69   -19885.225    1410.9045   -21296.129 
   42800    228.11113    2.1321923    673267.86   -19880.294    1426.5476   -21306.841 
   42900    221.81939       36.981    673538.81   -19934.743    1387.2006   -21321.943 
   43000    217.17738    4.8879536    673777.53   -19915.231    1358.1708   -21273.402 
   43100    226.62779   -32.361135    673218.72   -19838.758    1417.2712   -21256.029 
   43200    221.32425    23.675736    672887.35   -19916.215    1384.1042    -21300.32 
   43300    227.45672    21.220992     672540.2    -19871.79    1422.4551   -21294.245 
   43400    225.88084    1.8673769    673374.68   -19857.352       1412.6   -21269.952 
   43500    226.79374    5.5769938    673638.77   -19831.894     1418.309   -21250.203 
   43600    233.00296   -8.8434164     672982.3   -19795.243    1457.1398   -21252.383 
   43700    228.93027    28.498519    673269.27   -19813.366    1431.6703   -21245.036 
   43800    227.03041   -27.175275    673772.91   -19878.455    1419.7891   -21298.244 
   43900    230.33364   -31.467953    673131.39   -19890.793    1440.4466   -21331.239 
   44000    223.74813   -10.155242    672568.31   -19905.702    1399.2625   -21304.965 
   44100     225.5246     24.42122    673064.55   -19922.925    1410.3721   -21333.297 
   44200    221.58435   -34.585923    673494.95    -19923.27    1385.7308   -21309.001 
   44300    221.02711   -13.081242    673414.42   -19943.726    1382.2459   -21325.972 
   44400    227.01788   -18.676805    673522.27   -19920.997    1419.7107   -21340.708 
   44500    224.68743      -2.8987    673219.11   -19917.109    1405.1367   -21322.245 
   44600    220.03354    60.748988    673489.96   -19955.293    1376.0324   -21331.326 
   44700    231.31406    43.987061     674063.3   -19914.214    1446.5779   -21360.792 
   44800    220.99899    34.156572    674026.52   -19923.921    1382.0701   -21305.991 
   44900    225.98212    61.642782    674750.03    -19902.99    1413.2333   -21316.224 
   45000    222.72503   -30.629166    674798.76   -19913.362    1392.8643   -21306.226 
   45100    220.70528   -5.9277387    674585.51   -19830.975    1380.2333   -21211.209 
   45200    229.05257   -16.715192    674430.58   -19853.879    1432.4351   -21286.314 
   45300    226.60677   -11.844748    674670.56   -19900.475    1417.1397   -21317.615 
   45400    226.94057   -2.1312485    674885.65   -19877.408    1419.2272   -21296.635 
   45500    224.71959    33.942643    675272.17   -19912.473    1405.3377   -21317.811 
   45600    227.10377    16.064323    675002.41   -19940.332    1420.2478    -21360.58 
   45700    222.76784   -37.571752    674629.51   -19898.685    1393.1321   -21291.817 
   45800    229.49157    53.639419    675002.85   -19838.314    1435.1805   -21273.495 
   45900    230.36574    8.2780282    675376.07   -19812.953    1440.6473     -21253.6 
   46000    229.65287    11.789095    674850.45   -19804.483    1436.1892   -21240.672 
   46100    234.96424    43.780243    674533.55   -19756.806    1469.4052   -21226.211 
   46200     231.2892  -0.71680926    674269.12   -19797.694    1446.4224   -21244.116 
   46300    216.43835   -7.8991069    674125.57   -19826.719     1353.549   -21180.268 
   46400    230.19757   -18.658572    673611.77   -19797.867    1439.5957   -21237.463 
   46500    225.77829   -37.439755    673420.64       -19817    1411.9586   -21228.959 
   46600    220.32216    37.937291    673674.31   -19807.519    1377.8374   -21185.357 
   46700     221.1586    9.2052651     674066.3   -19861.649    1383.0683   -21244.717 
   46800    225.26647    -10.00056    673899.36   -19840.145    1408.7578   -21248.903 
   46900    232.04093    4.6352819    673585.15   -19800.731    1451.1235   -21251.854 
   47000    228.70142    33.893733    673542.14   -19831.261    1430.2391     -21261.5 
   47100    220.58748   -4.9376677    673803.81   -19842.606    1379.4967   -21222.103 
   47200    225.17455 0.0042758693    673873.81   -19856.625     1408.183   -21264.808 
   47300    226.12543    6.3465953    674603.27   -19854.688    1414.1295   -21268.818 
   47400    225.38689    2.9978306    674332.13   -19853.413    1409.5109   -21262.924 
   47500    235.24641    20.589976    673967.43   -19807.871    1471.1698   -21279.041 
   47600    234.02171   -24.960412    673877.61   -19829.926    1463.5108   -21293.437 
   47700    228.29019   -28.853343    674159.13   -19889.235    1427.6674   -21316.903 
   47800    226.45397   -6.9332226    673764.85   -19890.237    1416.1841   -21306.421 
   47900    223.40851    -1.593162    673382.94   -19953.566    1397.1386   -21350.705 
   48000    222.73948    28.965328    673882.44   -19956.969    1392.9547   -21349.924 
   48100    221.52224   -82.809041    673967.76   -19934.127    1385.3424    -21319.47 
   48200    226.95802   -26.497999    673632.56   -19878.241    1419.3363   -21297.578 
   48300    229.56599    38.995992    674112.65   -19871.608    1435.6459   -21307.254 
   48400    228.46357   -37.110681    674060.96   -19914.163    1428.7517   -21342.914 
   48500    231.88839    8.3526546    673594.46   -19957.267    1450.1696   -21407.436 
   48600    226.69786    9.7536746    674220.15   -19937.335    1417.7094   -21355.044 
   48700    225.38427    28.884676       674444   -19965.564    1409.4945   -21375.059 
   48800    228.39638    7.4011706    674174.15   -19950.094    1428.3315   -21378.425 
   48900    225.17833    25.542685    674322.55   -19970.304    1408.2066    -21378.51 
   49000    223.46982    2.2592614    674866.88   -19990.128    1397.5221    -21387.65 
   49100    223.37078   -3.9824068    674586.15   -19979.041    1396.9027   -21375.944 
   49200    226.05361   -20.183035    673836.13   -19935.875    1413.6804   -21349.556 
   49300    230.01686    26.996443     674229.1    -19934.92    1438.4655   -21373.386 
   49400    227.16616    3.5464131     673961.8     -19921.5     1420.638   -21342.138 
   49500    224.93291    27.023149     673144.4   -19963.348    1406.6718    -21370.02 
   49600    225.09402    27.985117    673288.46   -19993.145    1407.6794   -21400.825 
   49700    228.84117   -28.169332    673108.95   -19952.074    1431.1131   -21383.187 
   49800    228.31979   -31.616758    672328.48   -19931.151    1427.8525   -21359.004 
   49900    224.95829     1.763473     672118.8   -19882.807    1406.8305   -21289.637 
   50000    225.55661   -22.381078    671717.35   -19938.081    1410.5723   -21348.653 
   50100    224.62077   -19.688616    671114.36   -19969.498    1404.7198   -21374.218 
   50200    222.27308    -27.19834    671173.22   -19947.852    1390.0379    -21337.89 
   50300    229.37146   -37.319998    670942.79   -19895.994    1434.4293   -21330.423 
   50400    224.16478   -10.116827    671039.59   -19959.977    1401.8681   -21361.845 
   50500    227.48674    37.891018    671433.53   -19967.607    1422.6428   -21390.249 
   50600    224.45326    14.989406    671021.32   -19960.659    1403.6722   -21364.331 
   50621    223.07815   -12.782692    671010.02   -19970.024    1395.0727   -21365.097 
Loop time of 70.0185 on 6 procs for 50000 steps with 2099 atoms

Performance: 616.980 ns/day, 0.039 hours/ns, 714.097 timesteps/s
99.8% CPU use with 6 MPI tasks x no OpenMP threads

MPI task timing breakdown:
Section |  min time  |  avg time  |  max time  |%varavg| %total
---------------------------------------------------------------
Pair    | 0.11247    | 19.455     | 59.465     | 618.1 | 27.79
Neigh   | 0.063996   | 2.4689     | 7.3173     | 215.5 |  3.53
Comm    | 1.7277     | 45.336     | 67.798     | 442.4 | 64.75
Output  | 0.097001   | 0.098867   | 0.10218    |   0.5 |  0.14
Modify  | 1.1451     | 2.1786     | 4.8951     |  88.3 |  3.11
Other   |            | 0.4806     |            |       |  0.69

Nlocal:        349.833 ave        1031 max           4 min
Histogram: 4 0 0 0 0 0 0 0 0 2
Nghost:        671.167 ave        1726 max         115 min
Histogram: 4 0 0 0 0 0 0 0 0 2
Neighs:        0.00000 ave           0 max           0 min
Histogram: 6 0 0 0 0 0 0 0 0 0
FullNghs:      9522.33 ave       28414 max          74 min
Histogram: 4 0 0 0 0 0 0 0 0 2

Total # of neighbors = 57134
Ave neighs/atom = 27.219628
Neighbor list builds = 5340
Dangerous builds = 0
write_data data.${NAME}
write_data data.5A_cylinder
System init for write_data ...

##### Turn of thermostat and barostat and run ######

unfix 3
unfix 4
undump 1

dump                2 all custom 1000 eq.${NAME}.dump id type x y z vx vy vz
dump                2 all custom 1000 eq.5A_cylinder.dump id type x y z vx vy vz

run                 100000
Per MPI rank memory allocation (min/avg/max) = 3.124 | 3.159 | 3.229 Mbytes
Step Temp Press Volume TotEng KinEng PotEng 
   50621    223.07815   -12.666154    671010.02   -19970.031    1395.0727   -21365.104 
   50700    221.70757    3.6001766    671010.02    -19969.47    1386.5014   -21355.972 
   50800    230.59398    22.757228    671010.02    -19969.97    1442.0747   -21412.045 
   50900     229.2456   -36.245672    671010.02   -19970.219    1433.6423   -21403.861 
   51000    221.49089   -13.733492    671010.02   -19969.609    1385.1463   -21354.756 
   51100    228.54364    25.954353    671010.02   -19969.819    1429.2524   -21399.071 
   51200    220.16148   -24.892172    671010.02   -19969.637    1376.8325   -21346.469 
   51300    220.94525   -37.013784    671010.02   -19969.424    1381.7341   -21351.158 
   51400     226.9035    27.319179    671010.02   -19970.038    1418.9954   -21389.033 
   51500    225.37986    4.5992656    671010.02   -19970.472    1409.4669   -21379.939 
   51600    219.08848    12.531988    671010.02   -19968.928    1370.1223    -21339.05 
   51700    227.25036    11.231076    671010.02    -19970.59    1421.1645   -21391.755 
   51800    224.24006   -31.991274    671010.02   -19970.551    1402.3389    -21372.89 
   51900    221.55307   -10.772963    671010.02   -19969.682    1385.5352   -21355.217 
   52000    224.60052   -15.277816    671010.02    -19969.93    1404.5931   -21374.523 
   52100    224.21216    39.095535    671010.02   -19969.437    1402.1645   -21371.602 
   52200    222.94634    4.5818332    671010.02   -19969.852    1394.2484   -21364.101 
   52300    216.74933   -59.862333    671010.02   -19968.935    1355.4939   -21324.429 
   52400    220.46442    17.998633    671010.02   -19969.787     1378.727   -21348.514 
   52500     217.7536   -7.9894041    671010.02   -19968.778    1361.7743   -21330.552 
   52600    224.42486    -51.73929    671010.02   -19970.387    1403.4946   -21373.882 
   52700    220.76284    9.3088262    671010.02   -19969.485    1380.5933   -21350.078 
   52800    222.61191    46.945374    671010.02   -19969.975    1392.1569   -21362.132 
   52900    221.43789    21.693235    671010.02   -19970.321    1384.8149   -21355.136 
   53000     224.3988    12.247349    671010.02   -19970.243    1403.3316   -21373.575 
   53100    223.14338   0.47881481    671010.02   -19970.295    1395.4806   -21365.776 
   53200    222.87476    3.8544364    671010.02   -19969.911    1393.8007   -21363.712 
   53300    225.82263    -17.60395    671010.02   -19970.137    1412.2359   -21382.373 
   53400    227.31874    39.465349    671010.02   -19970.195    1421.5921   -21391.787 
   53500    222.66888    4.9950693    671010.02    -19969.69    1392.5131   -21362.204 
   53600    219.85098   -15.151864    671010.02   -19969.235    1374.8907   -21344.126 
   53700    225.99358   -36.820474    671010.02   -19970.638     1413.305   -21383.943 
   53800    220.40769     12.38797    671010.02   -19968.397    1378.3723    -21346.77 
   53900    223.85868    4.5052984    671010.02   -19969.853    1399.9539   -21369.807 
   54000    221.50087     49.41222    671010.02   -19969.802    1385.2087   -21355.011 
   54100    222.38978    -13.44318    671010.02   -19970.205    1390.7677   -21360.972 
   54200    223.07914    35.241493    671010.02   -19969.323    1395.0788   -21364.402 
   54300     227.8576   -9.3236261    671010.02   -19970.957    1424.9621   -21395.919 
   54400    225.28324   -19.386169    671010.02   -19970.024    1408.8627   -21378.887 
   54500    223.24169    85.612894    671010.02   -19970.263    1396.0954   -21366.358 
   54600    225.74874    47.851902    671010.02    -19969.82    1411.7738   -21381.594 
   54700    224.34383   0.81155605    671010.02   -19969.631    1402.9879   -21372.619 
   54800    226.59738    -16.09607    671010.02   -19970.225     1417.081   -21387.306 
   54900    225.16833   -28.384423    671010.02   -19970.079    1408.1441   -21378.223 
   55000    221.36461    21.381044    671010.02   -19969.207    1384.3566   -21353.563 
   55100    227.82811   -15.026435    671010.02   -19970.435    1424.7776   -21395.212 
   55200     222.1013    5.0912642    671010.02   -19969.919    1388.9637   -21358.883 
   55300    223.62562   -42.842607    671010.02   -19969.319    1398.4963   -21367.816 
   55400    226.14727    23.189799    671010.02    -19970.22    1414.2661   -21384.486 
   55500    221.09704    10.413099    671010.02   -19969.293    1382.6833   -21351.976 
   55600    226.87969    29.354558    671010.02   -19969.889    1418.8465   -21388.736 
   55700    226.01452     81.22924    671010.02   -19970.252    1413.4359   -21383.688 
   55800    224.43881   -37.247161    671010.02   -19970.328    1403.5818    -21373.91 
   55900    220.39792   -18.429401    671010.02   -19969.501    1378.3112   -21347.812 
   56000    227.03465      -14.792    671010.02   -19970.327    1419.8156   -21390.142 
   56100    224.77264    18.073604    671010.02   -19970.365    1405.6695   -21376.034 
   56200    221.18667   -38.945965    671010.02   -19969.308    1383.2438   -21352.551 
   56300    225.66586    18.853897    671010.02   -19969.224    1411.2555    -21380.48 
   56400    224.20499    55.966201    671010.02   -19969.692    1402.1196   -21371.811 
   56500    224.38553   -23.730351    671010.02   -19970.881    1403.2487    -21374.13 
   56600    227.64793    16.635111    671010.02   -19969.994    1423.6508   -21393.645 
   56700    223.34247   -5.8918907    671010.02   -19969.904    1396.7256   -21366.629 
   56800    225.93527    1.9764801    671010.02   -19970.352    1412.9403   -21383.293 
   56900    226.66914    4.0575019    671010.02   -19970.154    1417.5297   -21387.683 
   57000    226.26967   0.39496909    671010.02     -19970.5    1415.0315   -21385.531 
   57100    224.90106    45.135136    671010.02   -19969.775    1406.4726   -21376.248 
   57200    231.34147    36.815287    671010.02    -19970.43    1446.7493   -21417.179 
   57300    228.34147   -30.123126    671010.02   -19970.549    1427.9881   -21398.538 
   57400    228.13178    11.308748    671010.02   -19969.334    1426.6767    -21396.01 
   57500    229.16656    31.489887    671010.02   -19969.987    1433.1479   -21403.135 
   57600    226.02941   -5.8088881    671010.02   -19969.987    1413.5291   -21383.516 
   57700    227.27051   -13.551462    671010.02   -19970.349    1421.2906    -21391.64 
   57800    227.15236    36.803848    671010.02   -19969.762    1420.5517   -21390.314 
   57900    228.60919    11.333031    671010.02   -19970.192    1429.6623   -21399.854 
   58000    229.72347   -19.471811    671010.02    -19970.31    1436.6307    -21406.94 
   58100    225.70941    54.019026    671010.02   -19969.422    1411.5279    -21380.95 
   58200    231.56783    13.405743    671010.02   -19970.684    1448.1649   -21418.849 
   58300    224.21545   -31.606516    671010.02   -19969.435     1402.185    -21371.62 
   58400    232.12807    46.733801    671010.02   -19971.232    1451.6685   -21422.901 
   58500    232.32105   -28.415333    671010.02   -19970.273    1452.8753   -21423.148 
   58600    227.28182    -28.98655    671010.02   -19970.206    1421.3613   -21391.567 
   58700    223.37955    17.512928    671010.02   -19970.141    1396.9575   -21367.098 
   58800    225.47754    21.867602    671010.02   -19969.731    1410.0778   -21379.809 
   58900    221.39192    2.1601034    671010.02   -19968.683    1384.5274    -21353.21 
   59000    225.95969    2.8366515    671010.02   -19969.607     1413.093     -21382.7 
   59100    231.85398   -34.677992    671010.02   -19971.772    1449.9544   -21421.727 
   59200    221.93341    35.418358    671010.02   -19970.314    1387.9137   -21358.227 
   59300    227.48976   -4.7619906    671010.02   -19970.232    1422.6617   -21392.894 
   59400    227.96467   0.56205788    671010.02   -19970.168    1425.6317     -21395.8 
   59500    229.66829    8.0464164    671010.02   -19970.469    1436.2856   -21406.755 
   59600    225.22842    17.666036    671010.02   -19969.945    1408.5199   -21378.465 
   59700    227.65663   -3.8039339    671010.02   -19970.673    1423.7053   -21394.378 
   59800    231.17636    31.707771    671010.02   -19970.716    1445.7167   -21416.432 
   59900    220.82216    4.8898384    671010.02   -19969.646    1380.9643   -21350.611 
   60000    227.70214    14.513786    671010.02    -19970.52    1423.9899    -21394.51 
   60100    225.24246   -12.702369    671010.02    -19969.85    1408.6077   -21378.457 
   60200    223.81316    22.390782    671010.02   -19969.598    1399.6692   -21369.267 
   60300    219.12609   -17.989502    671010.02   -19968.757    1370.3575   -21339.114 
   60400    224.23375   -31.536946    671010.02    -19969.82    1402.2994   -21372.119 
   60500    227.42581    16.194622    671010.02    -19970.02    1422.2618   -21392.282 
   60600    227.09181   -14.215037    671010.02   -19969.771     1420.173   -21389.945 
   60700    222.13023  -0.94787751    671010.02   -19969.739    1389.1446   -21358.884 
   60800    223.83677   -49.551915    671010.02   -19969.736    1399.8168   -21369.553 
   60900    223.42331     30.52712    671010.02   -19969.667    1397.2312   -21366.898 
   61000    222.07045   -32.816039    671010.02   -19969.425    1388.7708   -21358.196 
   61100    225.87439   -33.127084    671010.02   -19970.147    1412.5596   -21382.707 
   61200    224.33394   -26.418136    671010.02   -19970.314     1402.926    -21373.24 
   61300    225.69566    41.052182    671010.02   -19970.427    1411.4418   -21381.869 
   61400    226.12457   -1.7592934    671010.02   -19970.073    1414.1241   -21384.197 
   61500    224.09573   -17.586823    671010.02    -19969.94    1401.4363   -21371.377 
   61600    223.86993     12.44519    671010.02   -19969.947    1400.0242   -21369.971 
   61700    219.81082   -18.456018    671010.02   -19969.421    1374.6396    -21344.06 
   61800    228.08536   -2.3791894    671010.02   -19970.225    1426.3864   -21396.611 
   61900    223.43382  -0.22424468    671010.02   -19970.103    1397.2969     -21367.4 
   62000     223.8277    3.4120535    671010.02   -19969.439    1399.7601   -21369.199 
   62100    220.03216    15.415512    671010.02   -19969.628    1376.0238   -21345.652 
   62200    223.46634    12.767181    671010.02   -19970.151    1397.5003   -21367.651 
   62300     222.4071   -30.145669    671010.02   -19970.077    1390.8761   -21360.954 
   62400    217.98901   -10.348327    671010.02   -19968.938    1363.2465   -21332.184 
   62500     225.1116    30.180507    671010.02   -19970.749    1407.7893   -21378.538 
   62600    221.63615    24.426317    671010.02   -19969.402    1386.0547   -21355.457 
   62700    222.08002      -28.717    671010.02   -19969.977    1388.8306   -21358.807 
   62800    219.41853    71.957811    671010.02   -19968.681    1372.1863   -21340.867 
   62900    221.28249    -36.51509    671010.02   -19969.982    1383.8431   -21353.825 
   63000    221.95374    6.2578467    671010.02   -19969.537    1388.0409   -21357.577 
   63100    229.51155   -5.5860976    671010.02   -19970.539    1435.3054   -21405.844 
   63200    224.30231    4.6025247    671010.02   -19970.333    1402.7282   -21373.061 
   63300    231.11184    8.4992775    671010.02   -19970.445    1445.3133   -21415.758 
   63400    223.38827   -6.8116287    671010.02     -19970.5    1397.0121   -21367.512 
   63500    220.65352     6.270874    671010.02   -19969.647    1379.9096   -21349.557 
   63600    224.04006   -69.470602    671010.02   -19970.871    1401.0881   -21371.959 
   63700    229.47878    21.190227    671010.02   -19970.521    1435.1005   -21405.621 
   63800     221.2179    43.059464    671010.02   -19969.903    1383.4391   -21353.342 
   63900    231.44505    10.937088    671010.02   -19970.753     1447.397    -21418.15 
   64000     227.3493     -9.47245    671010.02    -19970.96    1421.7833   -21392.743 
   64100      233.267    25.551038    671010.02   -19971.282     1458.791   -21430.073 
   64200    228.68455   -46.017496    671010.02   -19970.371    1430.1336   -21400.505 
   64300    224.49987    26.121912    671010.02   -19969.481    1403.9637   -21373.445 
   64400    229.13533    -25.05134    671010.02   -19970.675    1432.9527   -21403.627 
   64500    231.88867    20.046524    671010.02   -19970.922    1450.1713   -21421.093 
   64600    228.13543    4.8059817    671010.02   -19969.932    1426.6995   -21396.631 
   64700    237.73792   -21.175225    671010.02   -19971.205     1486.751   -21457.956 
   64800    227.69281    15.447258    671010.02   -19969.578    1423.9315   -21393.509 
   64900    231.53307    24.031165    671010.02   -19969.972    1447.9475   -21417.919 
   65000    234.13581   -15.252391    671010.02   -19971.549    1464.2243   -21435.774 
   65100    228.97594   -19.264149    671010.02   -19970.789    1431.9559   -21402.745 
   65200     228.5253    15.118302    671010.02   -19969.421    1429.1377   -21398.559 
   65300    232.24925 -0.098435251    671010.02    -19970.94    1452.4263   -21423.366 
   65400     230.6119   -17.236401    671010.02   -19970.354    1442.1868   -21412.541 
   65500     227.9727    25.999014    671010.02    -19969.23    1425.6819   -21394.912 
   65600    227.94378    55.513029    671010.02   -19969.631     1425.501   -21395.132 
   65700    235.89358    20.399322    671010.02   -19971.251     1475.217   -21446.468 
   65800    233.23089    2.1182168    671010.02   -19970.452    1458.5652   -21429.017 
   65900    227.31093   -23.678402    671010.02    -19970.31    1421.5434   -21391.853 
   66000    231.72536   -20.884537    671010.02   -19971.359      1449.15   -21420.509 
   66100    221.87043    24.031731    671010.02   -19969.648    1387.5199   -21357.168 
   66200    219.44291   -22.483393    671010.02   -19968.766    1372.3388   -21341.105 
   66300    224.18708    17.680741    671010.02    -19969.87    1402.0076   -21371.878 
   66400    225.25529     71.26244    671010.02   -19970.354    1408.6879   -21379.042 
   66500    224.41734   -39.676637    671010.02   -19970.536    1403.4476   -21373.984 
   66600    225.43993   -4.6131747    671010.02   -19970.228    1409.8426   -21380.071 
   66700    227.82697   -3.0915925    671010.02   -19969.401    1424.7705   -21394.172 
   66800    222.65827   -29.316235    671010.02   -19969.994    1392.4468   -21362.441 
   66900     230.6179    36.437298    671010.02   -19970.513    1442.2242   -21412.738 
   67000    228.45644    12.813562    671010.02   -19970.447     1428.707   -21399.154 
   67100    231.16403    -15.75317    671010.02   -19970.922    1445.6396   -21416.562 
   67200    226.50078   -27.949306    671010.02    -19969.55    1416.4769   -21386.027 
   67300    230.35163    22.768078    671010.02   -19969.999    1440.5591   -21410.558 
   67400     227.1539    47.026206    671010.02    -19969.74    1420.5613   -21390.301 
   67500     226.4131   -11.606829    671010.02   -19969.626    1415.9285   -21385.554 
   67600     227.0733   -42.311218    671010.02   -19969.874    1420.0573   -21389.931 
   67700    228.76945    41.605666    671010.02     -19970.3    1430.6645   -21400.964 
   67800     228.2146    33.355971    671010.02   -19970.208    1427.1947   -21397.403 
   67900    229.88277   -16.746073    671010.02   -19970.514    1437.6269   -21408.141 
   68000    232.61085    18.476743    671010.02   -19970.248    1454.6877   -21424.936 
   68100    239.92057   -29.768318    671010.02   -19971.663    1500.4007   -21472.064 
   68200    231.81093    5.2706675    671010.02   -19971.178    1449.6852   -21420.863 
   68300     233.6501    45.374971    671010.02   -19970.801    1461.1869   -21431.987 
   68400    227.71061     12.73933    671010.02   -19970.238    1424.0428   -21394.281 
   68500     222.9268    7.9840353    671010.02     -19969.9    1394.1261   -21364.026 
   68600    229.20281    14.027137    671010.02   -19970.293    1433.3747   -21403.668 
   68700    228.12387   -14.647835    671010.02   -19969.919    1426.6273   -21396.546 
   68800     229.1312    48.775218    671010.02   -19969.355    1432.9268   -21402.282 
   68900    226.97468   -3.2895209    671010.02    -19970.24    1419.4405    -21389.68 
   69000    231.17516   -4.6828762    671010.02   -19971.021    1445.7092    -21416.73 
   69100    229.29851    5.8627556    671010.02    -19969.69    1433.9732   -21403.663 
   69200    230.60566   0.64089957    671010.02   -19970.691    1442.1477   -21412.838 
   69300    232.69448    30.229761    671010.02   -19971.234    1455.2107   -21426.444 
   69400    228.52165    -5.122713    671010.02   -19970.072    1429.1148   -21399.187 
   69500    235.90731    21.938941    671010.02   -19971.479    1475.3029   -21446.781 
   69600    230.51716    29.590935    671010.02   -19970.842    1441.5942   -21412.436 
   69700    232.14713    10.949347    671010.02    -19970.28    1451.7877   -21422.068 
   69800    226.94446    6.1750248    671010.02   -19970.445    1419.2515   -21389.696 
   69900    226.17774   -9.7752719    671010.02   -19969.755    1414.4566   -21384.212 
   70000    223.79313    19.509374    671010.02   -19970.608    1399.5439   -21370.152 
   70100     226.4737   -14.462894    671010.02   -19970.366    1416.3075   -21386.674 
   70200    232.08033    22.400414    671010.02   -19971.474    1451.3699   -21422.844 
   70300    227.71794    22.439226    671010.02   -19970.933    1424.0887   -21395.021 
   70400    226.00534    -1.285214    671010.02   -19970.277    1413.3785   -21383.655 
   70500    228.92507    9.8157271    671010.02   -19970.099    1431.6378   -21401.737 
   70600    226.45814    25.513603    671010.02   -19970.724    1416.2102   -21386.934 
   70700    229.94372    13.895864    671010.02   -19970.809    1438.0081   -21408.817 
   70800     228.3647   -36.394598    671010.02   -19970.455    1428.1333   -21398.588 
   70900    228.70194    4.9268065    671010.02   -19969.631    1430.2424   -21399.873 
   71000    226.52254    4.9431604    671010.02    -19969.66     1416.613   -21386.273 
   71100    226.26414    2.0846252    671010.02   -19970.497     1414.997   -21385.494 
   71200     229.0896    23.389141    671010.02   -19969.884    1432.6667   -21402.551 
   71300    225.21415   -34.539643    671010.02   -19969.864    1408.4306   -21378.295 
   71400    230.11492    37.217629    671010.02   -19970.655    1439.0788   -21409.733 
   71500    225.91322    62.566404    671010.02   -19969.414    1412.8024   -21382.217 
   71600    234.76035   -31.111188    671010.02   -19970.752    1468.1301   -21438.882 
   71700    232.19643    2.4120502    671010.02   -19970.849     1452.096   -21422.945 
   71800    231.83665   -3.7353053    671010.02   -19970.201     1449.846   -21420.047 
   71900    232.47008    16.207495    671010.02   -19970.283    1453.8073    -21424.09 
   72000    230.25204   -11.379573    671010.02   -19970.299    1439.9363   -21410.236 
   72100    228.31538    50.227745    671010.02   -19970.682    1427.8249   -21398.507 
   72200    227.98984     32.08852    671010.02   -19970.266     1425.789   -21396.055 
   72300    230.28528    6.4223247    671010.02   -19970.991    1440.1441   -21411.135 
   72400    228.82195    10.511934    671010.02    -19970.25    1430.9929   -21401.243 
   72500     229.6196     18.61284    671010.02   -19970.692    1435.9812   -21406.673 
   72600    225.64598   -28.138717    671010.02   -19970.101    1411.1312   -21381.232 
   72700    225.47118    38.284519    671010.02    -19969.51     1410.038   -21379.548 
   72800    225.54106    6.4421245    671010.02       -19970    1410.4751   -21380.475 
   72900    232.46811   -16.157362    671010.02   -19970.797     1453.795   -21424.592 
   73000    228.82316  0.097087842    671010.02   -19970.933    1431.0004   -21401.934 
   73100    224.77714    57.241991    671010.02   -19970.799    1405.6977   -21376.497 
   73200    228.37645    50.309398    671010.02   -19970.092    1428.2068   -21398.299 
   73300     224.2178     18.72652    671010.02   -19969.656    1402.1997   -21371.856 
   73400     231.8902    24.044995    671010.02    -19970.23    1450.1809   -21420.411 
   73500    233.29271   -37.170091    671010.02   -19971.136    1458.9518   -21430.088 
   73600    226.90012   -49.151252    671010.02   -19970.037    1418.9742   -21389.011 
   73700    230.56737    20.747992    671010.02   -19970.757    1441.9083   -21412.666 
   73800    226.20056    2.2937823    671010.02   -19969.615    1414.5994   -21384.215 
   73900    230.86372   -8.9167887    671010.02   -19970.619    1443.7616   -21414.381 
   74000    224.75593    14.812139    671010.02   -19969.136     1405.565   -21374.701 
   74100    226.70845    14.608723    671010.02   -19970.349    1417.7756   -21388.125 
   74200    230.70166   -11.810113    671010.02   -19971.074    1442.7481   -21413.822 
   74300    232.15681   -10.704124    671010.02   -19970.671    1451.8482   -21422.519 
   74400    233.22122   -11.842226    671010.02    -19970.81    1458.5047   -21429.315 
   74500    234.46348    22.162308    671010.02   -19971.022    1466.2735   -21437.295 
   74600    232.42164     -44.0809    671010.02   -19971.087    1453.5044   -21424.591 
   74700    243.50226    17.979919    671010.02   -19972.044    1522.7997   -21494.844 
   74800    229.63435    22.120101    671010.02   -19970.232    1436.0734   -21406.306 
   74900    225.28567   -48.173542    671010.02   -19969.743    1408.8779   -21378.621 
   75000    234.83817   -30.131534    671010.02   -19970.507    1468.6168   -21439.124 
   75100    232.40148    14.296642    671010.02   -19970.404    1453.3783   -21423.783 
   75200    234.48491    37.387498    671010.02   -19970.622    1466.4076    -21437.03 
   75300    231.60833    35.189388    671010.02   -19970.851    1448.4182   -21419.269 
   75400    234.34322    1.8463914    671010.02   -19971.009    1465.5215   -21436.531 
   75500    227.22786    28.477318    671010.02   -19970.403    1421.0238   -21391.427 
   75600    238.38065    39.384529    671010.02   -19971.723    1490.7705   -21462.493 
   75700    230.07102   -1.9666773    671010.02   -19971.387    1438.8042   -21410.191 
   75800     239.5809    11.145958    671010.02   -19972.207    1498.2766   -21470.484 
   75900    232.81423    12.167795    671010.02   -19970.081    1455.9595    -21426.04 
   76000    236.46186    27.230924    671010.02   -19970.469    1478.7709    -21449.24 
   76100    242.69355   -22.788386    671010.02   -19971.821    1517.7423   -21489.563 
   76200     226.8091   -22.848411    671010.02   -19969.005     1418.405    -21387.41 
   76300    234.56383    55.723995    671010.02   -19971.253    1466.9011   -21438.154 
   76400    231.77517    31.399617    671010.02   -19970.756    1449.4615   -21420.218 
   76500    232.43837    1.2278643    671010.02   -19970.587     1453.609   -21424.196 
   76600    238.60557    7.0251943    671010.02   -19971.107    1492.1771   -21463.284 
   76700    237.84873     -9.98314    671010.02   -19971.851     1487.444   -21459.295 
   76800    230.93482    34.986322    671010.02   -19969.951    1444.2062   -21414.157 
   76900    232.38029   -13.891758    671010.02   -19971.124    1453.2458    -21424.37 
   77000    230.51737   -21.415683    671010.02   -19969.751    1441.5956   -21411.347 
   77100    235.43238  -0.12941075    671010.02   -19970.506    1472.3328   -21442.838 
   77200    236.08534   -2.1367736    671010.02   -19972.085    1476.4162   -21448.501 
   77300    231.65312   -41.646631    671010.02    -19970.63    1448.6983   -21419.328 
   77400     226.0618    13.425247    671010.02   -19970.215    1413.7316   -21383.947 
   77500    229.84203   -25.895872    671010.02   -19970.206    1437.3722   -21407.578 
   77600    223.16003    25.232287    671010.02   -19969.769    1395.5847   -21365.354 
   77700    228.99244    19.527794    671010.02   -19970.658     1432.059   -21402.717 
   77800    228.34891   -50.644883    671010.02   -19970.239    1428.0346   -21398.273 
   77900    230.13518   -25.089505    671010.02   -19971.277    1439.2055   -21410.482 
   78000     228.9639    8.3040336    671010.02   -19969.686    1431.8806   -21401.567 
   78100    230.20196   -16.876531    671010.02   -19971.209    1439.6231   -21410.832 
   78200    231.09935    35.376649    671010.02   -19971.253    1445.2351   -21416.488 
   78300    225.16518    10.364699    671010.02   -19969.817    1408.1244   -21377.941 
   78400     228.8644   -25.522944    671010.02   -19970.659    1431.2583   -21401.918 
   78500     223.7864    29.764662    671010.02   -19969.376    1399.5019   -21368.878 
   78600     233.4156   -6.0364445    671010.02   -19970.863    1459.7204   -21430.583 
   78700    225.77619    49.036326    671010.02   -19969.511    1411.9455   -21381.456 
   78800     230.5258    11.042563    671010.02   -19969.984    1441.6483   -21411.632 
   78900    229.08999     36.45868    671010.02   -19970.548    1432.6691   -21403.217 
   79000    233.33325    23.801566    671010.02    -19971.11    1459.2054   -21430.315 
   79100    231.32675    44.549614    671010.02   -19970.863    1446.6572    -21417.52 
   79200     230.7109    10.501799    671010.02    -19970.11    1442.8059   -21412.915 
   79300    234.18285    23.417689    671010.02   -19970.945    1464.5185   -21435.464 
   79400    223.27394    13.065564    671010.02   -19969.484     1396.297   -21365.781 
   79500    232.46298    37.962617    671010.02   -19971.307    1453.7629    -21425.07 
   79600    232.45101     13.17234    671010.02   -19970.879    1453.6881   -21424.567 
   79700    229.31701   -28.988158    671010.02    -19970.05    1434.0889   -21404.138 
   79800    228.15643    1.1333547    671010.02   -19970.433    1426.8309   -21397.264 
   79900    228.86199    1.6820494    671010.02   -19969.413    1431.2432   -21400.656 
   80000    232.66017    33.165184    671010.02   -19970.256    1454.9961   -21425.252 
   80100    229.30557    26.675937    671010.02   -19969.971    1434.0173   -21403.988 
   80200    234.75735   -25.609821    671010.02   -19971.752    1468.1113   -21439.864 
   80300    231.08598    19.214498    671010.02    -19970.74    1445.1515   -21415.892 
   80400    230.95181    32.508819    671010.02   -19970.081    1444.3125   -21414.393 
   80500    233.02745     -39.7522    671010.02   -19971.246    1457.2929   -21428.539 
   80600     231.4997      28.4591    671010.02   -19970.419    1447.7388   -21418.158 
   80700    234.44084    45.901474    671010.02   -19971.094     1466.132   -21437.226 
   80800     232.5856   -56.721515    671010.02    -19971.41    1454.5297   -21425.939 
   80900    228.08377    17.333028    671010.02   -19970.669    1426.3765   -21397.045 
   81000    240.02251    14.560073    671010.02   -19972.585    1501.0383   -21473.623 
   81100     224.9236    17.565336    671010.02   -19970.501    1406.6136   -21377.115 
   81200    233.17224   -2.8209087    671010.02    -19970.08    1458.1985   -21428.278 
   81300     229.1938   -32.905597    671010.02   -19969.942    1433.3183    -21403.26 
   81400    234.76505    49.370167    671010.02   -19971.097    1468.1595   -21439.257 
   81500    234.85439   -16.088155    671010.02   -19971.186    1468.7182   -21439.904 
   81600    231.12579    18.967713    671010.02   -19971.161    1445.4005   -21416.561 
   81700    231.22744   -12.400815    671010.02   -19970.999    1446.0361   -21417.036 
   81800     236.8371   -16.527173    671010.02   -19971.412    1481.1175   -21452.529 
   81900    234.06247    65.686331    671010.02   -19971.609    1463.7657   -21435.374 
   82000     236.3799    -9.339077    671010.02   -19972.232    1478.2583    -21450.49 
   82100    236.33604    15.922166    671010.02   -19971.628     1477.984   -21449.612 
   82200    236.02445    15.971108    671010.02   -19970.772    1476.0354   -21446.807 
   82300    231.23342    15.423663    671010.02   -19971.292    1446.0735   -21417.365 
   82400    235.74094   -10.111497    671010.02   -19971.695    1474.2624   -21445.957 
   82500    238.44309    55.903507    671010.02   -19971.473     1491.161   -21462.634 
   82600    239.16674   -61.324142    671010.02   -19972.258    1495.6865   -21467.945 
   82700    234.90889   0.14294305    671010.02   -19971.388     1469.059   -21440.447 
   82800    241.54644    25.497602    671010.02   -19972.187    1510.5685   -21482.755 
   82900     231.5064    17.761426    671010.02   -19970.459    1447.7807    -21418.24 
   83000    241.16098    22.226963    671010.02   -19972.366     1508.158   -21480.524 
   83100    240.29185    14.433843    671010.02   -19972.411    1502.7226   -21475.133 
   83200    237.18186    31.234392    671010.02   -19971.671    1483.2736   -21454.945 
   83300    238.07019     24.90264    671010.02   -19970.986     1488.829   -21459.815 
   83400    234.28807   -12.863742    671010.02    -19971.12    1465.1765   -21436.296 
   83500    238.18227    30.368661    671010.02   -19972.156    1489.5299   -21461.686 
   83600    239.93949    10.619935    671010.02   -19972.284    1500.5191   -21472.804 
   83700    232.16116   -5.4543717    671010.02   -19970.954    1451.8754   -21422.829 
   83800    235.88451    18.274766    671010.02   -19971.758    1475.1603   -21446.918 
   83900     232.8987    55.790946    671010.02   -19970.736    1456.4878   -21427.224 
   84000    236.64757   -4.9932019    671010.02   -19971.525    1479.9322   -21451.457 
   84100    239.86399     28.94859    671010.02   -19972.212    1500.0469   -21472.259 
   84200    237.14503    38.298307    671010.02   -19971.899    1483.0432   -21454.943 
   84300    234.02398   -21.373534    671010.02   -19971.494     1463.525   -21435.019 
[...]
  129600    269.42874    3.6199282    671010.02   -19973.447    1684.9371   -21658.384 
  129700    269.90888    50.969793    671010.02   -19973.202    1687.9398   -21661.142 
  129800    273.50387    39.136837    671010.02   -19973.488     1710.422    -21683.91 
  129900     273.0162   -4.6444421    671010.02   -19972.817    1707.3722   -21680.189 
  130000    273.39664    67.135952    671010.02   -19973.573    1709.7513   -21683.324 
  130100    276.51134    36.287646    671010.02    -19973.89    1729.2299   -21703.119 
  130200     272.4194   -63.984515    671010.02   -19974.626    1703.6399   -21678.266 
  130300    269.01593     15.58477    671010.02   -19974.453    1682.3556   -21656.809 
  130400    276.23617    103.09491    671010.02   -19974.444     1727.509   -21701.953 
  130500    268.49227    13.150711    671010.02   -19972.644    1679.0807   -21651.725 
  130600    277.04215    50.526922    671010.02   -19974.125    1732.5494   -21706.674 
  130700    270.31872    2.2701397    671010.02   -19974.001    1690.5029   -21664.504 
  130800    282.28064    32.938865    671010.02   -19974.483    1765.3096   -21739.793 
  130900    273.51388    18.597385    671010.02   -19973.434    1710.4845   -21683.919 
  131000    271.43214    53.935559    671010.02   -19973.457    1697.4659   -21670.923 
  131100    268.86039    48.752145    671010.02   -19972.947    1681.3829   -21654.329 
  131200    280.68757    63.079049    671010.02   -19975.118    1755.3469   -21730.465 
  131300    268.24841   -11.194689    671010.02   -19972.264    1677.5557   -21649.819 
  131400    271.91321    6.4226016    671010.02   -19973.347    1700.4743   -21673.821 
  131500    272.13404    33.170092    671010.02   -19973.505    1701.8554    -21675.36 
  131600    277.87416    19.624106    671010.02   -19975.437    1737.7526   -21713.189 
  131700    272.20638    20.457572    671010.02   -19973.043    1702.3078   -21675.351 
  131800    275.34716    30.604041    671010.02   -19974.343    1721.9494   -21696.293 
  131900    273.32219    31.141857    671010.02   -19973.423    1709.2858   -21682.709 
  132000    279.22175    61.451009    671010.02   -19973.788    1746.1801   -21719.968 
  132100    272.36082     31.35571    671010.02    -19973.31    1703.2736   -21676.584 
  132200    274.54467    16.187688    671010.02   -19972.952    1716.9309   -21689.883 
  132300    276.51863    31.589761    671010.02   -19974.352    1729.2755   -21703.628 
  132400    276.71873    7.2574014    671010.02   -19974.244    1730.5268   -21704.771 
  132500    272.76006     16.84987    671010.02   -19973.093    1705.7704   -21678.863 
  132600    269.27935    29.575692    671010.02   -19972.297    1684.0029     -21656.3 
  132700    270.70481    76.003794    671010.02     -19973.5    1692.9173   -21666.418 
  132800     275.0509    55.355071    671010.02   -19973.339    1720.0967   -21693.436 
  132900    271.09533    35.196609    671010.02   -19972.335    1695.3596   -21667.694 
  133000     270.5308    11.704656    671010.02   -19974.139    1691.8291   -21665.968 
  133100    276.64541        37.46    671010.02   -19973.157    1730.0683   -21703.225 
  133200    267.45093    69.319057    671010.02   -19973.012    1672.5684   -21645.581 
  133300    271.46479    30.938387    671010.02   -19972.544    1697.6701   -21670.214 
  133400    269.53238   -16.805973    671010.02   -19972.387    1685.5853   -21657.973 
  133500    270.44432    13.786422    671010.02   -19973.159    1691.2883   -21664.447 
  133600    267.77139    49.990074    671010.02   -19972.692    1674.5725   -21647.264 
  133700    274.65687    24.144918    671010.02   -19973.156    1717.6325   -21690.788 
  133800    275.01252    52.687686    671010.02   -19974.512    1719.8567   -21694.368 
  133900    270.24679    7.4082622    671010.02   -19972.524     1690.053   -21662.577 
  134000       268.15    24.421795    671010.02   -19972.598    1676.9402   -21649.538 
  134100    278.00426    100.47472    671010.02   -19973.379    1738.5662   -21711.945 
  134200    274.33066    11.827638    671010.02   -19974.078    1715.5925    -21689.67 
  134300    278.65846    37.942374    671010.02   -19974.453    1742.6574   -21717.111 
  134400    273.43201    42.812188    671010.02   -19971.988    1709.9726   -21681.961 
  134500    278.12494   -14.767734    671010.02   -19973.828    1739.3209   -21713.149 
  134600    276.28985    36.922294    671010.02   -19973.651    1727.8447   -21701.495 
  134700     272.5787    63.979639    671010.02   -19972.671    1704.6362   -21677.307 
  134800    270.07337    5.6571944    671010.02    -19972.23    1688.9685   -21661.199 
  134900    273.79269    14.714338    671010.02   -19973.726    1712.2282   -21685.954 
  135000    278.36559    50.951698    671010.02   -19973.674    1740.8259     -21714.5 
  135100    275.28892    14.280209    671010.02   -19974.275    1721.5852    -21695.86 
  135200    272.96233    65.270503    671010.02   -19973.449    1707.0353   -21680.484 
  135300    267.71071    7.5846544    671010.02    -19972.21     1674.193   -21646.403 
  135400    272.50301    47.231486    671010.02   -19972.179    1704.1629   -21676.342 
  135500    270.77404    9.6589245    671010.02   -19973.707    1693.3503   -21667.057 
  135600     273.4609    23.638785    671010.02   -19973.053    1710.1532   -21683.206 
  135700    276.85386    15.186991    671010.02     -19974.3    1731.3719   -21705.671 
  135800    268.12755    4.3222041    671010.02   -19973.867    1676.7999   -21650.667 
  135900    271.31269    59.253665    671010.02   -19972.303    1696.7189   -21669.022 
  136000    276.14612    1.1002142    671010.02   -19973.629    1726.9459   -21700.575 
  136100    271.96872     31.87788    671010.02   -19973.275    1700.8215   -21674.097 
  136200     276.6332     66.24442    671010.02   -19973.996     1729.992   -21703.988 
  136300    274.63321    11.353897    671010.02    -19973.61    1717.4846   -21691.095 
  136400    273.79521   -40.394133    671010.02   -19973.331    1712.2439   -21685.574 
  136500    273.71037    59.641267    671010.02   -19973.118    1711.7133   -21684.832 
  136600    277.75786    83.091824    671010.02   -19974.265    1737.0253   -21711.291 
  136700    273.45792     1.663426    671010.02   -19973.828    1710.1346   -21683.963 
  136800    273.50723    46.037771    671010.02   -19972.886    1710.4429   -21683.329 
  136900    280.39807    34.645407    671010.02   -19974.503    1753.5365   -21728.039 
  137000    272.73518   -2.2515545    671010.02   -19972.598    1705.6147   -21678.213 
  137100    273.91308    54.430918    671010.02    -19973.35     1712.981   -21686.331 
  137200    276.65834    24.156787    671010.02   -19973.019    1730.1492   -21703.168 
  137300    269.08878   -2.5359125    671010.02   -19972.479    1682.8111    -21655.29 
  137400    274.87703    44.742125    671010.02   -19972.799    1719.0093   -21691.809 
  137500    269.87374    62.427667    671010.02   -19972.473    1687.7201   -21660.193 
  137600    276.79837    22.595581    671010.02    -19974.24    1731.0249   -21705.265 
  137700    273.38493    57.108731    671010.02   -19974.224    1709.6781   -21683.902 
  137800    274.20608    35.588285    671010.02   -19973.737    1714.8134    -21688.55 
  137900     268.2523    22.309535    671010.02   -19972.647      1677.58   -21650.227 
  138000    277.67586     53.43445    671010.02   -19974.245    1736.5125   -21710.758 
  138100    288.43656    72.514292    671010.02   -19975.383    1803.8071    -21779.19 
  138200      272.983    32.006821    671010.02   -19972.569    1707.1646   -21679.733 
  138300     271.4434    34.888555    671010.02   -19972.897    1697.5363   -21670.433 
  138400    279.50709    75.056951    671010.02   -19974.066    1747.9645   -21722.031 
  138500    273.01002   -7.3964883    671010.02   -19973.221    1707.3335   -21680.554 
  138600    278.18364    4.2257166    671010.02   -19972.648     1739.688   -21712.336 
  138700    276.13364    77.824338    671010.02   -19974.298    1726.8679   -21701.166 
  138800     284.7096    18.658598    671010.02   -19974.972    1780.4997   -21755.472 
  138900    274.27001    39.145435    671010.02   -19972.634    1715.2132   -21687.847 
  139000    276.02905    75.842629    671010.02    -19973.47    1726.2138   -21699.683 
  139100    269.51708     30.47159    671010.02   -19972.494    1685.4896   -21657.983 
  139200       274.86   -6.4923968    671010.02   -19972.834    1718.9029   -21691.737 
  139300    270.67051    32.095837    671010.02   -19973.221    1692.7029   -21665.924 
  139400    273.63839     56.61835    671010.02   -19973.208    1711.2632   -21684.472 
  139500    271.93407    9.5684438    671010.02   -19972.211    1700.6048   -21672.816 
  139600    269.24166    30.943472    671010.02   -19972.788    1683.7672   -21656.555 
  139700    274.05862    28.246395    671010.02   -19973.105    1713.8912   -21686.996 
  139800    274.91527    53.138117    671010.02    -19973.53    1719.2485   -21692.779 
  139900    271.64412   -15.358447    671010.02   -19972.613    1698.7916   -21671.404 
  140000    272.32491    9.2771164    671010.02   -19973.034     1703.049   -21676.083 
  140100    275.97131    26.055029    671010.02   -19974.253    1725.8527   -21700.105 
  140200    269.53642    29.049681    671010.02       -19973    1685.6106   -21658.611 
  140300    271.33508    17.674306    671010.02   -19973.245    1696.8589   -21670.104 
  140400    273.92243    35.462157    671010.02   -19973.177    1713.0395   -21686.216 
  140500     274.1245    49.874107    671010.02   -19972.914    1714.3032   -21687.217 
  140600    271.98157    26.537808    671010.02    -19972.66    1700.9019   -21673.562 
  140700      273.928    46.156804    671010.02   -19972.699    1713.0744   -21685.773 
  140800    270.08297    37.034507    671010.02   -19973.017    1689.0285   -21662.045 
  140900    271.91846    76.470531    671010.02   -19972.919    1700.5072   -21673.426 
  141000    274.76101    41.386248    671010.02   -19973.244    1718.2838   -21691.527 
  141100    274.95466   -33.229316    671010.02   -19974.547    1719.4948   -21694.042 
  141200    275.49477    -8.975729    671010.02    -19974.84    1722.8725   -21697.712 
  141300    276.78564      56.4897    671010.02   -19973.745    1730.9453    -21704.69 
  141400    273.71414    2.3901374    671010.02   -19974.326    1711.7369   -21686.063 
  141500    274.46071    34.210008    671010.02   -19974.149    1716.4058   -21690.555 
  141600    274.26654    65.334114    671010.02   -19973.385    1715.1915   -21688.576 
  141700    274.77861    22.863424    671010.02   -19972.944    1718.3938   -21691.338 
  141800    269.75064    32.641624    671010.02   -19972.694    1686.9502   -21659.644 
  141900    276.73701    82.010058    671010.02   -19974.507    1730.6412   -21705.148 
  142000    274.80658   -2.2182247    671010.02   -19974.106    1718.5687   -21692.674 
  142100    275.83975    49.998612    671010.02   -19973.191      1725.03   -21698.221 
  142200    273.92849    50.524343    671010.02   -19973.809    1713.0774   -21686.887 
  142300    273.75829    42.647556    671010.02   -19973.529    1712.0131   -21685.542 
  142400    271.46965   -20.650212    671010.02   -19972.962    1697.7005   -21670.662 
  142500    273.50293    31.570827    671010.02   -19972.577    1710.4161   -21682.993 
  142600    276.11556    73.623236    671010.02   -19973.934    1726.7548   -21700.689 
  142700    271.94611    3.7384073    671010.02    -19973.18    1700.6801    -21673.86 
  142800    274.19002    48.967398    671010.02   -19973.049     1714.713   -21687.762 
  142900    277.13314    36.763706    671010.02   -19974.282    1733.1184     -21707.4 
  143000    278.16818    15.230948    671010.02   -19973.807    1739.5913   -21713.399 
  143100    278.85609    48.613142    671010.02   -19974.655    1743.8934   -21718.548 
  143200    273.37971   -3.3011142    671010.02   -19974.661    1709.6455   -21684.306 
  143300    273.02808     63.43599    671010.02   -19972.833    1707.4465    -21680.28 
  143400    268.37096    93.856303    671010.02   -19973.034     1678.322   -21651.357 
  143500     271.2414     11.69866    671010.02   -19973.683    1696.2731   -21669.956 
  143600     266.0433    9.8018715    671010.02   -19972.014    1663.7655   -21635.779 
  143700    276.53108    78.518454    671010.02   -19973.294    1729.3533   -21702.647 
  143800    275.36212   -8.7313489    671010.02   -19974.949     1722.043   -21696.992 
  143900    280.85724     35.87103    671010.02   -19974.868     1756.408   -21731.276 
  144000    265.71749    31.949208    671010.02   -19971.892     1661.728    -21633.62 
  144100    272.54189     10.98159    671010.02   -19973.762     1704.406   -21678.168 
  144200    275.21459    47.316823    671010.02   -19973.506    1721.1203   -21694.627 
  144300    278.26027    39.882076    671010.02   -19974.047    1740.1672   -21714.214 
  144400    270.85791    31.613156    671010.02   -19973.283    1693.8748   -21667.158 
  144500    276.18799    25.215523    671010.02   -19973.733    1727.2077    -21700.94 
  144600    272.30883    30.882884    671010.02   -19973.594    1702.9485   -21676.542 
  144700    270.72331    34.403654    671010.02   -19973.162     1693.033   -21666.195 
  144800    271.60545    46.370583    671010.02   -19972.619    1698.5497   -21671.169 
  144900    278.82497    2.4598452    671010.02   -19973.493    1743.6987   -21717.192 
  145000    272.83021    22.391447    671010.02   -19973.829     1706.209   -21680.038 
  145100    274.87734    16.701038    671010.02   -19974.359    1719.0113    -21693.37 
  145200    267.63138    38.483366    671010.02    -19972.96     1673.697   -21646.657 
  145300    266.67512    22.283851    671010.02   -19971.554    1667.7167    -21639.27 
  145400    270.73726   -7.2776734    671010.02   -19972.835    1693.1203   -21665.955 
  145500      276.899    64.508364    671010.02   -19974.704    1731.6542   -21706.358 
  145600    275.15028   -26.077616    671010.02   -19973.667    1720.7182   -21694.385 
  145700    275.59265     40.84993    671010.02   -19973.896    1723.4846   -21697.381 
  145800     275.9461    68.998323    671010.02   -19973.711     1725.695   -21699.406 
  145900    276.57163   -10.347654    671010.02    -19973.03    1729.6069   -21702.637 
  146000    274.56943     64.23816    671010.02   -19973.945    1717.0857   -21691.031 
  146100    272.51198    15.874742    671010.02    -19973.75    1704.2189   -21677.969 
  146200    270.52713    53.255746    671010.02   -19973.091    1691.8062   -21664.897 
  146300    273.34758   -25.093351    671010.02   -19974.824    1709.4446   -21684.269 
  146400    276.40582   -13.375788    671010.02   -19975.076      1728.57   -21703.646 
  146500    272.56844    54.556112    671010.02   -19974.139     1704.572   -21678.711 
  146600      272.269     68.58609    671010.02   -19974.166    1702.6994   -21676.865 
  146700    265.73421      10.7715    671010.02   -19972.199    1661.8325   -21634.031 
  146800    273.89853     83.89926    671010.02   -19973.524      1712.89   -21686.414 
  146900    267.39544   -22.864734    671010.02   -19972.907    1672.2214   -21645.128 
  147000    274.02276    19.644519    671010.02   -19973.464     1713.667   -21687.131 
  147100    273.51609    61.429735    671010.02   -19974.245    1710.4984   -21684.743 
  147200    276.24367    81.438351    671010.02   -19974.728     1727.556   -21702.284 
  147300    282.24242    2.0169361    671010.02    -19975.73    1765.0705     -21740.8 
  147400    273.58513    13.540369    671010.02   -19973.875    1710.9301   -21684.805 
  147500    276.23273      77.0663    671010.02    -19973.19    1727.4876   -21700.678 
  147600    282.07919    11.069129    671010.02    -19975.39    1764.0498    -21739.44 
  147700     271.6702    55.217508    671010.02   -19972.681    1698.9547   -21671.636 
  147800    271.39452    44.416318    671010.02   -19971.915    1697.2306   -21669.145 
  147900    276.30435   -1.1545697    671010.02   -19973.431    1727.9355   -21701.367 
  148000      279.211    77.957808    671010.02   -19973.696    1746.1128   -21719.809 
  148100    274.54439    5.1848397    671010.02    -19973.39    1716.9291   -21690.319 
  148200    279.29347    4.3597494    671010.02   -19974.471    1746.6286   -21721.099 
  148300    270.75362     80.65315    671010.02   -19972.988    1693.2226    -21666.21 
  148400    274.18244    28.141749    671010.02   -19973.734    1714.6656   -21688.399 
  148500    277.09334    51.741351    671010.02   -19974.272    1732.8696   -21707.142 
  148600    272.02344    27.280792    671010.02   -19974.056    1701.1637   -21675.219 
  148700    277.24219    10.093472    671010.02   -19973.428    1733.8005   -21707.229 
  148800    272.74074    48.487392    671010.02   -19973.117    1705.6496   -21678.767 
  148900    272.95532    40.843458    671010.02   -19973.118    1706.9915   -21680.109 
  149000    274.00242   -21.409024    671010.02   -19973.402    1713.5398   -21686.942 
  149100    272.68688    72.257754    671010.02   -19972.648    1705.3127    -21677.96 
  149200    275.62791    31.865019    671010.02   -19973.765    1723.7051    -21697.47 
  149300    278.05523   -17.371086    671010.02   -19973.293     1738.885   -21712.178 
  149400    271.66888    29.627735    671010.02   -19973.752    1698.9464   -21672.698 
  149500    274.49984    37.429957    671010.02   -19973.885    1716.6505   -21690.535 
  149600    275.75594    -12.76689    671010.02   -19973.141    1724.5058   -21697.647 
  149700    280.01222    49.857465    671010.02   -19975.358    1751.1234   -21726.481 
  149800    279.49763    40.652369    671010.02   -19975.463    1747.9053   -21723.368 
  149900     279.7181    37.546193    671010.02   -19974.037    1749.2841   -21723.321 
  150000    270.13445    25.340985    671010.02   -19973.271    1689.3505   -21662.622 
  150100    276.31748    13.313176    671010.02   -19972.866    1728.0175   -21700.883 
  150200    274.75635    37.267359    671010.02   -19974.248    1718.2546   -21692.503 
  150300    270.39527    5.9255192    671010.02    -19973.17    1690.9816   -21664.152 
  150400    275.55812   -15.952571    671010.02   -19974.229    1723.2687   -21697.498 
  150500    273.82874    82.708633    671010.02   -19973.098    1712.4536   -21685.552 
  150600    276.84185     27.27306    671010.02   -19974.098    1731.2968   -21705.395 
  150621    277.05646  -0.77398003    671010.02   -19975.013    1732.6389   -21707.652 
Loop time of 123.96 on 6 procs for 100000 steps with 2099 atoms

Performance: 696.999 ns/day, 0.034 hours/ns, 806.712 timesteps/s
100.0% CPU use with 6 MPI tasks x no OpenMP threads

MPI task timing breakdown:
Section |  min time  |  avg time  |  max time  |%varavg| %total
---------------------------------------------------------------
Pair    | 0.11917    | 33.805     | 102.74     | 814.1 | 27.27
Neigh   | 0.12154    | 5.2227     | 15.539     | 313.3 |  4.21
Comm    | 4.1933     | 79.512     | 121.6      | 582.4 | 64.14
Output  | 0.19403    | 0.19548    | 0.20083    |   0.5 |  0.16
Modify  | 0.22094    | 0.75933    | 1.5362     |  49.6 |  0.61
Other   |            | 4.466      |            |       |  3.60

Nlocal:        349.833 ave        1035 max           2 min
Histogram: 4 0 0 0 0 0 0 0 0 2
Nghost:        672.000 ave        1697 max         117 min
Histogram: 4 0 0 0 0 0 0 0 0 2
Neighs:        0.00000 ave           0 max           0 min
Histogram: 6 0 0 0 0 0 0 0 0 0
FullNghs:      9514.00 ave       28374 max          31 min
Histogram: 4 0 0 0 0 0 0 0 0 2

Total # of neighbors = 57084
Ave neighs/atom = 27.195808
Neighbor list builds = 11313
Dangerous builds = 0
write_data data.${NAME}
write_data data.5A_cylinder
System init for write_data ...
Total wall time: 0:03:15
