
# Create simulation box of size 270 x 270 x 6 Angstrom
#
lattice	            sc 1
Lattice spacing in x,y,z = 1.0000000 1.0000000 1.0000000
region 	            all block 0 270 0 270 0 6 units box
create_box          1 all
Created orthogonal box = (0.0000000 0.0000000 0.0000000) to (270.00000 270.00000 6.0000000)
  2 by 3 by 1 MPI processor grid

# fill box with 7151 randomly distributed atoms
#
create_atoms        1 random 14434 63782 all
Created 14434 atoms
  create_atoms CPU = 0.002 seconds
mass                1 18.015

# Define potential
#
pair_style          sw
pair_coeff          * * ML_mW.sw mW
Reading sw potential file ML_mW.sw with DATE: 2019-02-27

# Run minimization
#
minimize            1.0e-8 1.0e-8 10000 1000
WARNING: Using 'neigh_modify every 1 delay 0 check yes' setting during minimization (../min.cpp:187)
Neighbor list info ...
  update every 1 steps, delay 0 steps, check yes
  max neighbors/atom: 2000, page size: 100000
  master list distance cutoff = 6.0032907
  ghost atom cutoff = 6.0032907
  binsize = 3.0016454, bins = 90 90 2
  1 neighbor lists, perpetual/occasional/extra = 1 0 0
  (1) pair sw, perpetual
      attributes: full, newton on
      pair build: full/bin/atomonly
      stencil: full/bin/3d
      bin: standard
Per MPI rank memory allocation (min/avg/max) = 4.707 | 4.717 | 4.723 Mbytes
Step Temp E_pair E_mol TotEng Press 
       0            0     52667746            0     52667746     11232734 
     769            0   -153971.13            0   -153971.13   -140.37561 
Loop time of 4.59567 on 6 procs for 769 steps with 14434 atoms

99.7% CPU use with 6 MPI tasks x no OpenMP threads

Minimization stats:
  Stopping criterion = max force evaluations
  Energy initial, next-to-last, final = 
      52667746.2267696  -153970.106354723  -153971.133774342
  Force two-norm initial, final = 1.0661386e+09 9.8646507
  Force max component initial, final = 4.4765644e+08 2.5847083
  Final line search alpha, max atom move = 0.024768803 0.064020131
  Iterations, force evaluations = 769 1000

MPI task timing breakdown:
Section |  min time  |  avg time  |  max time  |%varavg| %total
---------------------------------------------------------------
Pair    | 3.5258     | 3.8367     | 4.1207     |   9.3 | 83.49
Neigh   | 0.093549   | 0.095511   | 0.097475   |   0.5 |  2.08
Comm    | 0.3067     | 0.5924     | 0.90509    |  23.8 | 12.89
Output  | 0          | 0          | 0          |   0.0 |  0.00
Modify  | 0          | 0          | 0          |   0.0 |  0.00
Other   |            | 0.07101    |            |       |  1.55

Nlocal:        2405.67 ave        2444 max        2356 min
Histogram: 1 0 0 0 0 2 2 0 0 1
Nghost:        6495.50 ave        6558 max        6375 min
Histogram: 1 0 0 0 1 0 0 1 2 1
Neighs:        0.00000 ave           0 max           0 min
Histogram: 6 0 0 0 0 0 0 0 0 0
FullNghs:      71839.3 ave       73929 max       69180 min
Histogram: 1 0 0 0 0 2 2 0 0 1

Total # of neighbors = 431036
Ave neighs/atom = 29.862547
Neighbor list builds = 33
Dangerous builds = 0

# Add velocity/set timestep
#
velocity            all create ${TEMP} 120598 rot yes dist gaussian
velocity            all create 225 120598 rot yes dist gaussian
timestep            5.0

# Define output
#
compute	            1 all msd
thermo	            100
thermo_style        custom step temp press vol etotal ke pe c_1[4] density

# Neighbor lists
#
neigh_modify        delay 0 every 1 check yes

# Set fixes
#
fix                 1 all momentum 10 linear 1 1 1 rescale
fix                 2 all nve
fix                 3 all temp/csvr ${TEMP} ${TEMP} 500.0 928347
fix                 3 all temp/csvr 225 ${TEMP} 500.0 928347
fix                 3 all temp/csvr 225 225 500.0 928347
fix                 4 all press/berendsen iso ${PRES} ${PRES} 1000.0 modulus 20000
fix                 4 all press/berendsen iso 1 ${PRES} 1000.0 modulus 20000
fix                 4 all press/berendsen iso 1 1 1000.0 modulus 20000

# Run 0.5 ns equilibration
#
dump                1 all custom 1000 eq.${NAME}.dump id type x y z vx vy vz
dump                1 all custom 1000 eq.wall_225K_6A.dump id type x y z vx vy vz
run                 100000
Per MPI rank memory allocation (min/avg/max) = 3.957 | 3.967 | 3.973 Mbytes
Step Temp Press Volume TotEng KinEng PotEng c_1[4] Density 
     769          225    871.26791       437400   -144291.18    9679.9571   -153971.13 3.5232103e-32   0.98716841 
     800    121.34555   -90.038241    439371.42   -142909.93    5220.5321   -148130.46   0.17924032   0.98273908 
     900     167.1109   -36.812563    439452.44    -139709.5    7189.4504   -146898.95   0.79811435   0.98255788 
    1000    188.56139   -97.347541    438995.41   -137876.46     8112.294   -145988.75    1.6096927   0.98358081 
    1100    206.82176   -58.878922    438679.42   -136797.35    8897.8924   -145695.25    2.5577593   0.98428931 
    1200    216.47667    34.874567    438710.05    -136183.3    9313.2663   -145496.57     3.589525   0.98422058 
    1300    219.99459    46.668114    438094.03   -135878.55    9464.6144   -145343.17     4.633199   0.98560453 
    1400    227.01728   -68.102228     438102.6    -135670.9    9766.7445   -145437.65    5.6836106   0.98558525 
    1500     227.8423   -104.66877    437846.56   -135729.15    9802.2388   -145531.39    6.7240513    0.9861616 
    1600    226.56228   -64.904943    437397.43   -135749.44    9747.1696   -145496.61    7.7457006   0.98717421 
    1700    228.89497     119.2163    437613.13   -135893.09    9847.5267   -145740.62    8.6619685   0.98668762 
    1800    226.62571   -11.433408    438319.03   -136046.87    9749.8984   -145796.77    9.4807319   0.98509861 
    1900    228.57567   -38.930986    438273.21   -136153.77    9833.7897   -145987.56    10.338354   0.98520159 
    2000    227.34458    113.19156    438464.12   -136234.54    9780.8259   -146015.36    11.160088   0.98477262 
    2100     228.6324   -13.866835    438904.71   -136291.61    9836.2303   -146127.84    12.000516   0.98378408 
    2200    226.75821    84.917724    439398.01   -136601.25    9755.5986   -146356.85    12.830464   0.98267961 
    2300    225.44149    102.97854     439879.8    -136718.2    9698.9507   -146417.15    13.466005   0.98160329 
    2400    229.32483    66.830296    440075.26   -136774.19    9866.0202   -146640.21     14.07985   0.98116731 
    2500    227.66111    12.485543    440611.64   -136931.87    9794.4433   -146726.32    14.702451   0.97997289 
    2600    230.45385    15.968177    440729.39   -137028.75    9914.5928   -146943.34    15.330598   0.97971107 
    2700    230.08617   -13.100587    440896.05   -137045.76    9898.7743   -146944.54    15.994116   0.97934074 
    2800    228.76921    26.724139    441500.65    -137254.9    9842.1163   -147097.01    16.625572    0.9779996 
    2900    229.10743   -89.983555    441424.12   -137445.98    9856.6671   -147302.64    17.248478   0.97816916 
    3000    229.05492    134.49618    442448.96   -137496.16    9854.4079   -147350.57    18.007348   0.97590344 
    3100    228.27414   -63.064896    442720.49    -137557.2     9820.817   -147378.02    18.673845    0.9753049 
    3200    230.77497   -1.7707653    443086.22   -137656.62    9928.4079   -147585.03    19.249301   0.97449986 
    3300    227.81502   -71.809712    443239.43   -137845.55    9801.0649   -147646.61    19.840444   0.97416301 
    3400    228.18311    143.62531    443886.43   -137939.09    9816.9009   -147755.99    20.472835    0.9727431 
    3500     228.9506    148.28584    444628.75   -138016.81      9849.92   -147866.73    21.161954   0.97111909 
    3600    228.63423    21.892527    444805.75   -138046.88    9836.3091   -147883.19    21.800825   0.97073264 
    3700    227.67286    26.339141    445397.65   -138230.16     9794.949   -148025.11    22.511349   0.96944262 
    3800    229.01829    151.41081     445992.4   -138335.95    9852.8319   -148188.78    23.141293   0.96814982 
    3900    228.92697    117.14391    446515.12   -138425.71    9848.9035   -148274.61    23.703958   0.96701644 
    4000    225.41917   -18.774015    447036.06   -138732.61    9697.9905    -148430.6    24.169339   0.96588955 
    4100    225.97707    37.042142    447180.72   -138789.49    9721.9927   -148511.49    24.652159   0.96557709 
    4200    227.33454    13.218087    447501.88   -138768.55    9780.3938   -148548.94    25.097665   0.96488413 
    4300    227.86403    50.645815    447973.48   -138835.09    9803.1734   -148638.26    25.588591   0.96386835 
    4400    230.07303   -17.168056    448380.47   -138872.34     9898.209   -148770.55    25.922236   0.96299347 
    4500    227.58797     56.40736    448712.26    -138989.1     9791.297    -148780.4     26.41922   0.96228139 
    4600    227.06689   -101.03862    448921.72   -139147.85    9768.8788   -148916.72    26.829631   0.96183241 
    4700    228.16242   -32.825663    449546.43   -139265.61    9816.0109   -149081.62    27.367433    0.9604958 
    4800    227.60311    92.317599    450121.26   -139495.84    9791.9483   -149287.79    27.842871    0.9592692 
    4900    225.95286    95.106044    450756.78   -139555.69    9720.9509   -149276.64    28.341254   0.95791673 
    5000    227.36754    114.11017    450996.04   -139678.72    9781.8134   -149460.53    28.710785   0.95740854 
    5100    227.63564   -39.704613    451330.85   -139760.24    9793.3476   -149553.58    29.193962    0.9566983 
    5200    228.02324    80.541081    451833.91    -139894.5    9810.0229   -149704.52    29.665623   0.95563315 
    5300    226.02894     79.87808    452028.07   -140013.27    9724.2242    -149737.5    30.082581   0.95522267 
    5400    226.46973   -7.8903046    452226.21   -140094.56    9743.1879   -149837.75    30.408962   0.95480415 
    5500    227.23922   -17.650267    452814.67   -140027.91    9776.2928    -149804.2     30.80343   0.95356333 
    5600    225.84882   -3.3160766    453310.05   -140051.01    9716.4751   -149767.48    31.183516   0.95252127 
    5700    228.20783    63.698493    453922.24   -140001.93    9817.9646    -149819.9    31.675582   0.95123663 
    5800    227.42204    24.748504    453568.02   -140161.97    9784.1582   -149946.13    32.075646   0.95197951 
    5900    227.11963    40.496283    453826.72   -140178.43     9771.148   -149949.58    32.599079   0.95143684 
    6000    225.62772    101.28472    454314.33    -140569.2    9706.9627   -150276.16    33.006581   0.95041567 
    6100     223.8757    26.639128    454416.37   -140699.51    9631.5875   -150331.09    33.387421   0.95020226 
    6200    225.33891     5.458181    454600.76   -140649.13    9694.5377   -150343.67    33.906918   0.94981686 
    6300     224.0415   -32.788281    454801.41   -140779.69    9638.7204   -150418.41    34.475996   0.94939781 
    6400     227.0323    36.412311    455367.58   -140799.83    9767.3907   -150567.22    35.026689   0.94821739 
    6500    226.16113    43.735718    456050.69   -140836.97    9729.9113   -150566.88    35.689302   0.94679709 
    6600    226.77622   -14.229529    456113.83   -140951.32    9756.3737   -150707.69    36.137603   0.94666601 
    6700    224.33943   -41.687013    456367.66   -141069.43    9651.5379   -150720.97    36.500781   0.94613948 
    6800    224.87021    99.847913    457012.21   -141151.78    9674.3733   -150826.15    36.836106   0.94480509 
    6900    224.02141    6.0044707    457386.38   -141259.93     9637.856   -150897.79     37.06125   0.94403219 
    7000    226.75257   -67.456582     457636.8   -141194.05     9755.356   -150949.41    37.156105   0.94351561 
    7100    227.35183    60.586873    457691.15   -141203.88    9781.1377   -150985.02    37.249676   0.94340357 
    7200    226.03974   -27.624531    458088.93   -141384.77    9724.6888   -151109.45     37.31572   0.94258437 
    7300    224.82815    34.115647    458353.51   -141458.74    9672.5635   -151131.31    37.473938   0.94204026 
    7400    223.36455    -28.34048    458271.57   -141520.87    9609.5967   -151130.47    37.628016    0.9422087 
    7500    223.86648    44.254705    458697.17   -141625.39    9631.1908   -151256.58     37.99884   0.94133449 
    7600    227.45637    100.15245    459225.73   -141568.73    9785.6352   -151354.37    38.252278   0.94025101 
    7700    227.73623   -80.064456    459333.11   -141665.47     9797.675   -151463.14     38.19516   0.94003122 
    7800    225.76046    43.690527    459577.54   -141718.49    9712.6735   -151431.16    38.375987   0.93953126 
    7900    228.02138   -58.308956    460021.06   -141772.91     9809.943   -151582.86    38.642216   0.93862542 
    8000    222.15143  -0.54273973    460299.41   -142048.13    9557.4058   -151605.54    38.734307   0.93805782 
    8100      225.725    22.063913    460267.67   -141971.78    9711.1482   -151682.93    38.810067   0.93812251 
    8200    226.94171   -7.1139695    460271.52   -141870.85    9763.4932   -151634.34    38.707729   0.93811467 
    8300    225.49609    4.2986471    460604.99   -142031.49       9701.3   -151732.79    38.718212   0.93743547 
    8400    225.89899    19.361741    461009.08   -141870.84    9718.6336   -151589.48    38.828473   0.93661378 
    8500    227.06877    8.8253097    461194.59   -142095.31    9768.9598   -151864.27     39.07668   0.93623705 
    8600     226.8285   -7.3868246    461093.62   -142194.38     9758.623      -151953    39.320311   0.93644207 
    8700    226.14463   -41.621138    461210.01   -142125.39    9729.2016   -151854.59       39.557   0.93620575 
    8800    227.45421   -1.3480058    461873.44   -142132.44    9785.5421   -151917.98    40.003584     0.934861 
    8900    225.91271    43.438934    461934.21   -142154.58    9719.2237    -151873.8    40.338019   0.93473801 
    9000    225.05821   -69.212911    461910.06   -142236.54    9682.4614      -151919    40.572722   0.93478688 
    9100    229.33616   -52.201113    461592.15   -142135.48    9866.5076   -152001.99    40.715039   0.93543069 
    9200    225.62326   -50.906892    461542.98   -142228.46    9706.7709   -151935.23    40.833406   0.93553034 
    9300    225.69801    28.155569    461515.58      -142321     9709.987   -152030.99     41.09172   0.93558589 
    9400    226.36925   -64.887343    461647.75   -142322.52    9738.8648   -152061.38    41.253468   0.93531802 
    9500    224.68321   -106.86986    461494.53   -142435.87    9666.3283    -152102.2    41.281692   0.93562856 
    9600    227.57641    89.370387    461762.72   -142529.27    9790.7993   -152320.07    41.402619   0.93508514 
    9700     226.1362      5.32626    461885.34   -142636.14    9728.8385   -152364.98     41.56263    0.9348369 
    9800    225.50817    62.173761    462140.34   -142617.01    9701.8197   -152318.83     41.81674   0.93432108 
    9900    226.42624   -70.104358    462181.48   -142611.02    9741.3169   -152352.34    42.126748   0.93423792 
   10000    225.32133    129.15891    462228.73   -142667.97    9693.7813   -152361.75    42.152714    0.9341424 
   10100    224.21163    -11.27951    462446.83   -142812.89    9646.0396   -152458.93    42.307929   0.93370184 
   10200    223.70262   -48.519457    462399.55   -142731.05    9624.1412   -152355.19    42.328374   0.93379732 
   10300    225.13653    10.207107    462807.34   -142831.62    9685.8309   -152517.45     42.32631   0.93297454 
   10400    226.07281    53.784565     463294.4   -142802.11    9726.1117   -152528.22    42.593562   0.93199371 
   10500    227.09385   -20.814133    463434.32   -142751.03    9770.0387   -152521.07    42.668138   0.93171231 
   10600     229.2193     91.41039    463550.49   -142779.71      9861.48   -152641.19    42.767671   0.93147881 
   10700    229.22724    8.3625564    463870.05   -142794.25    9861.8216   -152656.08    43.003505   0.93083712 
   10800    223.14273    48.319211    463902.97   -142863.82    9600.0534   -152463.87    42.927229   0.93077106 
   10900    225.26966    66.153231    464212.29   -142833.78    9691.5585   -152525.34    43.084318   0.93015086 
   11000    228.08912   -56.428643    464596.26   -142819.14    9812.8572      -152632    43.216137   0.92938213 
   11100    227.42918    -12.73349    464475.55    -142885.2    9784.4654   -152669.67    43.076309   0.92962365 
   11200    224.80829    7.7141584     464658.2   -142967.01    9671.7091   -152638.72    43.151798   0.92925824 
   11300    226.54375   -95.977206    464650.32   -143030.34    9746.3725   -152776.71    43.231529     0.929274 
   11400    226.83939    17.273807    464699.09    -143106.5    9759.0912   -152865.59    43.334664   0.92917648 
   11500    225.56875   -53.171674    464665.08   -143208.44     9704.426   -152912.87    43.309779   0.92924448 
   11600    225.01476    8.2008919    464598.73   -143398.06    9680.5922   -153078.66    43.279127   0.92937719 
   11700    223.93935    12.763967    464722.67   -143484.49    9634.3256   -153118.82    43.466422   0.92912932 
   11800    223.77749   -34.430698     464724.8   -143286.99    9627.3621   -152914.35     43.43531   0.92912507 
   11900     225.8114    26.555296    464610.86   -143378.42    9714.8651   -153093.28    43.423474   0.92935293 
   12000    224.04091    25.510461    464796.66   -143519.35    9638.6953   -153158.05    43.667001   0.92898141 
   12100    226.12565     -36.3683    464823.91   -143565.31    9728.3847   -153293.69    43.585467   0.92892695 
   12200    224.78802    138.49385    465166.02   -143531.27    9670.8373   -153202.11    43.716332   0.92824377 
   12300    228.57801   -2.6486508    465426.91   -143353.74    9833.8904   -153187.63    43.835383   0.92772345 
   12400    227.67835    68.555364    465532.91   -143336.64     9795.185   -153131.83    43.973822   0.92751222 
   12500    229.05339    21.687672    465474.43    -143301.4     9854.342   -153155.74    43.875938   0.92762875 
   12600    225.02654   -27.893876    465688.76   -143471.09    9681.0991   -153152.18    43.736974   0.92720182 
   12700    225.91671    26.101025    465693.15    -143548.5    9719.3958   -153267.89    43.807307   0.92719307 
   12800    225.65431   -78.048075    465546.12   -143540.74     9708.107   -153248.84    44.010907   0.92748589 
   12900    224.63427    78.178237    465669.81   -143599.78    9664.2228      -153264    44.244405   0.92723954 
   13000    225.27557    -21.93005    466082.66   -143601.23    9691.8128   -153293.04    44.689121   0.92641821 
   13100    226.11335    34.978451    465884.28    -143714.9    9727.8555   -153442.76    44.774177   0.92681268 
   13200    222.97917   -4.2188163    466242.28   -143660.01    9593.0169   -153253.03    44.844328   0.92610104 
   13300    224.57083   -5.5357624    466259.28   -143589.79    9661.4931   -153251.28    44.791841   0.92606728 
   13400    226.00417    37.622666    466266.91   -143605.04    9723.1586    -153328.2    44.853116   0.92605213 
   13500    227.36673   -5.7485002    466097.43   -143689.36    9781.7784   -153471.13    44.947685   0.92638885 
   13600    226.86597    25.103439    466319.03   -143694.42     9760.235   -153454.65    45.000492   0.92594861 
   13700    225.75082   -42.729587    466420.29   -143756.83    9712.2587   -153469.09    45.112995    0.9257476 
   13800    224.83639   -70.411829    466429.14   -143817.39    9672.9183    -153490.3    45.336411   0.92573002 
   13900    225.73735      56.7109    466769.96   -143962.32    9711.6795      -153674    45.610325   0.92505409 
   14000    225.88653   -12.622091    466940.62   -143961.28    9718.0973   -153679.38    45.946539     0.924716 
   14100    223.54213    -70.09942    467093.84   -144162.61    9617.2366   -153779.84    46.301562   0.92441267 
   14200    224.54883    -41.05912     466916.5   -144030.24    9660.5469   -153690.79     46.34809   0.92476376 
   14300     224.1522    31.914632    467068.69   -144006.62    9643.4831    -153650.1    46.489709   0.92446245 
   14400    223.21509    14.472092    467130.64   -144086.27    9603.1666   -153689.44    46.467256   0.92433984 
   14500    227.68287    42.948186    467186.38   -144000.73    9795.3798   -153796.11    46.499411   0.92422956 
   14600    225.38423    47.975696    467393.69   -144135.68    9696.4875   -153832.17    46.434457   0.92381962 
   14700    227.92179     3.697174    467802.88   -143973.52    9805.6582   -153779.17    46.478241   0.92301154 
   14800    225.32973   -24.606881    467657.31   -144052.93    9694.1429   -153747.07    46.571338   0.92329887 
   14900    226.59325   -43.967701    467620.69   -144097.37    9748.5021   -153845.87    46.616663   0.92337117 
   15000    228.18568   -23.581074    467623.85   -144049.61    9817.0113   -153866.62    46.772916   0.92336493 
   15100    222.44634    38.723337     467559.8   -144209.01    9570.0935   -153779.11    46.959075   0.92349142 
   15200    225.00059    7.6450776    467516.53   -144204.24    9679.9825   -153884.23    46.990245   0.92357689 
   15300    224.66667    29.752956    467520.55   -144306.78    9665.6163    -153972.4    47.101713   0.92356894 
   15400    224.42594    49.099892    467779.81    -144276.3    9655.2599   -153931.56    47.283035   0.92305708 
   15500    226.39515    14.701066    468125.42    -144170.6    9739.9795   -153910.58    47.266187    0.9223756 
   15600    224.04528    32.712956    467822.42   -144260.91     9638.883   -153899.79    47.171054   0.92297299 
   15700    225.44806    62.154956    468039.06   -144340.91    9699.2334   -154040.14    47.173263   0.92254578 
   15800    224.69668   -39.861183    467825.14   -144344.74    9666.9077   -154011.65    47.146876   0.92296763 
   15900     226.0829    40.719541    467985.45   -144315.72    9726.5455   -154042.27     47.19986   0.92265146 
   16000    226.04131    56.014059    467959.08   -144323.16    9724.7562   -154047.92     47.31077   0.92270345 
   16100    223.26232    3.9358683    467887.58   -144377.28    9605.1987   -153982.48    47.240987   0.92284446 
   16200    224.26796    93.110317    467834.48   -144368.67    9648.4634   -154017.13    47.417308    0.9229492 
   16300    226.52513   -26.272589    467900.14   -144140.71    9745.5714   -153886.28    47.550721   0.92281969 
   16400    226.60036    16.912987    467854.19   -144119.87    9748.8076   -153868.68    47.709197   0.92291032 
   16500    227.44345   -11.564894    468297.89   -144140.42    9785.0794    -153925.5    48.025711   0.92203588 
   16600    226.63809    73.241498    468306.07   -144206.95    9750.4311   -153957.38    48.153553   0.92201977 
   16700    225.08081   -81.111766    468341.65   -144293.57    9683.4337   -153977.01    48.369921   0.92194975 
   16800    224.55581   -54.611051    468450.04   -144424.22    9660.8471   -154085.07     48.58973   0.92173642 
   16900    226.22616    95.804319     468553.8   -144342.67    9732.7089   -154075.38    48.770504    0.9215323 
   17000    226.29547    18.897782    468783.06   -144422.28    9735.6908   -154157.97    48.888436   0.92108163 
   17100    226.00279    40.777748    468590.77   -144432.15    9723.0993   -154155.25    48.731223   0.92145959 
   17200    226.83884   -11.532431    468498.87   -144401.51    9759.0679   -154160.58     48.55285   0.92164035 
   17300    226.87973    2.8558426    468619.19   -144399.08    9760.8271   -154159.91    48.495726   0.92140371 
   17400    224.97678    31.544091    468731.87   -144383.39     9678.958   -154062.35    48.492991   0.92118222 
   17500    228.76634   -15.042316    468647.08   -144423.56    9841.9928   -154265.56    48.424654   0.92134887 
   17600    225.67685    6.4093082    468565.54   -144490.21    9709.0764   -154199.29    48.461982   0.92150921 
   17700    224.65201    35.238962    468548.85   -144516.13    9664.9859   -154181.12    48.502468   0.92154204 
   17800    223.36654   -34.632707    468809.45   -144518.91    9609.6825    -154128.6    48.670615   0.92102977 
   17900    226.48874   -13.143781    468695.41   -144616.32    9744.0056   -154360.33    48.784399   0.92125387 
   18000    224.29004     39.00945    468866.07   -144675.95    9649.4132   -154325.36    48.974181   0.92091855 
   18100    222.81233   -20.571057    468539.78   -144815.45    9585.8389   -154401.29    48.860536   0.92155988 
   18200    224.58614   -16.375859    468483.33   -144780.02    9662.1518   -154442.18    48.790042   0.92167091 
   18300    224.66001     20.75036    468411.23   -144745.06      9665.33   -154410.39    48.677637   0.92181278 
   18400      225.228   -18.400397    468363.47   -144759.73     9689.766    -154449.5    48.598517   0.92190678 
   18500     224.6981    107.78074    468592.94    -144853.2    9666.9686   -154520.17    48.711513   0.92145533 
   18600    225.73524   0.32177977    468973.52   -144735.36    9711.5886   -154446.95    49.045062   0.92070755 
   18700    225.70482   -55.230962    469003.35   -144794.22    9710.2798    -154504.5    49.161736     0.920649 
   18800      228.749    56.190968    469224.16   -144683.63    9841.2468   -154524.87     49.47309   0.92021576 
   18900    226.01948    5.2754472    469431.79   -144831.53     9723.817   -154555.35    49.607011   0.91980873 
   19000    226.91409   -32.653641    469267.99   -144867.81    9762.3053   -154630.12    49.546994    0.9201298 
   19100    225.54299   -32.570326    469453.21   -144855.41    9703.3177   -154558.73     49.42651   0.91976677 
   19200    223.28891    20.979604     469421.1   -144952.24    9606.3426   -154558.58    49.265369   0.91982969 
   19300    224.88992   -17.121426    469396.65   -144864.19    9675.2211   -154539.41    49.164662    0.9198776 
   19400    225.63899   -3.3564754    469479.14   -144865.65    9707.4477    -154573.1     49.32466   0.91971597 
   19500    226.59821    32.711591     469686.9   -144924.64    9748.7151   -154673.35    49.529838   0.91930915 
   19600    226.68031    21.499138    469909.97   -144904.96    9752.2475   -154657.21    49.641477   0.91887274 
   19700    226.94759   -13.298935     469740.4   -144904.68    9763.7464   -154668.42    49.530312   0.91920444 
   19800    224.00902   -27.041681    469508.51   -144919.22    9637.3233   -154556.54    49.320863   0.91965843 
   19900    223.72415   -12.279003    469494.58   -144960.09    9625.0674   -154585.16    49.116126   0.91968572 
   20000    225.45559    11.629725    469657.55   -144900.32    9699.5577   -154599.88    49.246964    0.9193666 
   20100    228.31502    76.030609     469601.5   -144905.43    9822.5758   -154728.01    49.340323   0.91947632 
   20200    223.97615   -12.156464    469601.39    -144945.6    9635.9089   -154581.51    49.449429   0.91947653 
   20300    226.82375    39.209482    469748.36   -144880.02    9758.4183   -154638.44    49.598851   0.91918887 
   20400    225.19341   -50.937581    469546.42   -144881.72     9688.278      -154570     49.59413   0.91958419 
   20500    225.27653    32.643152    469510.04   -144947.42     9691.854   -154639.27    49.545449   0.91965544 
   20600    226.57211   -8.4568789    469714.42   -144913.53    9747.5924   -154661.12    49.660979   0.91925528 
   20700    224.13051   -46.489901    469925.23   -145012.49    9642.5498   -154655.04    49.905448   0.91884291 
   20800    224.06341    21.098507    469909.42   -145168.47     9639.663   -154808.13    50.177209   0.91887382 
   20900    225.14503   -28.445771    469945.59   -145217.44    9686.1967   -154903.64    50.312882   0.91880309 
   21000    225.18251    15.473397    469836.18   -145126.16    9687.8091   -154813.97    50.318411   0.91901706 
   21100    225.35146   -27.166459    470014.75   -145059.61    9695.0777   -154754.69    50.343717   0.91866789 
   21200    225.25581    -8.894997    469971.97   -145148.24    9690.9627    -154839.2    50.226979   0.91875152 
   21300    223.11677   -1.3427522    470123.49   -145240.49    9598.9367   -154839.43    50.386218   0.91845541 
   21400    221.18927   -29.694979    470237.05   -145258.26    9516.0119   -154774.28    50.433554   0.91823361 
   21500    226.18821    25.154942    470439.57   -145162.52    9731.0761   -154893.59    50.654729   0.91783832 
   21600    227.93641     -41.7218    470363.02   -145098.09    9806.2875   -154904.37    50.728938   0.91798769 
   21700    226.21167    2.5311241    470373.16   -145136.38    9732.0858   -154868.47    50.739367   0.91796789 
   21800    225.47835   -79.039603    470194.87   -145133.85    9700.5367   -154834.39    50.477587   0.91831598 
   21900     225.8052    23.925117    470398.47   -145069.08    9714.5984   -154783.68    50.423066   0.91791851 
   22000     225.9039    7.6989611    470398.74   -145114.76    9718.8447    -154833.6    50.260346   0.91791797 
   22100    224.89294     31.39963     470567.1   -145187.38     9675.351   -154862.73    50.191727   0.91758957 
   22200    227.76627    -35.10615    470631.26   -145160.56    9798.9678   -154959.53    50.101562   0.91746447 
   22300    224.56236   -40.202565     470278.8   -145114.46    9661.1289   -154775.59    49.878439   0.91815209 
   22400    225.70696    28.415643    470081.44   -145203.43    9710.3721    -154913.8    49.776948   0.91853757 
   22500    225.31751    40.615035    470145.22   -145252.87    9693.6168   -154946.49    49.649131   0.91841296 
   22600    224.33286   -81.584424       470376   -145354.97    9651.2555   -155006.23    49.766143   0.91796235 
   22700    224.49729   -10.681692    470366.78   -145354.69    9658.3297   -155013.02    49.747694   0.91798036 
   22800    225.74582    24.992836    470390.13   -145290.43    9712.0436   -155002.48    49.663396   0.91793477 
   22900    222.27748    27.812538    470480.71    -145485.2    9562.8289   -155048.03    49.700028   0.91775806 
   23000    223.51986     50.99303    470614.15   -145420.15    9616.2784   -155036.42    49.984324   0.91749784 
   23100    224.22737   -43.226988    470723.29   -145247.42    9646.7169   -154894.13    50.339167    0.9172851 
   23200     224.7673   -14.201717    470665.53   -145272.12    9669.9459   -154942.06    50.519071   0.91739767 
   23300    224.84247   -20.957944    470739.45   -145332.79    9673.1799   -155005.97    50.657132    0.9172536 
   23400    223.94043   -52.339131    470771.02   -145523.04    9634.3721   -155157.41    50.626876    0.9171921 
   23500    227.82051    36.359858    470823.51   -145408.04    9801.3013   -155209.34    50.761636   0.91708985 
   23600    223.95657   -70.378185    470831.26   -145455.02    9635.0664   -155090.09    50.871615   0.91707475 
   23700    221.41438  -0.92355127    470838.53   -145522.91    9525.6965    -155048.6    51.017944    0.9170606 
   23800    226.03332   -4.9147489    470856.31   -145592.86    9724.4124   -155317.27    51.043103   0.91702597 
   23900    227.45899   -38.696329    470800.36   -145491.64    9785.7479   -155277.39    51.053662   0.91713494 
   24000    226.32605    21.262847    470899.68   -145386.68    9737.0065   -155123.69    51.266451   0.91694151 
   24100    226.70793   -31.502535    470867.35   -145345.41    9753.4356   -155098.85    51.594761   0.91700447 
   24200    225.23697    24.731939    470867.91   -145369.83    9690.1518   -155059.98     51.75993   0.91700337 
   24300    227.90949    20.652412    470977.95   -145259.51    9805.1293   -155064.64    51.960939   0.91678912 
   24400    227.00724    22.321585    470729.57   -145361.73    9766.3126   -155128.04    51.947349   0.91727287 
   24500    226.00708    22.356059    470662.17   -145339.66    9723.2836   -155062.94     51.92087   0.91740422 
   24600    224.95972   -1.3795936    470923.74   -145418.67    9678.2241   -155096.89    52.001265   0.91689466 
   24700    225.96294    37.298239    470941.76   -145373.19    9721.3849   -155094.57    51.845315   0.91685957 
   24800    226.97878   -13.052103    471068.52   -145378.15    9765.0883   -155143.23    51.941687   0.91661286 
   24900    226.48303   -34.284593    470762.77   -145426.22    9743.7599   -155169.98    51.789134   0.91720817 
   25000    227.29155   -23.563708    470927.76   -145487.06    9778.5441   -155265.61     51.62323   0.91688683 
   25100    228.18624    13.505208     470852.4   -145580.78    9817.0357   -155397.82    51.373755   0.91703357 
   25200    222.59475   -55.186871    470808.81   -145633.91    9576.4785   -155210.38    51.299839   0.91711848 
   25300     223.6965   -66.036569     470774.8   -145661.11    9623.8778   -155284.98    51.160301   0.91718474 
   25400      222.573   -16.244775    470623.19   -145751.58    9575.5424   -155327.12    51.045128   0.91748021 
   25500    224.58307    8.8857935     470928.8   -145647.37    9662.0201   -155309.39    51.132863   0.91688481 
   25600    223.62625   0.55448015    470989.64   -145707.51    9620.8555   -155328.37    51.188554   0.91676638 
   25700    224.44388   -16.533248     470833.4   -145754.57    9656.0315    -155410.6    51.177705   0.91707058 
   25800     223.7669    19.537519    470843.29   -145750.66    9626.9067   -155377.56    51.306762   0.91705132 
   25900    221.38938   -32.008041    470607.04   -145912.51    9524.6209   -155437.13     51.23136   0.91751169 
   26000    222.67886    15.909516    470802.09   -145908.65    9580.0969   -155488.75    51.373769   0.91713157 
   26100    224.32513    53.040682    471116.02   -145705.11    9650.9229   -155356.03    51.593422   0.91652044 
   26200    225.53548    66.817607    471230.31   -145743.61    9702.9947   -155446.61     51.70326   0.91629816 
   26300     227.5859   -1.1048036    471191.79   -145556.98     9791.208   -155348.19    51.614058   0.91637305 
   26400    225.31419   -34.978675    471304.58   -145673.24    9693.4741   -155366.72    51.691455   0.91615375 
   26500    225.82676   -1.8124239    471432.31    -145637.1    9715.5261   -155352.63    51.865641   0.91590554 
   26600    228.22614    37.699826    471561.57   -145499.47     9818.752   -155318.22    52.017299   0.91565448 
   26700    227.57392    5.2979358    471495.28   -145709.26    9790.6924   -155499.95    52.032536   0.91578322 
   26800    224.11702    3.5525891    471518.44   -145663.05    9641.9695   -155305.02    51.861196   0.91573824 
   26900    224.28038   -58.667301    471610.18   -145697.74    9648.9974   -155346.74    51.707811    0.9155601 
   27000    224.21779    3.3176255    471311.94   -145783.62    9646.3047   -155429.92    51.530165   0.91613944 
   27100    223.57694   -22.826475    471219.63   -145840.11    9618.7342   -155458.85    51.385906   0.91631893 
   27200    226.89813   -13.012302     471136.1   -145691.15    9761.6184   -155452.77    51.393016   0.91648138 
   27300     225.9592   -2.4660355    471270.24   -145613.43    9721.2238   -155334.65    51.719785   0.91622051 
   27400     223.6035   -15.159321    471147.36   -145578.57    9619.8767   -155198.45    51.715572   0.91645947 
   27500    225.60938   -14.026303    471014.52   -145640.19     9706.174   -155346.36    51.622241   0.91671794 
   27600    226.11549   -11.400301    470983.78   -145719.53    9727.9479   -155447.48    51.867533   0.91677778 
   27700    226.25462    11.963971    471158.51   -145645.02    9733.9335   -155378.96    52.096557   0.91643778 
   27800    227.85455    4.1724611    471319.03   -145662.61    9802.7657   -155465.37    52.402306   0.91612567 
   27900    225.42937   -27.171215    471548.42   -145744.08    9698.4293   -155442.51    52.700473   0.91568001 
   28000    226.85904   -59.458284     471789.3   -145678.72    9759.9367   -155438.66    52.875861   0.91521249 
   28100    229.46739   -46.902578    471496.72   -145636.74    9872.1534   -155508.89    52.879095   0.91578041 
   28200    223.93966    18.630873    471612.33   -145775.34     9634.339   -155409.68    52.893003   0.91555592 
   28300    224.61619   -15.978518    471632.86   -145875.99    9663.4448   -155539.44    52.977083   0.91551606 
   28400    223.01462   -8.7587839    471557.48   -145898.45     9594.542   -155492.99     53.03646   0.91566241 
   28500    227.84182    25.894673    471410.04   -145721.94    9802.2179   -155524.15    52.955297    0.9159488 
   28600    224.27524    23.798417    471525.36   -145856.58    9648.7765   -155505.36    53.007689    0.9157248 
   28700    224.63169    19.297717    471587.63   -145918.13    9664.1115   -155582.24    53.054412   0.91560388 
   28800     224.4392   -57.061064    471844.99   -145963.12    9655.8304   -155618.95    53.199319   0.91510447 
   28900    224.11184    10.313414    471610.99   -145893.88    9641.7467   -155535.62    52.900962   0.91555853 
   29000    224.82015   -86.059202    471659.07   -145911.08    9672.2196    -155583.3    52.913108   0.91546519 
   29100    221.61613    49.466906    471447.78    -145896.8     9534.376   -155431.18      52.8273   0.91587548 
   29200    224.28097    8.2464951    471702.75   -145883.15    9649.0227   -155532.17    52.793504   0.91538043 
   29300    225.81811    6.6883937    471675.34   -145973.34    9715.1538   -155688.49    52.628842   0.91543362 
   29400    225.32738   -23.718241    471951.19   -145882.07    9694.0417   -155576.11    52.626871   0.91489855 
   29500     222.3673   -23.394755    471914.37    -146005.5    9566.6931   -155572.19    52.398802   0.91496993 
   29600    226.14278   -9.9021206    472037.65   -145931.56    9729.1216   -155660.68    52.480619   0.91473099 
   29700    225.30539    11.898224    471836.92   -145970.02    9693.0956   -155663.12    52.473315   0.91512013 
   29800    227.64561    40.305726    471940.25    -145881.3    9793.7766   -155675.08     52.43881   0.91491977 
   29900    224.16664   -42.463292     471903.4    -145869.6    9644.1042    -155513.7    52.460985    0.9149912 
   30000    228.64819    18.344644    471919.88   -145874.96    9836.9096   -155711.87    52.410811   0.91495926 
   30100    225.69477    67.369666    471816.66    -145911.8    9709.8476   -155621.64    52.317505   0.91515943 
   30200    226.66085    67.610901    472079.06   -145912.33    9751.4104   -155663.74    52.453893   0.91465073 
   30300    226.54925    -14.10917     472004.6   -145948.78    9746.6091   -155695.39      52.5144   0.91479502 
   30400    225.24761   -18.373728    471928.57   -145943.99    9690.6098    -155634.6    52.503971    0.9149424 
   30500     225.0939    1.4168349    471983.43    -146075.3    9683.9967   -155759.29    52.454512   0.91483606 
   30600     223.4865   -18.474447    471937.74   -146134.63    9614.8434   -155749.48    52.585461   0.91492462 
   30700    224.58867    52.834226    471932.67   -146201.24    9662.2609    -155863.5    52.773606   0.91493445 
   30800    224.09679   -53.834851     472140.8   -146103.29     9641.099   -155744.39    52.920045   0.91453114 
   30900     227.6911    30.461015    472287.27   -146078.99    9795.7337   -155874.72    52.983976   0.91424752 
   31000    226.04007     15.15545    472207.63   -146139.07    9724.7032   -155863.77    53.067133   0.91440171 
   31100    224.31282    31.547132    472315.78   -146129.88    9650.3931   -155780.27    53.010617   0.91419232 
   31200    223.72228    27.422477    472165.87   -146256.91     9624.987   -155881.89    52.766652   0.91448258 
   31300    224.89049   -12.569273    472274.81   -146201.47    9675.2456   -155876.72     52.80294   0.91427163 
   31400    223.58826   -49.461479    472307.86   -146178.58    9619.2213    -155797.8     52.81345   0.91420766 
   31500    223.64312   -22.557206    472234.75   -146264.81    9621.5813    -155886.4    52.919713   0.91434918 
   31600    224.87967    9.8414698    472415.29   -146046.97    9674.7803   -155721.75    53.127199   0.91399977 
   31700     224.0299    -111.0595    472206.75   -146116.67    9638.2216   -155754.89    53.142248   0.91440341 
   31800    224.13067    -16.78688    472303.76   -146072.73    9642.5567   -155715.29    53.092044    0.9142156 
   31900    225.17825    -25.58526    472235.69   -146135.27    9687.6258    -155822.9    52.905298   0.91434737 
   32000     227.2577    24.216477     472613.5   -146086.28    9777.0877   -155863.37    52.961751   0.91361643 
   32100    226.49611    16.168548    472480.18   -146071.94    9744.3226   -155816.27    52.918372   0.91387424 
   32200    227.82806    48.304099    472272.81   -146112.21    9801.6261   -155913.83    52.951347   0.91427551 
   32300    226.11411    61.847207    472508.07    -146155.9    9727.8882   -155883.78    53.141815   0.91382029 
   32400    226.14121   -10.336467    472649.93   -146159.91    9729.0541   -155888.97    53.215467   0.91354603 
   32500      226.833   -25.135045    472520.74   -146030.54    9758.8163   -155789.36    53.156096   0.91379579 
   32600    225.58665    25.139904    472581.97   -146185.31     9705.196    -155890.5     53.18515   0.91367739 
   32700    224.60226    6.1476805    472779.99   -146245.46    9662.8454    -155908.3    53.274225    0.9132947 
   32800    225.73658    21.842229    472648.91   -146160.75    9711.6464   -155872.39    53.131825   0.91354799 
   32900    224.76779    16.225097    472835.35   -146293.29    9669.9669   -155963.26    53.276923   0.91318778 
   33000    224.80685     1.010903    472622.82   -146297.72    9671.6473   -155969.37    53.202728   0.91359843 
   33100     225.7463    -4.017803    472528.03   -146272.66    9712.0644   -155984.72      53.2157   0.91378169 
   33200    225.20292   0.97492355    472447.86   -146208.92    9688.6872    -155897.6    53.257431   0.91393675 
   33300    226.97289    15.986246    472539.93   -146205.83    9764.8347   -155970.67     53.27672   0.91375868 
   33400    223.38523    9.4461486    472506.98   -146212.33    9610.4864   -155822.81    53.490113   0.91382241 
   33500    224.97287   -18.842487    472484.36   -146230.44      9678.79   -155909.23    53.650566   0.91386615 
   33600    227.67594    -20.66686    472354.85   -146134.28    9795.0816   -155929.36    53.762586   0.91411671 
   33700    226.43663   -4.9933524    472257.77   -146204.17    9741.7638   -155945.93    53.723763   0.91430461 
   33800     223.4199   -16.880474    472100.93   -146168.75    9611.9781   -155780.72    53.632412   0.91460838 
   33900    226.66639   -19.733796    472167.72   -146156.26    9751.6484    -155907.9    53.535131   0.91447899 
   34000    225.62767   -7.8730192    472147.28   -146137.25    9706.9605   -155844.21    53.474504   0.91451857 
   34100    225.06051    25.584207    472265.91   -146232.36    9682.5602   -155914.92    53.521061   0.91428885 
   34200    224.88087    12.815996    472190.69   -146341.45    9674.8319   -156016.28    53.533347   0.91443451 
   34300    223.13743   -3.4059152    472323.05   -146332.02    9599.8257   -155931.84    53.652563   0.91417825 
   34400    224.27708     14.88334    472296.47   -146263.88    9648.8557   -155912.73    53.597363   0.91422971 
   34500    225.82509    17.501145    472410.06   -146070.17    9715.4541   -155785.63    53.770611   0.91400988 
   34600    226.98731    39.152122    472750.49   -146019.43     9765.455   -155784.88    54.027743    0.9133517 
   34700    224.25396   -1.1203656    472622.93   -146176.47    9647.8609   -155824.33    54.061445    0.9135982 
   34800    223.30686     18.46436     472543.3   -146290.74    9607.1149   -155897.86    54.057731   0.91375217 
   34900    223.03976    -2.754876     472617.7   -146303.65    9595.6234   -155899.27    54.306618   0.91360832 
   35000    225.18169   -7.3208474    472474.46   -146190.84    9687.7736   -155878.61    54.512123   0.91388529 
   35100    226.40946   -20.633695    472439.43   -146304.06    9740.5951   -156044.65    54.618128   0.91395306 
   35200    222.30336   -94.591811    472211.98   -146240.18    9563.9421   -155804.12    54.362437   0.91439328 
   35300    226.91409   -3.0928317    471967.86   -146019.51     9762.305   -155781.81    54.193466   0.91486623 
   35400    226.14392    14.394157    472096.82    -146184.1    9729.1707   -155913.27    54.219788   0.91461632 
   35500    224.89149    3.1889643    472176.42   -146342.82    9675.2886    -156018.1    54.386572   0.91446215 
   35600    225.91134   -18.528153    472195.09   -146319.57    9719.1648   -156038.74    54.404501   0.91442599 
   35700    226.08245   -6.7101398     472275.8   -146348.12    9726.5262   -156074.65    54.235825   0.91426972 
   35800    225.72883   -13.007693    472149.49   -146294.61    9711.3126   -156005.92    54.168032    0.9145143 
   35900     223.4313    19.252939    472332.58    -146247.7    9612.4683   -155860.17    54.353642   0.91415981 
   36000     226.3277    22.993319    472361.33   -146242.41    9737.0773   -155979.48    54.369526   0.91410416 
   36100     223.4681    10.486414    472315.14   -146253.81    9614.0515   -155867.86    54.426723   0.91419356 
   36200    225.60922    26.352876    472282.98   -146332.61    9706.1671   -156038.77    54.299223   0.91425582 
   36300    223.08323    -51.03094     472458.8   -146252.38    9597.4938   -155849.87    54.169193   0.91391558 
   36400    225.17476    -14.14301    472401.49   -146372.25    9687.4758   -156059.73    53.834565   0.91402645 
   36500    228.39971    6.2080671    472532.99   -146149.92    9826.2195   -155976.14    53.741391    0.9137721 
   36600    228.66023    17.769738    472604.61   -146120.65    9837.4278   -155958.08    53.658949   0.91363363 
   36700    223.56627   0.77983265    472606.18   -146326.95    9618.2752   -155945.23    53.616775   0.91363058 
   36800    222.99583    5.1568761    472506.88   -146345.29    9593.7337   -155939.03    53.564993   0.91382259 
   36900     224.7234     18.25839     472590.9   -146367.51    9668.0574   -156035.57    53.663467   0.91366014 
   37000    224.46713    26.166062    472579.21   -146448.12    9657.0318   -156105.15    53.739629   0.91368273 
   37100    226.11496    15.347335    472628.44   -146374.74     9727.925   -156102.67    53.757828   0.91358756 
   37200    223.01051    23.849578    472572.01   -146445.34     9594.365   -156039.71    53.864956   0.91369665 
   37300    224.67348   -6.2773884     472545.9   -146366.18    9665.9093   -156032.08    54.065127   0.91374714 
   37400    225.07817    14.928352     472561.1   -146374.06    9683.3203   -156057.38    54.224028   0.91371775 
   37500    224.46449    15.242522    472481.29   -146468.34    9656.9185   -156125.26    54.229596   0.91387208 
   37600    224.07282   -6.4695071    472619.45   -146486.82    9640.0679   -156126.89    54.306258   0.91360494 
   37700    226.84159   -27.903103    472279.51   -146459.87    9759.1862   -156219.05    54.190171   0.91426253 
   37800     225.0647   -35.229968    472298.48    -146462.4    9682.7405   -156145.14    54.259011   0.91422581 
   37900    221.97311    3.6545088    472058.25   -146437.84    9549.7341   -155987.58    54.255205   0.91469107 
   38000    226.09621   -10.432351    472065.02   -146434.47    9727.1181   -156161.59    54.126054   0.91467795 
   38100    225.34557    48.343361    472189.98   -146417.39    9694.8244   -156112.21    54.223997   0.91443588 
   38200    224.42944   -27.757719     471998.1    -146438.1    9655.4106   -156093.51    54.212347   0.91480763 
   38300    220.99395   -52.388406    471721.26   -146520.91    9507.6089   -156028.52    54.113171    0.9153445 
   38400    222.24602     13.50752    471789.97   -146587.31    9561.4754   -156148.79    54.313852    0.9152112 
   38500     221.2914    31.954976    471706.75   -146656.57    9520.4056   -156176.98    54.194318   0.91537265 
   38600    223.71959   -1.1758506    471931.96   -146600.83    9624.8712   -156225.71     54.26103   0.91493583 
   38700    225.79835    6.4514769    472085.52   -146453.66    9714.3038   -156167.96    54.052463   0.91463822 
   38800    225.16174    39.145193    472200.94   -146420.33    9686.9156   -156107.24    54.119213   0.91441465 
   38900    226.66752   -3.2130238    472144.45   -146397.29    9751.6971   -156148.99    54.090343   0.91452406 
   39000    225.97581    35.502409    472350.79    -146253.5    9721.9383   -155975.43    54.167265   0.91412457 
   39100    227.35121   -9.8380573    472195.94   -146304.94    9781.1111   -156086.05    54.365399   0.91442434 
   39200     224.5052    9.7623636    472249.81    -146405.6    9658.6697   -156064.27    54.460314   0.91432004 
   39300    224.58641   -24.725437    472286.54   -146378.48    9662.1636   -156040.65    54.452796   0.91424893 
   39400    227.37574   -30.047961    472320.15   -146347.64    9782.1663   -156129.81    54.440855   0.91418387 
   39500    226.13591    13.503679    472279.86   -146370.39    9728.8262   -156099.22    54.346256   0.91426185 
   39600     227.6475    35.551251    472580.06    -146303.4    9793.8578   -156097.26    54.526698   0.91368109 
   39700     226.4231   -8.7416485    472464.09   -146341.79    9741.1817   -156082.97    54.656246   0.91390536 
   39800    226.13656   -23.413286    472366.01   -146473.28    9728.8541   -156202.13    54.727818    0.9140951 
   39900    224.38589    5.6210479    472638.31   -146483.78     9653.537   -156137.32    54.865309   0.91356848 
   40000    223.90688    38.534266    472606.04   -146630.09    9632.9287   -156263.02    54.921225   0.91363085 
   40100    224.11599     6.538822    472658.35   -146507.67     9641.925   -156149.59     54.93524   0.91352974 
   40200     224.3251    3.3627889    472729.95   -146462.76    9650.9214   -156113.68    55.023194   0.91339138 
   40300    226.71835   -7.3994173     472732.4   -146391.17     9753.884   -156145.05     55.12201   0.91338666 
   40400    223.95701    7.7392547    472725.11   -146491.25    9635.0855   -156126.34    55.031706   0.91340072 
   40500    224.85781    14.394593    472862.81   -146503.88    9673.8397   -156177.72    55.234214   0.91313474 
   40600    224.57055   -46.448265    472755.92   -146480.06    9661.4811   -156141.55    55.145732   0.91334121 
   40700    223.71826    33.164429    472504.58   -146475.64     9624.814   -156100.45    54.907003   0.91382704 
   40800    226.69105     -31.5924    472567.24   -146485.85    9752.7094   -156238.56    55.046044   0.91370587 
   40900    226.62719    12.252365    472770.71    -146544.6     9749.962   -156294.56    55.192272   0.91331264 
   41000    224.02879    27.767702    472820.11   -146537.49    9638.1736   -156175.66    55.215445   0.91321721 
   41100    225.37199     16.28154    472596.61   -146509.53    9695.9607    -156205.5    55.284206    0.9136491 
   41200    227.24227   -19.890829    472583.91   -146504.22    9776.4239   -156280.65    55.489101   0.91367364 
   41300    224.95329   -13.029883    472729.83   -146418.87    9677.9475   -156096.82    55.623932   0.91339162 
   41400     225.9612    47.118824     472571.4   -146627.35    9721.3101   -156348.66    55.360324   0.91369783 
   41500    223.63291   -9.5688316    472660.68    -146590.5    9621.1422   -156211.65    55.297261   0.91352523 
   41600    223.45918   -61.677058    472665.54    -146573.5    9613.6677   -156187.17    55.325675   0.91351584 
   41700    226.41861    43.299852    472858.16   -146496.67    9740.9885   -156237.66      55.3061   0.91314373 
   41800    223.31937    21.837344    472788.64    -146667.8    9607.6531   -156275.45    55.279981     0.913278 
   41900      224.898    -13.60482    472688.26    -146519.3    9675.5688   -156194.87    55.377112   0.91347195 
   42000    227.26702   -7.2259061    472838.29   -146509.76    9777.4888   -156287.25    55.553758   0.91318209 
   42100    222.41493    7.4534395    472692.25   -146567.07     9568.742   -156135.82    55.740223   0.91346423 
   42200     225.4769     11.55466    472851.15   -146545.23    9700.4745   -156245.71    56.042147   0.91315726 
   42300    226.40975    65.763536    473022.82    -146516.8    9740.6074   -156257.41    56.381591   0.91282586 
   42400    222.89008   -77.466211    472922.08   -146670.45    9589.1839   -156259.64    56.616743    0.9130203 
   42500    224.63151   -34.761799    472907.58   -146602.66    9664.1038   -156266.77    56.855817    0.9130483 
   42600    225.50762    13.244763    473081.07   -146669.33    9701.7959   -156371.13    56.978239   0.91271345 
   42700    224.15539    7.3395579    472813.18    -146622.7    9643.6204   -156266.32    56.832592   0.91323059 
   42800    222.76337   -41.866447    472869.85   -146739.43    9583.7328   -156323.16    56.756698   0.91312116 
   42900    225.18888   -35.460777     472695.3   -146680.52    9688.0832    -156368.6    56.479488   0.91345834 
   43000    225.64881   -6.8484903    472613.85   -146636.59    9707.8702   -156344.46    56.306855   0.91361575 
   43100     223.9108   -45.017002    472736.77   -146566.43    9633.0975   -156199.53    56.224769    0.9133782 
   43200    224.38164    46.159927    472789.79   -146586.19     9653.354   -156239.54    55.984862   0.91327578 
   43300    223.80224    27.586732    472737.16   -146631.35    9628.4272   -156259.78    55.632905   0.91337745 
   43400    223.59407     17.16295    472866.83   -146666.45    9619.4709   -156285.93       55.462   0.91312697 
   43500    223.56384    25.883563    472934.25   -146689.52    9618.1705   -156307.69     55.15854   0.91299681 
   43600     224.0694   -11.483462    473009.04      -146649    9639.9207   -156288.92    55.170629   0.91285245 
   43700    223.31329   -1.3869634    472878.09   -146705.46    9607.3914   -156312.85    55.058394   0.91310525 
   43800    223.88993   -32.898103    472830.06    -146646.3    9632.1998    -156278.5    54.900645     0.913198 
   43900    225.19894   -31.868368    472921.58   -146569.89    9688.5158    -156258.4    54.939988   0.91302127 
   44000     223.0524   -21.455783    473002.45   -146724.08    9596.1676   -156320.25    55.103063   0.91286517 
   44100    223.41765    11.246963    472927.55   -146631.87     9611.881   -156243.75    55.262901   0.91300974 
   44200    226.12114   -5.3022793    472998.84   -146515.39    9728.1906   -156243.58    55.606198   0.91287213 
   44300    225.47986    24.173677    473288.17   -146613.79    9700.6015   -156314.39    56.023663   0.91231408 
   44400     223.0917   -9.2651101    472977.52   -146818.57    9597.8579   -156416.43    56.134477   0.91291328 
   44500    222.23987    21.779753    472938.84    -146796.2    9561.2105   -156357.41    56.380496   0.91298794 
   44600    224.05129   -7.5949433    472960.31   -146794.74    9639.1416   -156433.88    56.723305   0.91294651 
   44700    221.94889   0.42579216    472951.63    -146832.4     9548.692   -156381.09    57.099875   0.91296326 
   44800    223.84833   -3.6196105    472845.39   -146797.77    9630.4098   -156428.18    57.328263   0.91316839 
   44900    225.94857     11.33205     472829.8    -146692.6    9720.7666   -156413.36    57.237668    0.9131985 
   45000    223.91648   -37.140437    472711.33   -146711.76    9633.3419    -156345.1    57.097681   0.91342737 
   45100    222.70107   -46.369528    472776.12   -146727.07    9581.0526   -156308.12    57.082886   0.91330219 
   45200     224.3547    32.211703    472653.53   -146645.05     9652.195   -156297.24    56.977319   0.91353907 
   45300    223.06559    30.871876    472699.26   -146705.61    9596.7347   -156302.35    56.904573   0.91345068 
   45400    225.34585   -45.182674    472817.97   -146728.02    9694.8362   -156422.85    56.970072   0.91322135 
   45500    224.00932   -7.9598053    472879.59   -146735.97    9637.3361   -156373.31    56.905936   0.91310235 
   45600    225.53593    34.392259    472857.43   -146631.76    9703.0141   -156334.77    56.790293   0.91314514 
   45700    223.67896   -15.022327    472898.16   -146710.99    9623.1231   -156334.11    56.676644   0.91306648 
   45800    227.04281    38.934194    472855.11   -146600.25    9767.8427   -156368.09    56.603185   0.91314961 
   45900    226.56656   -9.0403628    472942.54   -146610.75    9747.3538    -156358.1    56.393088    0.9129808 
   46000    224.69862    25.792587    472932.26   -146652.74    9666.9912   -156319.73    56.168959   0.91300066 
   46100    223.10616    6.0626151    472983.35   -146702.67    9598.4804   -156301.15    55.894592   0.91290203 
   46200    224.58962    2.0350836    472748.68   -146675.42    9662.3018   -156337.72    55.721583   0.91335519 
   46300    224.12266   -2.0732073    472871.09   -146661.21    9642.2123   -156303.43    55.633737   0.91311876 
   46400    222.97145    36.449825    472976.71    -146723.2    9592.6848   -156315.88    55.584973   0.91291485 
   46500    224.81114   -5.3746221    472867.99   -146723.01    9671.8321   -156394.84    55.351286   0.91312475 
   46600    223.00227   -84.821422    472743.84   -146632.59    9594.0105    -156226.6    55.218802   0.91336455 
   46700    227.86333   -9.4231729    472726.44   -146519.35    9803.1432   -156322.49    55.239762   0.91339816 
   46800    225.71059    3.2943789    472805.62   -146476.98     9710.528   -156187.51    55.276485    0.9132452 
   46900    227.45246    25.861857    472902.44   -146484.88    9785.4668   -156270.34    55.277336   0.91305823 
   47000    226.60344     8.373995    472881.83   -146486.41    9748.9405   -156235.35    55.304725   0.91309801 
   47100    226.43187   -50.599038    472711.03   -146613.14    9741.5592    -156354.7    55.230164   0.91342794 
   47200    225.88407    -16.25948    472654.56   -146614.33    9717.9916   -156332.32    55.290162   0.91353707 
   47300    225.01467    30.666166    472739.78   -146671.77     9680.588   -156352.36    55.546849   0.91337239 
   47400    225.76774    20.069842    472896.74   -146632.17    9712.9866   -156345.15    55.841973   0.91306923 
   47500    224.83388   -7.6263084    472623.59   -146581.04      9672.81   -156253.85    55.868723   0.91359692 
   47600    223.86779   -1.3258956    472677.87   -146663.06     9631.247   -156294.31    55.839979   0.91349203 
   47700    227.14526    -1.009757     472745.6   -146513.75    9772.2506      -156286    56.061833   0.91336114 
   47800    226.94319   0.78937336    472982.54   -146687.54    9763.5572    -156451.1    56.300134   0.91290359 
   47900     225.2182    18.594598    472780.23   -146773.18    9689.3447   -156462.52    56.226605   0.91329424 
   48000    225.25427   -11.200113    472586.56   -146703.51    9690.8961    -156394.4    56.083055   0.91366851 
   48100    224.33649   -34.205127    472545.85   -146694.95    9651.4113   -156346.36    56.093106   0.91374724 
   48200      226.518     10.94975    472530.46   -146731.76    9745.2645   -156477.03     56.32409     0.913777 
   48300    225.77578    46.371925    472542.15   -146712.81    9713.3327   -156426.14    56.493729   0.91375438 
   48400    223.31144   -10.391467    472553.87   -146722.03    9607.3119   -156329.34    56.567733   0.91373173 
   48500    224.24181   -37.294978    472276.46   -146629.53    9647.3382   -156276.87    56.276472   0.91426844 
   48600    223.83501    44.881248    472468.25   -146755.16    9629.8367      -156385    56.317773   0.91389732 
   48700    225.99849    12.598881    472749.53   -146749.71    9722.9143   -156472.62    56.463001   0.91335355 
   48800    224.80869   -12.413407    472810.94   -146898.55    9671.7265   -156570.27    56.633817   0.91323492 
   48900    224.19421   -56.314175    472664.83   -146812.77    9645.2902   -156458.06    56.465348   0.91351723 
   49000    225.54624  0.069368763    472656.73   -146690.85    9703.4574    -156394.3    56.371045   0.91353288 
   49100    227.40291    53.028106    472581.68   -146683.54    9783.3352   -156466.88    56.288807   0.91367795 
   49200    223.29814   -32.838347    472598.45   -146828.75    9606.7395   -156435.49    56.236826   0.91364553 
   49300    224.14903   -28.432818     472420.6      -146881    9643.3465   -156524.35     56.23766   0.91398949 
   49400    224.83457   -26.481342    472516.03   -146804.55    9672.8398   -156477.39    56.146916   0.91380489 
   49500    224.88841    28.522997    472637.85   -146842.98    9675.1561   -156518.13    56.153816   0.91356937 
   49600    226.04481    58.096655    472742.79   -146786.35    9724.9068   -156511.26    56.159991   0.91336658 
   49700    223.56044    -8.697193    472681.75   -146827.48    9618.0244    -156445.5    56.106112   0.91348453 
   49800    226.55304   -3.4353678    472710.34   -146731.42    9746.7719   -156478.19    56.271396   0.91342927 
   49900    225.68132   -13.166233    472807.59   -146681.33     9709.269    -156390.6    56.316841   0.91324138 
   50000     225.2937   -13.286672    472839.72   -146737.23    9692.5927   -156429.82    56.324725   0.91317934 
   50100      223.553   -55.127348    472729.28   -146839.71     9617.704   -156457.42    56.444434   0.91339267 
   50200    224.23195    11.207821    472701.71   -146817.35    9646.9138   -156464.26    56.265898   0.91344595 
   50300    225.28528    12.517048     472786.9   -146819.85    9692.2305   -156512.08    56.018705   0.91328136 
   50400    224.26325   -74.589518    472860.16   -146750.21    9648.2608   -156398.47    55.686445   0.91313985 
   50500    223.41846   -58.821149    472796.92   -146809.84    9611.9158   -156421.76    55.510939     0.913262 
   50600    223.18457    -36.37924    473086.48   -146835.42    9601.8537   -156437.27    55.550847   0.91270303 
   50700    225.94318    42.908127    472901.11      -146715    9720.5348   -156435.54    55.524244   0.91306078 
   50800    226.57802   -26.941271    472985.09   -146629.52    9747.8466   -156377.37    55.518607   0.91289868 
   50900    225.59733    56.321933    472952.05   -146651.55    9705.6555   -156357.21    55.537966   0.91296245 
   51000     226.0822     -21.7205    472794.64   -146680.72    9726.5154   -156407.24    55.698905    0.9132664 
   51100    225.64697   -2.1378818    472665.01   -146791.26    9707.7912   -156499.05    55.945374   0.91351688 
   51200    226.57686   -22.850857     472797.3   -146707.25    9747.7966   -156455.05    56.157168   0.91326127 
   51300    226.31356   -4.2289435    472680.44    -146612.2    9736.4691   -156348.67    56.471847   0.91348705 
   51400    226.55753   -52.947979    472554.21   -146714.63     9746.965    -156461.6    56.675008   0.91373107 
   51500    223.52306    18.000788    472689.15   -146959.72     9616.416   -156576.14    56.915582   0.91347022 
   51600    224.37864    2.4342999     472704.1   -146883.43    9653.2249   -156536.66    56.999505   0.91344134 
   51700    223.18398   -21.269102    472845.12   -146899.27    9601.8281    -156501.1    57.052899   0.91316891 
   51800    221.69137   -41.087036    472726.32   -146894.17     9537.613   -156431.78    57.147064   0.91339839 
   51900    225.44826    37.208592    472799.51   -146978.13    9699.2421   -156677.38    57.281156     0.913257 
   52000    222.97089    4.9391432    472700.73   -147018.17    9592.6607   -156610.83    57.380124   0.91344783 
   52100    223.67278     7.358448    472708.93   -146926.57    9622.8573   -156549.43    57.289828     0.913432 
   52200    223.92578    1.4996918    472842.32   -146988.64    9633.7419   -156622.38     57.29566   0.91317432 
   52300    224.70456     -20.5143    472992.58      -146987    9667.2467   -156654.25    57.186963   0.91288422 
   52400    225.85515    30.154631    472967.38      -146901    9716.7473   -156617.75    57.312213   0.91293285 
   52500    224.37381   -6.4184403    472755.67   -146848.74    9653.0173   -156501.76    57.252616   0.91334169 
   52600    224.54271   -30.859251    472746.34   -146805.92    9660.2835    -156466.2    57.198429   0.91335972 
   52700    224.49737    60.377105    472801.86   -146904.05    9658.3331   -156562.39    57.201686   0.91325245 
   52800    224.44618    3.7355493     472820.2   -146932.85    9656.1308   -156588.98    56.901327   0.91321704 
   52900    224.66272   -58.370874    472829.36   -146970.38    9665.4465   -156635.82    56.754245   0.91319935 
   53000    221.97338        5.733    472834.49   -147016.49    9549.7456   -156566.24     56.86308   0.91318944 
   53100    222.75041   -29.195427    472687.87   -147084.79     9583.175   -156667.96    56.733137   0.91347268 
   53200      223.469   -22.384328     472622.5   -146986.68    9614.0902   -156600.77    56.567688   0.91359903 
   53300    224.91228    -25.04867    472840.38    -146807.8    9676.1833   -156483.98    56.668534   0.91317807 
   53400    224.82334    49.688836    472848.58   -146861.73     9672.357   -156534.09    56.640418   0.91316222 
   53500    227.28571   -33.403079    472688.12   -146706.43    9778.2928   -156484.72    56.598959    0.9134722 
   53600    228.28888    -21.93289    472611.89   -146728.97    9821.4513   -156550.42    56.462205   0.91361956 
   53700    225.72482   -42.169246       472672   -146694.33    9711.1404   -156405.47    56.457089   0.91350336 
   53800    223.78751    7.9817328    472577.48   -146849.02    9627.7934   -156476.81    56.437227   0.91368606 
   53900    223.67898    13.700929    472742.64   -146984.37    9623.1243   -156607.49    56.438859   0.91336686 
   54000    222.93939   -10.862947    472727.29   -147026.52    9591.3055   -156617.83    56.369996   0.91339653 
   54100    225.23717   -4.1854921    472778.79   -146886.58    9690.1607   -156576.75    56.338491   0.91329703 
   54200    225.00931   -13.602031    472728.24   -146866.99    9680.3574   -156547.34    56.267916   0.91339469 
   54300    224.31093   -1.5243465    472815.62   -146945.09    9650.3117    -156595.4    56.078368   0.91322589 
   54400    224.21471   -28.575013    472761.83   -146796.48    9646.1723   -156442.66    55.841317   0.91332979 
   54500    222.23072    21.012288    472802.69   -146911.81     9560.817   -156472.63    55.982141   0.91325086 
   54600    225.90144    20.032967    472751.09   -146893.12    9718.7387   -156611.86    56.005667   0.91335054 
   54700    225.36543    27.637624    472913.77   -146853.33    9695.6788   -156549.01    56.113189   0.91303634 
   54800    225.28813    -52.45549    473004.95   -146834.08    9692.3529   -156526.44    56.574975   0.91286035 
   54900    225.28126   -1.6062902    472850.92   -146787.69    9692.0574   -156479.75    56.805076    0.9131577 
   55000    226.60886   -15.928455    472877.82   -146769.74    9749.1734   -156518.91    56.962843   0.91310577 
   55100     228.0803    20.288214     472891.9   -146739.79    9812.4778   -156552.27    57.131452   0.91307858 
   55200    225.48938    30.590516    473119.16   -146783.66    9701.0112   -156484.67    57.481469   0.91263998 
   55300    227.07801   -19.206857    472939.53   -146781.33    9769.3574   -156550.69    57.463866   0.91298661 
   55400    226.07264   -8.5641467    472982.07   -146808.85    9726.1044   -156534.96    57.486114    0.9129045 
   55500    225.24221   -23.611876    472822.41   -146878.24    9690.3776   -156568.62    57.454086   0.91321276 
   55600    227.24182    1.2621392    472814.79   -146816.45    9776.4048   -156592.85    57.434765   0.91322748 
   55700    225.54669   -33.026363    472834.89   -146822.58    9703.4766   -156526.06    57.416392   0.91318866 
   55800    226.49851    1.0053668    472615.01   -146905.05    9744.4261   -156649.47    57.359201   0.91361352 
   55900    222.69903    19.572974    472663.38   -147033.23    9580.9647   -156614.19    57.375435   0.91352002 
   56000    222.50666   -25.917225    472644.68   -147184.94    9572.6884   -156757.63    57.465411   0.91355617 
   56100    221.53773   -5.3154213    472584.51   -147033.15    9531.0031   -156564.16    57.471317   0.91367248 
   56200    224.50236    17.458583    472844.61   -146992.13    9658.5475   -156650.68    57.528752    0.9131699 
   56300    225.34336 -0.031034151    472928.74   -146873.76    9694.7293   -156568.49    57.510348   0.91300745 
   56400    226.68349   -16.018006    472896.67   -146826.68    9752.3841   -156579.06    57.332808   0.91306936 
   56500    225.45908    52.273855    472849.66      -146767    9699.7078   -156466.71    57.046481   0.91316014 
   56600    224.33313    13.984031    473029.26   -146775.74     9651.267   -156427.01    56.985378   0.91281344 
   56700    226.08878    8.5487909    473068.28   -146826.67    9726.7985   -156553.47    56.842481   0.91273814 
   56800     224.4104   -20.190009    473074.81    -146842.7    9654.5911   -156497.29     56.86634   0.91272554 
   56900    226.22057    10.096646    473200.36   -146825.28    9732.4683   -156557.75    56.780862   0.91248337 
   57000    224.97034    10.848847    473063.95   -146971.98    9678.6812   -156650.66    56.585302    0.9127465 
   57100    223.31292    20.579142    472933.65   -147073.51    9607.3754   -156680.89    56.440151   0.91299797 
   57200    221.01126    66.858048    472841.94   -147232.98    9508.3533   -156741.34    56.351728   0.91317505 
   57300    220.88512   -26.185622     472979.3   -147229.96    9502.9265   -156732.89    56.291944   0.91290985 
   57400    223.71622    -6.415526    472945.96   -147138.37    9624.7262    -156763.1    56.395271   0.91297421 
   57500     223.5884    44.119151    472926.65   -147039.62    9619.2271   -156658.84     56.52065   0.91301148 
   57600    222.01276   -23.488996    472898.23   -147131.43      9551.44   -156682.87    56.741431   0.91306635 
   57700    225.18778    -29.68304    473049.05   -147184.88    9688.0357   -156872.92    56.974343   0.91277524 
   57800    223.93255   -8.2986629    472981.22   -146997.29    9634.0334   -156631.33    57.074639   0.91290614 
   57900    225.38043   -57.945637     473011.1   -146979.45    9696.3238   -156675.77    57.234695   0.91284847 
   58000    223.49281    5.0331542    472918.13    -147122.7    9615.1146   -156737.82    57.346065   0.91302793 
   58100     223.2738   -24.798716    472897.89   -147051.89    9605.6923   -156657.58    57.354062   0.91306702 
   58200    225.23843    51.395325    472971.23   -146985.06    9690.2148   -156675.27    57.174741   0.91292542 
   58300    225.54754    6.3539407    472898.61   -147124.65    9703.5133   -156828.16     56.94809   0.91306561 
   58400    224.02378   -47.002251    472810.99   -147054.34    9637.9579    -156692.3    56.796992   0.91323482 
   58500    224.88154    20.073077    473077.68   -146938.16    9674.8607   -156613.02    56.949044   0.91272001 
   58600    224.13901    20.592139    473019.49   -146951.44    9642.9156   -156594.36    57.020257   0.91283228 
   58700    224.25922   -41.791068     472973.1   -146837.34    9648.0873   -156485.43    57.100371   0.91292182 
   58800    224.74196    34.697061    472932.58   -146914.66    9668.8558   -156583.52    57.126455   0.91300003 
   58900    225.79241     1.526794    473040.17    -146800.6     9714.048   -156514.65    57.156198   0.91279238 
   59000    223.40261   0.22213808     472940.1   -146930.72    9611.2342   -156541.96    57.181122   0.91298552 
   59100    226.00874   -21.361566    473015.87   -146969.14    9723.3551   -156692.49    57.298304   0.91283927 
   59200    224.02526    11.456585    473031.05    -147033.5    9638.0218   -156671.52     57.31465   0.91280997 
   59300    222.27519     -3.71095    473119.92   -147081.24      9562.73   -156643.97     57.39502   0.91263852 
   59400    223.56749    3.0980249    473013.98   -147088.88    9618.3277   -156707.21    57.300048   0.91284292 
   59500    223.83426    53.431902    473126.71   -147049.07    9629.8046   -156678.87    57.472219   0.91262542 
   59600    223.48888    52.216515    473335.75   -146949.36    9614.9458   -156564.31    57.461256   0.91222238 
   59700    227.39773   -16.278081    473270.47   -146851.82    9783.1124   -156634.93    57.328126    0.9123482 
   59800    227.23882    3.0548042     473232.8   -146894.11    9776.2757   -156670.38    57.392025   0.91242083 
   59900    224.71136   -32.902375    473236.19   -146976.79    9667.5392   -156644.33    57.375743   0.91241428 
   60000    222.89592    10.499216     472946.4   -146999.31    9589.4353   -156588.74     57.18424   0.91297336 
   60100    225.91629   -6.3188944    473098.09   -146966.32    9719.3779   -156685.69     57.18393   0.91268063 
   60200    224.70475   -55.756337    473019.17   -147122.85     9667.255    -156790.1    57.140771   0.91283291 
   60300    224.64857   -24.237909    472974.04   -147031.72    9664.8379   -156696.56    57.127172      0.91292 
   60400    226.61378   -3.8447491    473125.44   -146950.98     9749.385   -156700.37    57.319768   0.91262787 
   60500    221.70916   -26.776404    473105.73    -147083.8    9538.3783   -156622.17    57.302923   0.91266589 
   60600    222.66264    -10.61802    472870.62   -147110.16    9579.3992   -156689.56    57.156997   0.91311966 
   60700     224.3559   -31.934969    472899.08   -147054.24    9652.2468   -156706.48    57.189171   0.91306472 
   60800    226.56178    44.071296    472889.93   -147038.55    9747.1481    -156785.7    57.114921   0.91308237 
   60900    224.96647   -35.520286    472880.33    -147017.8    9678.5146   -156696.32    57.003355   0.91310092 
   61000    224.12663   -1.5010767    472859.53   -146961.07    9642.3831   -156603.45    56.919014   0.91314108 
   61100      226.826    39.504093    473035.02   -146904.41    9758.5154   -156662.93    56.946386   0.91280231 
   61200    226.49949    27.874479    472967.71   -146968.86     9744.468   -156713.33    56.983863   0.91293222 
   61300    224.37037    6.8110886    472855.71   -147044.38    9652.8691   -156697.25     57.03156   0.91314846 
   61400    226.87883     8.045601    472931.86    -146833.4    9760.7883   -156594.19    57.217058   0.91300141 
   61500    228.36837   -22.669384    472951.99   -146847.67    9824.8712   -156672.55    57.532323   0.91296257 
   61600    226.65652   0.29030735    472944.56   -146946.61    9751.2239   -156697.83    57.938117   0.91297691 
   61700    227.14669    23.400023    472897.19   -147029.39    9772.3122   -156801.71    58.070424   0.91306837 
   61800    227.27044    16.049382    473004.63   -147013.24    9777.6359   -156790.88    57.922961   0.91286096 
   61900    225.71407   -2.6912566    472954.97   -146996.45    9710.6777   -156707.13    57.780597   0.91295681 
   62000     226.2137    37.724099    472942.31   -147097.53    9732.1727   -156829.71     57.74676   0.91298126 
   62100    225.04358   -4.7973104     473036.1   -147118.49    9681.8322   -156800.33    57.827923   0.91280022 
   62200    225.33192    -31.76977    473046.72   -147105.33    9694.2371   -156799.56    57.809484   0.91277974 
   62300    223.89603   -4.3882702       473080   -147206.42    9632.4619   -156838.89    57.785852   0.91271553 
   62400    221.84155   -33.960386    472889.43   -147197.92     9544.074   -156741.99    57.719347   0.91308335 
   62500    223.47729    8.9470197    472811.01   -147179.14    9614.4469   -156793.58    57.578384   0.91323478 
   62600    225.01101   -35.337571    472947.87    -147056.5    9680.4308   -156736.93    57.461336   0.91297052 
   62700    225.40132   -1.7888639    472795.43   -147053.13    9697.2225   -156750.35    57.139379   0.91326488 
   62800    226.14724   -8.1243561    472829.91   -147118.84    9729.3135   -156848.15    57.160849   0.91319829 
   62900    226.39205    -23.12624    472959.31   -146997.92    9739.8459   -156737.76    57.532883   0.91294843 
   63000    224.90418    20.580357    472688.96   -147077.13    9675.8348   -156752.96     57.42633   0.91347059 
   63100     226.1821   -25.976565    472739.27   -147072.87    9730.8135   -156803.69    57.468084   0.91337338 
   63200    223.08182   -1.3717093    472788.56   -147098.29    9597.4329   -156695.73    57.662564   0.91327815 
   63300    223.59746   -15.951354    472862.91   -147129.74    9619.6168   -156749.35    57.667054   0.91313456 
   63400    223.25052    3.9298538    472850.34   -147117.72     9604.691   -156722.41     57.64572   0.91315882 
   63500    223.86256   -15.810859    472737.42   -147132.08     9631.022    -156763.1    57.517107   0.91337694 
   63600    224.04275   -40.409075    472667.56   -147043.63    9638.7742   -156682.41    57.544573   0.91351194 
   63700    224.75871   0.55127256    472693.55   -147084.56    9669.5761   -156754.14    57.593264   0.91346173 
   63800    223.75586  -0.55665164    472662.29   -147213.34    9626.4315   -156839.77    57.502569   0.91352214 
   63900     226.7761   -7.7653224    472632.45   -147041.85    9756.3684   -156798.22    57.337733   0.91357981 
   64000    222.77319    2.9773393    472715.21   -147212.87    9584.1553   -156797.03    57.261145   0.91341986 
   64100    223.35622    6.4733527    472590.41   -147292.02    9609.2385   -156901.25    57.396446   0.91366107 
   64200     222.6073    8.5946717    472774.19   -147230.88    9577.0181    -156807.9    57.494095   0.91330591 
   64300    222.15407   -21.139581    472637.18   -147304.16    9557.5193   -156861.68    57.410479   0.91357066 
   64400    220.38678   -31.535255    472580.72   -147306.22    9481.4869   -156787.71    57.457102   0.91367981 
   64500    222.91491   -14.154963     472638.7   -147362.46    9590.2522   -156952.71    57.489736   0.91356772 
   64600    224.51335   -15.268487    472713.37    -147211.7    9659.0203   -156870.72    57.641714   0.91342342 
   64700    223.74214    15.095521    472843.99    -147117.2    9625.8415   -156743.04    57.696896    0.9131711 
   64800    227.11055   -44.917703    472824.18   -147070.06    9770.7572   -156840.82    57.687198   0.91320935 
   64900    223.73898   -14.193895    472613.14   -146981.52    9625.7053   -156607.22    57.600379   0.91361713 
   65000    226.06545    16.895782    472865.44    -147001.3     9725.795   -156727.09    57.693613   0.91312967 
   65100    224.97269    25.546218    472851.83    -147134.8    9678.7821   -156813.58    57.713723   0.91315595 
   65200    223.64046    6.8786493    472960.66   -147116.72    9621.4667   -156738.18    57.493443   0.91294583 
   65300    225.75579   -16.156895    472881.66   -147161.61    9712.4728   -156874.08    57.373702   0.91309834 
   65400    222.12898    -17.25093    472912.07   -147171.51      9556.44   -156727.95    57.443752   0.91303963 
   65500    224.26547   -37.568467    472860.64   -147122.17    9648.3561   -156770.52    57.356852   0.91313893 
   65600    224.40003     22.03239    473086.17    -147077.3    9654.1451   -156731.44    57.601746   0.91270362 
   65700    224.63944    29.503498    473108.93   -146973.69    9664.4449   -156638.13    57.772954   0.91265971 
   65800    225.85091   -31.326936    472987.77   -147088.71    9716.5648   -156805.27    57.756951    0.9128935 
   65900    225.21941    2.6114295    472823.78   -147102.41    9689.3967   -156791.81    57.625035   0.91321013 
   66000    227.04522   -39.373226    472931.73   -146994.62    9767.9465   -156762.57    57.773486   0.91300167 
   66100    226.34705   -25.474605    473172.48   -147124.05    9737.9098   -156861.96    57.927565   0.91253715 
   66200    225.92941   -13.547341     472957.4   -147026.33    9719.9422   -156746.27    57.888206   0.91295212 
   66300      225.615   -27.343044     472913.7   -147012.49    9706.4158    -156718.9    57.835828   0.91303649 
   66400    227.84849  -0.36786045    472849.64   -146989.45    9802.5047   -156791.96    57.702695   0.91316019 
   66500    224.49097   -15.033442    472897.41   -147090.94    9658.0574      -156749    57.943752   0.91306793 
   66600    225.03176   -11.700937    472962.17   -147116.71    9681.3234   -156798.03    58.002527   0.91294292 
   66700     223.9905    1.7595755    472887.05   -147141.76    9636.5263   -156778.28    57.954153   0.91308794 
   66800    223.21858  -0.76509472    472984.56   -147161.78    9603.3167    -156765.1    57.950436   0.91289969 
   66900    224.21634   -14.050573    473039.84   -147267.92    9646.2424   -156914.16    57.847057   0.91279301 
[...]
   84800    225.05175    33.853798    472759.61   -147416.63    9682.1837   -157098.81    58.738911   0.91333407 
   84900    223.73815   -10.281022    472822.25    -147363.1    9625.6697   -156988.77    58.868889   0.91321308 
   85000    224.57568   -18.790122    472748.34   -147495.14    9661.7022   -157156.84    58.999187   0.91335585 
   85100    222.25146   -18.510122       472690   -147524.38    9561.7094   -157086.08    58.838425   0.91346858 
   85200     222.2228   -69.400811    472549.62   -147522.69    9560.4763   -157083.16    58.822882   0.91373993 
   85300    225.29101    35.456519    472813.62    -147348.5    9692.4769   -157040.98    58.873421   0.91322975 
   85400    224.27402   -9.9264019    472657.15   -147407.72     9648.724   -157056.45    58.605394   0.91353206 
   85500    224.95668    51.415679    472843.46   -147431.97    9678.0934   -157110.06    58.419876   0.91317211 
   85600    224.04182   -41.731019    472860.66    -147318.2    9638.7344   -156956.93     58.37737   0.91313889 
   85700    225.52118    69.159192    472796.77   -147423.74    9702.3793   -157126.12    58.530654   0.91326228 
   85800    223.80908    30.294731    472903.06   -147462.19    9628.7212   -157090.91    58.780746   0.91305702 
   85900    225.47817    5.5000677    472756.84   -147513.28    9700.5287   -157213.81    59.002794   0.91333943 
   86000     226.4512    20.619624    473033.07   -147478.95    9742.3908   -157221.34    59.290945   0.91280608 
   86100    223.33085    30.882149    473007.83   -147536.51     9608.147   -157144.66    59.524678   0.91285479 
   86200     225.5436   -10.420185    472968.56   -147441.81    9703.3438   -157145.16    59.608879   0.91293057 
   86300    222.17561   -30.441927    472744.87   -147526.59     9558.446   -157085.03    59.646826   0.91336256 
   86400     223.5474   -28.651894    472741.37   -147519.38    9617.4634   -157136.84    59.787637   0.91336931 
   86500    223.19898    36.974348    472573.63   -147517.82    9602.4735   -157120.29    59.646633   0.91369351 
   86600    226.23976    37.947177    472808.97   -147397.33     9733.294   -157130.62    59.868014   0.91323872 
   86700    223.12733   -35.648462    472736.25   -147481.33    9599.3911   -157080.72    59.637196   0.91337922 
   86800    224.22693    16.404074    472827.91   -147460.92    9646.6982   -157107.62    59.329442   0.91320214 
   86900     227.0363    20.760742     472769.8   -147410.56    9767.5627   -157178.13    58.916498   0.91331438 
   87000    224.21569    -8.624427    472745.96   -147441.01    9646.2143   -157087.22    58.849179   0.91336045 
   87100    224.64654   -34.699223    472820.68   -147537.07    9664.7506   -157201.82    58.909662   0.91321611 
   87200    222.38434   -21.228435    472736.18   -147570.05    9567.4259   -157137.48    58.792456   0.91337934 
   87300    225.09017   -4.1074659    472690.85   -147414.96    9683.8365    -157098.8    58.784862   0.91346694 
   87400    224.43948   -1.1652367    472822.18   -147388.45    9655.8423   -157044.29    58.735668   0.91321321 
   87500    224.29302    -37.87535    472894.36   -147529.11    9649.5413   -157178.65     58.76192   0.91307383 
   87600    224.50986   -2.5202449    472982.65   -147462.21    9658.8704   -157121.08    58.803316   0.91290339 
   87700    226.10102   -14.328081    472796.07   -147469.55    9727.3254   -157196.88    58.834737   0.91326364 
   87800    223.09544   -13.170586    472760.92   -147555.37    9598.0192   -157153.39     58.77399   0.91333154 
   87900    226.12565   -9.2292321    472770.73   -147432.03    9728.3846   -157160.42    58.780331   0.91331259 
   88000    223.37888    1.6728926    473032.34   -147403.29    9610.2134    -157013.5    58.971618   0.91280748 
   88100     225.2724   -12.197656    473005.84   -147540.59    9691.6764   -157232.26     58.89842   0.91285862 
   88200    226.97501   -31.169612    473207.25   -147491.67    9764.9259    -157256.6    58.923541   0.91247008 
   88300    225.85744   -29.071515    473145.05   -147490.57    9716.8461   -157207.42     58.95511   0.91259005 
   88400    226.62726    22.799021    473036.12   -147422.61    9749.9652   -157172.58    58.994109   0.91280019 
   88500    225.69792   -4.5602904    473142.75   -147522.56    9709.9832   -157232.54     59.25319   0.91259447 
   88600    226.58775    20.312494    472931.58   -147574.97    9748.2652   -157323.23    59.239028   0.91300197 
   88700    225.24018   -32.732739    472939.31   -147524.08      9690.29   -157214.37    59.223407   0.91298705 
   88800    225.38864    59.822622    472662.59    -147495.9    9696.6772   -157192.58    59.194713   0.91352155 
   88900    224.49725    15.263364    472664.53    -147597.1    9658.3276   -157255.43    59.309529    0.9135178 
   89000    224.71815   -21.026079     472763.9   -147613.79    9667.8311   -157281.62    59.441712   0.91332578 
   89100    228.20305      13.3098    472931.27   -147485.13    9817.7586   -157302.89    59.585105   0.91300256 
   89200    224.04874    21.599465    472870.62   -147572.12    9639.0319   -157211.15    59.649827   0.91311967 
   89300     222.2278    15.842795    472858.16   -147680.27    9560.6915   -157240.96    59.697663   0.91314372 
   89400    224.23697    29.968977    472856.27   -147607.78      9647.13   -157254.91    59.820743   0.91314738 
   89500    227.38339     15.03276    472958.87   -147665.43    9782.4952   -157447.93    59.790042   0.91294929 
   89600    224.24078   -18.930974    472906.27   -147609.06    9647.2939   -157256.36    59.630437   0.91305082 
   89700    225.98753     -6.52194    472896.76   -147539.88    9722.4427   -157262.32    59.540503    0.9130692 
   89800     223.7012   -3.7199592    472766.12   -147607.66    9624.0802   -157231.74    59.434048    0.9133215 
   89900    225.44145    27.905302    472848.64   -147538.77     9698.949   -157237.72    59.566226   0.91316211 
   90000    222.72438   -22.233351    472925.23   -147688.84    9582.0553   -157270.89    59.767969   0.91301423 
   90100    226.17987   -14.474526    472924.68   -147501.76    9730.7174   -157232.48    59.839003   0.91301529 
   90200    223.57108    2.1940372     472952.7   -147634.54    9618.4821   -157253.03    59.646923   0.91296119 
   90300    222.83783   -22.692692     472860.5   -147751.53    9586.9361   -157338.47    59.474045   0.91313921 
   90400    224.94164     14.24131    472880.81   -147646.59    9677.4461   -157324.04    59.418509   0.91309998 
   90500     226.2379    15.583459    472994.68   -147564.17    9733.2139   -157297.38    59.365607   0.91288017 
   90600    224.93539    13.177386    473001.74   -147522.24    9677.1776   -157199.42    59.169645   0.91286654 
   90700     225.1345   -11.779363    473058.16   -147564.46    9685.7437   -157250.21    59.190348   0.91275766 
   90800    228.25801    10.738612    472897.68   -147489.87    9820.1233   -157309.99    58.972072   0.91306741 
   90900    224.15734  -0.15770514    472996.88   -147574.56    9643.7043   -157218.27    58.942787   0.91287592 
   91000    226.40364    13.050347    473015.77    -147601.5    9740.3444   -157341.85    58.912582   0.91283946 
   91100    225.47606    28.886238     473094.1    -147551.5    9700.4381   -157251.94    58.874659   0.91268833 
   91200    226.32481   -45.333096       473022   -147576.95     9736.953    -157313.9    58.830706   0.91282744 
   91300    224.74307    32.474809    472862.16   -147592.31    9668.9033   -157261.22    58.752411     0.913136 
   91400    226.65515    28.932607    473013.09   -147592.77    9751.1648   -157343.93    59.065804   0.91284463 
   91500    222.71844    52.299293    473055.42   -147635.42    9581.7997   -157217.22    59.248975   0.91276295 
   91600    224.68345   -31.174817    473095.42   -147612.56    9666.3386    -157278.9     59.33144   0.91268578 
   91700    223.92245   -35.855655    472882.82   -147694.14    9633.5986   -157327.74    59.405218    0.9130961 
   91800    223.64092    15.394641       472727   -147789.48    9621.4865   -157410.97    59.392388   0.91339707 
   91900    220.94293    38.560729    472735.39   -147807.78    9505.4138   -157313.19    59.303797   0.91338088 
   92000    222.13401   -30.666217    472788.47   -147717.75    9556.6565   -157274.41    59.298905   0.91327833 
   92100    224.98242   -34.360658    472899.58   -147661.03     9679.201   -157340.23    59.333855   0.91306374 
   92200    226.47969    16.985997    472982.04    -147472.5    9743.6162   -157216.12    59.321728   0.91290457 
   92300    227.75568     9.859746    472851.14   -147507.92    9798.5119   -157306.44    59.284423   0.91315728 
   92400     224.0373   -4.1393987    472976.35   -147643.62      9638.54   -157282.16    59.523637   0.91291553 
   92500    224.47024    23.413989    472868.93   -147540.86    9657.1657   -157198.02    59.449987   0.91312292 
   92600    225.66617    11.079651    472941.14   -147526.39     9708.617      -157235    59.496083    0.9129835 
   92700    224.62003    2.4642438    473025.01   -147613.18    9663.6101   -157276.79    59.557671   0.91282163 
   92800     223.2182   -4.6491742    472788.03   -147677.15    9603.3002   -157280.45    59.446139   0.91327917 
   92900     223.2504   -7.8490383    472831.05   -147680.51    9604.6859    -157285.2    59.497976   0.91319609 
   93000    226.51779    22.954119    473039.87   -147540.44    9745.2554   -157285.69    59.629414   0.91279295 
   93100    226.22802    3.8365309    473031.95    -147617.3    9732.7891   -157350.09     60.00269   0.91280824 
   93200    223.79496   -5.8556213     472972.5   -147583.17    9628.1137   -157211.28    60.039853   0.91292298 
   93300    227.89374   -17.626286    473224.45   -147516.12    9804.4517   -157320.58    60.029471   0.91243692 
   93400    223.63614   -48.882569       473212   -147631.59    9621.2811   -157252.87    59.979505   0.91246093 
   93500    227.85081    26.266146    473096.87   -147668.52    9802.6049   -157471.12    59.907294   0.91268298 
   93600    224.95213   -19.058463    472982.97   -147688.16    9677.8974   -157366.06    59.663417   0.91290276 
   93700    224.38806    16.913507    472973.06   -147730.53    9653.6303   -157384.16    59.544872    0.9129219 
   93800    222.85263    1.1912086    473000.36    -147693.4    9587.5729   -157280.97    59.613751   0.91286921 
   93900    225.49465   -10.654804    473005.99   -147665.64    9701.2381   -157366.87      59.5494   0.91285834 
   94000    225.70011   -9.5289326    473109.58    -147726.9    9710.0771   -157436.98    59.575959   0.91265846 
   94100    223.59489    21.123376    473208.33   -147821.81    9619.5063   -157441.32    59.588579   0.91246801 
   94200    222.21932    27.810771    472969.74   -147843.72    9560.3267   -157404.05    59.437989    0.9129283 
   94300     225.3089      21.0486    473074.37   -147791.53    9693.2465   -157484.78     59.43337   0.91272638 
   94400    223.13117   -1.6862788    473122.67   -147721.94     9599.556   -157321.49    59.575875   0.91263321 
   94500    222.57522   -32.153753    473168.01   -147758.24    9575.6381   -157333.88    59.805409   0.91254576 
   94600    222.07685    39.986682    473071.54   -147843.73     9554.197   -157397.92     59.77425   0.91273185 
   94700     223.8824    2.9335001     473126.2    -147828.2    9631.8758   -157460.08    59.963107   0.91262641 
   94800    223.50245    40.327299    473187.95   -147657.94    9615.5296   -157273.47    60.097998    0.9125073 
   94900    225.34874    5.4804657    473191.07   -147650.52    9694.9607   -157345.48    59.996838   0.91250128 
   95000    223.24503    20.845109    473051.94   -147670.85    9604.4547   -157275.31    59.940736   0.91276967 
   95100    223.01087   -40.429836    473088.44   -147690.55    9594.3808   -157284.93    59.801768   0.91269925 
   95200    225.21596   -3.0390551     473102.2   -147567.23    9689.2481   -157256.47    59.643459    0.9126727 
   95300    224.85893   -33.606875    473223.52   -147701.65    9673.8881   -157375.54    59.576609   0.91243872 
   95400    223.91097   -33.103716    472986.19   -147681.08    9633.1048   -157314.19    59.358551   0.91289655 
   95500    225.37243   -13.633545    472899.12   -147726.21    9695.9797   -157422.19     59.18436   0.91306464 
   95600    225.34569   -16.240081    472899.89   -147780.08    9694.8292   -157474.91     59.18291   0.91306314 
   95700    223.16726    4.2699688    473007.07   -147725.75    9601.1089   -157326.86    58.967324   0.91285625 
   95800     224.3523   -8.2962567    473061.69   -147704.05    9652.0917   -157356.14    58.955071   0.91275086 
   95900    226.14352    27.692094    473110.63   -147710.49    9729.1537   -157439.64    59.128286   0.91265643 
   96000    226.63572     4.127825    473134.79   -147656.42    9750.3289   -157406.75    59.281938   0.91260984 
   96100    224.11751   -4.8344091    473208.22   -147628.93    9641.9906   -157270.92    59.431288   0.91246821 
   96200     227.2877    24.745351    473210.62   -147575.36    9778.3785   -157353.74     59.63929    0.9124636 
   96300    226.21789    19.014292    473379.83   -147615.23     9732.353   -157347.59    59.696916   0.91213742 
   96400    225.35908   -12.618479    473278.62   -147630.05    9695.4054   -157325.46    59.409562   0.91233248 
   96500    225.56575   -45.193731    473171.11   -147635.62    9704.2969   -157339.92    59.286843   0.91253978 
   96600    226.76782   -4.8859617    473128.56   -147671.71    9756.0123   -157427.73    59.239029   0.91262186 
   96700    228.01851    30.136883    473231.71   -147618.44    9809.8197   -157428.25     59.29826   0.91242293 
   96800    226.98706    53.421373     473163.1   -147529.46    9765.4444    -157294.9    59.381374   0.91255524 
   96900    226.97224   -20.131258    473188.87   -147543.58     9764.807   -157308.38    59.515888   0.91250553 
   97000    226.04154    35.054896    473108.14   -147643.27    9724.7664   -157368.04    59.640164   0.91266125 
   97100     226.1593    10.977431    473021.56   -147672.39    9729.8326   -157402.23    59.694128   0.91282829 
   97200    223.43745    -50.48197    472998.73   -147693.66    9612.7329   -157306.39    59.835968   0.91287235 
   97300    224.79993   -18.499539    472916.93   -147754.06    9671.3497   -157425.41    59.897121   0.91303025 
   97400     225.9919    30.879642    473031.05   -147731.59    9722.6305   -157454.22    59.912368   0.91280998 
   97500    224.11514    41.502023    472952.63   -147705.08    9641.8887   -157346.97    59.897598   0.91296132 
   97600    225.88388    15.002955     473006.9   -147686.01    9717.9834   -157403.99    60.079741   0.91285658 
   97700    225.68527   -31.410782    473058.77   -147768.75    9709.4389   -157478.18    59.983728   0.91275648 
   97800    226.51441   -32.180281    473096.24   -147739.69    9745.1102    -157484.8    59.696405    0.9126842 
   97900     224.1798    48.504941    473307.69   -147763.71    9644.6706   -157408.38    59.502827   0.91227646 
   98000    225.28354   -27.593673    473213.97   -147600.47    9692.1556   -157292.62    59.220645   0.91245714 
   98100     226.7359    7.8138752    473162.19   -147672.35     9754.639   -157426.99    59.042916   0.91255699 
   98200     225.1329     28.17425    473057.89   -147578.92    9685.6747   -157264.59    59.032571   0.91275819 
   98300    224.37908   -20.552041    473017.85   -147571.73    9653.2439   -157224.98    58.938359   0.91283544 
   98400    224.87892   -44.928915    472998.74   -147538.92    9674.7478   -157213.67    58.823151   0.91287232 
   98500      224.193   -21.015291    472893.49   -147646.13    9645.2382   -157291.36    58.885872   0.91307551 
   98600    226.11619     43.19646    473018.92   -147614.76    9727.9777   -157342.74    58.826672   0.91283338 
   98700    224.17066    29.522792    473141.03   -147764.68    9644.2774   -157408.96    58.821408   0.91259779 
   98800    223.87965   -9.2536785    473146.44   -147672.47    9631.7575   -157304.23    59.068974   0.91258736 
   98900    226.83578   -44.504101    472954.57   -147700.36    9758.9359    -157459.3    59.256824   0.91295758 
   99000    224.15314    1.2332355    473117.75   -147609.45    9643.5235   -157252.97    59.551516    0.9126427 
   99100    224.83594   -31.627515     473091.7   -147665.36    9672.8989   -157338.26    59.574655   0.91269296 
   99200    223.21329    38.203368       473122   -147720.81     9603.089    -157323.9    59.374964    0.9126345 
   99300    224.22747   0.39782128     473205.1   -147721.27    9646.7211   -157367.99    59.354414   0.91247423 
   99400     226.3629   -8.7413635    473316.59   -147675.43    9738.5917   -157414.03    59.349438    0.9122593 
   99500    224.86757   -15.006329    473284.85   -147677.26    9674.2596   -157351.52    59.298276   0.91232047 
   99600    225.34095    -4.928957    473065.13   -147710.18    9694.6256   -157404.81    59.243261   0.91274421 
   99700    223.94103    28.952208     473101.2   -147771.62    9634.3979   -157406.02    59.355259   0.91267462 
   99800    223.30719    22.174186    473057.68   -147775.09    9607.1289   -157382.21     59.42767   0.91275859 
   99900    223.23599   -18.002366    473117.17   -147731.92    9604.0658   -157335.98    59.723252   0.91264381 
  100000    224.19084   -33.127912     472919.7   -147676.59    9645.1456   -157321.74    59.530496    0.9130249 
  100100    224.55997    -40.05289    472999.47   -147703.54    9661.0259   -157364.56    59.472839   0.91287092 
  100200    225.67981    32.968958    472964.44   -147721.41    9709.2037   -157430.62    59.399827   0.91293852 
  100300    224.91625    13.362139    473151.69   -147706.03     9676.354   -157382.38     59.47765   0.91257724 
  100400    225.75268   -47.256252    473153.71   -147729.07     9712.339    -157441.4    59.409349   0.91257333 
  100500    223.48211    1.6194879    473193.14   -147709.07    9614.6543   -157323.72    59.370281    0.9124973 
  100600     224.2845   -5.0941756    473115.92   -147747.03    9649.1749    -157396.2    59.488877   0.91264624 
  100700    225.53159    33.634114    473111.94   -147700.19    9702.8272   -157403.01    59.550236    0.9126539 
  100769      223.965   -30.535104    473265.98   -147711.36    9635.4294   -157346.78    59.579903   0.91235685 
Loop time of 222.746 on 6 procs for 100000 steps with 14434 atoms

Performance: 193.943 ns/day, 0.124 hours/ns, 448.941 timesteps/s
99.8% CPU use with 6 MPI tasks x no OpenMP threads

MPI task timing breakdown:
Section |  min time  |  avg time  |  max time  |%varavg| %total
---------------------------------------------------------------
Pair    | 173.11     | 174.96     | 175.79     |   7.3 | 78.55
Neigh   | 19.02      | 19.162     | 19.244     |   2.2 |  8.60
Comm    | 20.418     | 21.343     | 23.126     |  19.9 |  9.58
Output  | 0.52374    | 0.52534    | 0.53314    |   0.5 |  0.24
Modify  | 5.1273     | 5.1475     | 5.1862     |   0.9 |  2.31
Other   |            | 1.607      |            |       |  0.72

Nlocal:        2405.67 ave        2410 max        2400 min
Histogram: 1 0 0 1 0 1 0 1 0 2
Nghost:        6309.17 ave        6337 max        6277 min
Histogram: 1 0 0 2 0 0 1 0 0 2
Neighs:        0.00000 ave           0 max           0 min
Histogram: 6 0 0 0 0 0 0 0 0 0
FullNghs:      64353.0 ave       64545 max       64170 min
Histogram: 1 1 0 1 0 0 1 1 0 1

Total # of neighbors = 386118
Ave neighs/atom = 26.750589
Neighbor list builds = 5960
Dangerous builds = 0
write_data 	    data.${NAME}
write_data 	    data.wall_225K_6A
System init for write_data ...

undump              1
unfix               2
unfix               3
unfix               4


################################################
#######         Run Simulation         #########
################################################

reset_timestep      0
log                 log.run_${NAME}
log                 log.run_wall_225K_6A
