

### IMPORT ATOMS ###
read_data ../Box_Setup/data.Ibeam_240K
  orthogonal box = (0 0 0) to (157.504 40.4305 33.9212)
  10 by 4 by 4 MPI processor grid
  reading atoms ...
  9248 atoms
  reading velocities ...
  9248 velocities
group water type 2
1952 atoms in group water
group graphite type 1
7296 atoms in group graphite


# Define potential
#
pair_style          sw
pair_coeff * * MLC_e.sw C mW

# Add velocity/set timestep
#

fix		1 graphite setforce 0.0 0.0 0.0
velocity 	graphite set 0.0 0.0 0.0
velocity            water create ${START_TEMP} ${SEED} rot yes dist gaussian
velocity            water create 240 ${SEED} rot yes dist gaussian
velocity            water create 240 8912 rot yes dist gaussian
timestep            5.0

# Define output
#
compute 1 water msd
compute 2 water temp


thermo	            100
thermo_style custom step c_2 press vol etotal ke pe c_1[4] density

# Neighbor lists
#
neigh_modify        delay 0 every 1 check yes


# Set fixes
#
fix                 2 water momentum 10 linear 1 1 1 rescale
fix                 3 all nve
fix                 4 water temp/csvr ${START_TEMP} ${START_TEMP} 500.0 928347
fix                 4 water temp/csvr 240 ${START_TEMP} 500.0 928347
fix                 4 water temp/csvr 240 240 500.0 928347

# Run 0.05 ns equilibration
#
dump                1 all custom 100 ${DIR}/eq.${NAME}.dump id type x y z vx vy vz
dump                1 all custom 100 run_5/eq.${NAME}.dump id type x y z vx vy vz
dump                1 all custom 100 run_5/eq.ibeam_cooling_5.dump id type x y z vx vy vz
run                 10000
Neighbor list info ...
  update every 1 steps, delay 0 steps, check yes
  max neighbors/atom: 2000, page size: 100000
  master list distance cutoff = 6.67472
  ghost atom cutoff = 6.67472
  binsize = 3.33736, bins = 48 13 11
  1 neighbor lists, perpetual/occasional/extra = 1 0 0
  (1) pair sw, perpetual
      attributes: full, newton on
      pair build: full/bin/atomonly
      stencil: full/bin/3d
      bin: standard
Per MPI rank memory allocation (min/avg/max) = 0.4647 | 3.681 | 4.743 Mbytes
Step c_2 Press Volume TotEng KinEng PotEng c_1[4] Density 
       0          240   -299.33439    216009.12   -18704.344    1395.7345   -20100.079            0   0.94393226 
     100    238.00702   -305.63776    216009.12   -18702.553    1384.1442   -20086.698   0.76965946   0.94393226 
     200    239.78338   -417.81763    216009.12   -18747.693    1394.4747   -20142.168    1.1558888   0.94393226 
     300    233.51655   -278.04262    216009.12   -18724.634    1358.0296   -20082.664    1.5911211   0.94393226 
     400    236.68629   -484.35308    216009.12   -18741.537    1376.4634       -20118    1.8677456   0.94393226 
     500    241.51503   -117.59474    216009.12    -18716.23    1404.5452   -20120.775    2.2416064   0.94393226 
     600     242.3131   -157.01938    216009.12   -18623.404    1409.1865    -20032.59    2.6697975   0.94393226 
     700    240.65443   -314.93009    216009.12   -18615.336    1399.5403   -20014.876    3.2049189   0.94393226 
     800    246.64495   -404.97832    216009.12   -18589.353    1434.3786   -20023.732    3.6379032   0.94393226 
     900    243.52737   -221.38759    216009.12   -18618.189    1416.2481   -20034.438    3.9149122   0.94393226 
    1000    243.63268   -276.63563    216009.12   -18664.677    1416.8606   -20081.538    4.3623916   0.94393226 
    1100    242.07881   -207.75709    216009.12   -18629.615    1407.8239   -20037.439    4.7881479   0.94393226 
    1200    233.49207   -100.63496    216009.12   -18608.046    1357.8872   -19965.933    5.1734701   0.94393226 
    1300     244.4634    -188.9514    216009.12   -18571.776    1421.6917   -19993.467    5.2654198   0.94393226 
    1400    246.57129    -344.5498    216009.12    -18601.87    1433.9502    -20035.82    5.6299661   0.94393226 
    1500    239.46257   -403.28737    216009.12   -18629.854    1392.6091   -20022.463    5.9902477   0.94393226 
    1600    247.46645   -282.66105    216009.12    -18623.75    1439.1561   -20062.906    6.3827573   0.94393226 
    1700    234.51973   -287.53818    216009.12    -18628.93    1363.8637   -19992.793    6.6896928   0.94393226 
    1800    240.94619    -311.5379    216009.12   -18603.354    1401.2371   -20004.591    7.2761121   0.94393226 
    1900    247.83685   -290.42812    216009.12    -18564.31    1441.3102    -20005.62    7.6642645   0.94393226 
    2000    244.80113   -439.71346    216009.12   -18541.815    1423.6558   -19965.471    8.2169694   0.94393226 
    2100    241.00752    -346.3456    216009.12   -18634.938    1401.5938   -20036.532    8.4149253   0.94393226 
    2200    247.61107   -256.19491    216009.12   -18633.291    1439.9971   -20073.288    8.8770586   0.94393226 
    2300    242.16021   -180.58054    216009.12   -18615.403    1408.2973     -20023.7    9.1587228   0.94393226 
    2400    241.26374   -246.88257    216009.12   -18622.296    1403.0838    -20025.38    9.5629583   0.94393226 
    2500    239.28121   -424.82118    216009.12   -18635.575    1391.5543    -20027.13    10.036614   0.94393226 
    2600    239.22724   -413.80666    216009.12   -18628.615    1391.2405   -20019.856    10.152519   0.94393226 
    2700    240.34252   -247.78066    216009.12   -18618.148    1397.7265   -20015.874     10.48064   0.94393226 
    2800    246.70923   -362.56303    216009.12   -18581.341    1434.7525   -20016.093    10.775255   0.94393226 
    2900    240.33775   -299.01838    216009.12    -18586.19    1397.6987   -19983.889    11.249608   0.94393226 
    3000    246.58467   -283.32811    216009.12   -18582.306    1434.0281   -20016.334    11.733792   0.94393226 
    3100     250.6315   -319.62744    216009.12   -18585.503    1457.5626   -20043.066    11.917346   0.94393226 
    3200    235.99792   -348.67746    216009.12   -18639.823    1372.4601   -20012.283    12.314513   0.94393226 
    3300    229.55893   -464.68947    216009.12   -18711.969    1335.0138   -20046.983    12.750187   0.94393226 
    3400     242.6084   -179.09485    216009.12   -18658.061    1410.9038   -20068.965    13.099216   0.94393226 
    3500    236.63256   -301.49534    216009.12   -18649.558     1376.151   -20025.709    13.394964   0.94393226 
    3600     242.8603   -236.24195    216009.12   -18644.295    1412.3688   -20056.663    13.660442   0.94393226 
    3700    242.29597   -355.66413    216009.12   -18634.554    1409.0869   -20043.641    13.938016   0.94393226 
    3800    235.44752   -209.70624    216009.12   -18615.407    1369.2593   -19984.667    14.227208   0.94393226 
    3900    237.05258   -438.93553    216009.12   -18616.629    1378.5936   -19995.222    14.555196   0.94393226 
    4000    238.22098   -260.28772    216009.12   -18661.401    1385.3885    -20046.79    14.964922   0.94393226 
    4100    239.78516   -305.54589    216009.12   -18640.233    1394.4851   -20034.718    15.319671   0.94393226 
    4200    240.04634   -190.16124    216009.12   -18609.769     1396.004   -20005.773    15.718083   0.94393226 
    4300    237.46684   -228.20963    216009.12    -18649.54    1381.0027   -20030.543      16.0763   0.94393226 
    4400    241.86331   -254.45684    216009.12   -18622.835    1406.5707   -20029.405    16.327523   0.94393226 
    4500    244.21174   -522.88471    216009.12   -18656.651    1420.2281   -20076.879    16.732391   0.94393226 
    4600    233.77315    -274.8879    216009.12   -18691.838    1359.5219    -20051.36    16.768387   0.94393226 
    4700    236.81651   -342.75925    216009.12   -18609.153    1377.2207   -19986.373    17.182061   0.94393226 
    4800    237.57743   -289.96324    216009.12   -18564.613    1381.6459   -19946.259    17.420943   0.94393226 
    4900    246.98404   -329.78728    216009.12     -18513.6    1436.3506   -19949.951    17.674158   0.94393226 
    5000    238.42617   -287.37725    216009.12    -18553.65    1386.5818   -19940.232    18.217215   0.94393226 
    5100    241.83264   -297.98529    216009.12   -18554.813    1406.3923   -19961.206    18.212342   0.94393226 
    5200    238.69864   -262.20314    216009.12   -18584.121    1388.1664   -19972.287    18.470927   0.94393226 
    5300    231.18412   -359.72281    216009.12   -18649.001    1344.4652   -19993.467    18.583318   0.94393226 
    5400    235.71575   -332.20837    216009.12   -18630.977    1370.8192   -20001.796    18.967508   0.94393226 
    5500    236.42914   -307.20181    216009.12   -18613.113     1374.968   -19988.081    19.164178   0.94393226 
    5600    233.95578   -250.91024    216009.12   -18652.114     1360.584   -20012.698    19.849638   0.94393226 
    5700    236.39793   -334.72573    216009.12   -18609.949    1374.7865   -19984.735     20.08393   0.94393226 
    5800    235.86153   -381.89746    216009.12   -18601.706    1371.6669   -19973.372    20.640585   0.94393226 
    5900     238.9845   -393.61813    216009.12    -18633.21    1389.8288   -20023.039    20.795529   0.94393226 
    6000    239.47174   -328.36589    216009.12   -18649.926    1392.6624   -20042.589    21.199406   0.94393226 
    6100    235.18047   -346.11709    216009.12   -18686.314    1367.7063    -20054.02    21.686107   0.94393226 
    6200    234.92989   -350.49482    216009.12   -18679.582    1366.2489   -20045.831    21.893541   0.94393226 
    6300    244.94966   -352.47551    216009.12   -18612.023    1424.5195   -20036.543    22.140172   0.94393226 
    6400    238.24295   -227.91961    216009.12   -18636.706    1385.5162   -20022.222    22.719047   0.94393226 
    6500    232.00302   -241.13069    216009.12   -18646.944    1349.2276   -19996.172    23.192839   0.94393226 
    6600      235.256   -238.05712    216009.12   -18670.828    1368.1455   -20038.974    23.685492   0.94393226 
    6700    234.98267   -299.05314    216009.12   -18679.089    1366.5559   -20045.645     24.13508   0.94393226 
    6800     232.6721   -414.07056    216009.12   -18666.296    1353.1187   -20019.414    24.549324   0.94393226 
    6900    234.30066   -352.48934    216009.12   -18622.414    1362.5896   -19985.003    24.684425   0.94393226 
    7000    243.08697   -413.68539    216009.12   -18607.138    1413.6869   -20020.825    25.028984   0.94393226 
    7100    240.12585   -246.20648    216009.12   -18616.188    1396.4664   -20012.654    25.162126   0.94393226 
    7200    239.25539    -267.5956    216009.12   -18671.121    1391.4042   -20062.526    25.737246   0.94393226 
    7300    232.73876   -189.26337    216009.12   -18688.692    1353.5063   -20042.198    26.082858   0.94393226 
    7400    237.21092   -329.16734    216009.12    -18649.11    1379.5144   -20028.625    26.429777   0.94393226 
    7500    241.37054   -203.39953    216009.12   -18629.626     1403.705   -20033.331    26.642865   0.94393226 
    7600     239.5476   -302.17283    216009.12   -18590.939    1393.1035   -19984.042    27.217708   0.94393226 
    7700    243.20465   -323.92451    216009.12   -18602.895    1414.3713   -20017.267    27.723105   0.94393226 
    7800     233.5122   -335.73746    216009.12   -18664.578    1358.0043   -20022.582    27.796884   0.94393226 
    7900    237.88646   -307.57842    216009.12   -18640.893    1383.4431   -20024.336    28.087081   0.94393226 
    8000    244.46364   -351.71636    216009.12   -18579.612     1421.693   -20001.305    28.259337   0.94393226 
    8100    242.39931   -193.61999    216009.12   -18562.247    1409.6878   -19971.935    28.475822   0.94393226 
    8200     246.7052   -329.19354    216009.12   -18578.676     1434.729   -20013.405    28.812781   0.94393226 
    8300    243.93802   -290.44672    216009.12   -18546.881    1418.6363   -19965.517     29.18993   0.94393226 
    8400    245.71978    -270.2657    216009.12   -18535.696    1428.9982   -19964.695    29.827173   0.94393226 
    8500    249.05453   -396.70411    216009.12   -18571.735    1448.3916   -20020.127    29.955915   0.94393226 
    8600    236.77953   -322.75459    216009.12   -18604.215    1377.0057    -19981.22    30.319294   0.94393226 
    8700    242.28832   -153.24508    216009.12   -18624.046    1409.0424   -20033.088    31.006904   0.94393226 
    8800    241.14028   -358.56605    216009.12   -18638.528    1402.3659   -20040.894      31.2391   0.94393226 
    8900     240.8074   -242.27286    216009.12   -18667.941      1400.43   -20068.371    31.314072   0.94393226 
    9000    243.36058   -265.77951    216009.12   -18644.626    1415.2782   -20059.904    31.487182   0.94393226 
    9100    241.43189   -379.55446    216009.12   -18682.248    1404.0618    -20086.31    32.145571   0.94393226 
    9200    243.41081   -207.50722    216009.12   -18638.524    1415.5703   -20054.094     32.68822   0.94393226 
    9300    225.21696   -358.69414    216009.12   -18699.324    1309.7628   -20009.087    33.210401   0.94393226 
    9400    230.11776   -243.89617    216009.12   -18685.983    1338.2637   -20024.247     33.66957   0.94393226 
    9500    239.10163   -524.58764    216009.12   -18709.575    1390.5099   -20100.085    34.201775   0.94393226 
    9600    235.36007   -363.19594    216009.12   -18726.175    1368.7507   -20094.926    34.323285   0.94393226 
    9700    232.44649   -294.23113    216009.12    -18688.44    1351.8066   -20040.246    34.383084   0.94393226 
    9800    241.66889   -248.27864    216009.12   -18634.539      1405.44   -20039.979    34.405841   0.94393226 
    9900    235.26696   -181.30699    216009.12   -18653.377    1368.2092   -20021.587    34.389094   0.94393226 
   10000    235.90891   -248.56074    216009.12    -18655.68    1371.9425   -20027.623    34.424034   0.94393226 
Loop time of 14.7991 on 160 procs for 10000 steps with 9248 atoms

Performance: 291.909 ns/day, 0.082 hours/ns, 675.716 timesteps/s
97.6% CPU use with 160 MPI tasks x no OpenMP threads

MPI task timing breakdown:
Section |  min time  |  avg time  |  max time  |%varavg| %total
---------------------------------------------------------------
Pair    | 0.00042963 | 2.973      | 12.468     | 237.8 | 20.09
Neigh   | 0.00033331 | 0.095636   | 0.38083    |  39.4 |  0.65
Comm    | 0.014718   | 3.588      | 11.769     | 220.2 | 24.24
Output  | 0.17601    | 0.17619    | 0.18296    |   0.1 |  1.19
Modify  | 0.35459    | 7.8128     | 14.477     | 222.3 | 52.79
Other   |            | 0.1535     |            |       |  1.04

Nlocal:    57.8 ave 196 max 0 min
Histogram: 72 22 26 0 0 0 0 0 13 27
Nghost:    534.862 ave 931 max 0 min
Histogram: 24 0 0 8 8 45 27 16 23 9
Neighs:    0 ave 0 max 0 min
Histogram: 160 0 0 0 0 0 0 0 0 0
FullNghs:  5906.16 ave 23668 max 0 min
Histogram: 103 17 0 0 0 0 0 2 21 17

Total # of neighbors = 944986
Ave neighs/atom = 102.183
Neighbor list builds = 572
Dangerous builds = 0
write_data 	    ${DIR}/data.${NAME}_eq
write_data 	    run_5/data.${NAME}_eq
write_data 	    run_5/data.ibeam_cooling_5_eq

undump              1
unfix               4



################################################
#######         Run Simulation         #########
################################################

reset_timestep      0
timestep	    10.0
log                 ${DIR}/log.run_${NAME}
log                 run_5/log.run_${NAME}
log                 run_5/log.run_ibeam_cooling_5
