
# Set production fixes - Nose/Hoover
#
fix                 4 water temp/csvr ${START_TEMP} ${END_TEMP} 500.0 928347
fix                 4 water temp/csvr 240 ${END_TEMP} 500.0 928347
fix                 4 water temp/csvr 240 227 500.0 928347


## divide "droplet" into core and surface
#region		core_reg cylinder z 135 135 44.6 20 INF units box
#region		surface_reg cylinder z 135 135 44.6 20 INF units box side out
#group		core dynamic all region core_reg
#group		surface dynamic all region surface_reg

## compute pressure core
#compute        peratom_core core stress/atom NULL
#compute        p_core core reduce sum c_peratom_core[1] c_peratom_core[2] c_peratom_core[3]
#variable       press_core equal -(c_p_core[1]+c_p_core[2]+c_p_core[3])/(3*1249982.5)


## compute pressure surface
#compute        peratom_surf surface stress/atom NULL
#compute        p_surf surface reduce sum c_peratom_surf[1] c_peratom_surf[2] #c_peratom_surf[3]
#variable       press_surf equal -(c_p_surf[1]+c_p_surf[2]+c_p_surf[3])/(3*42395)

## compute total pressure of drop
compute        peratom water stress/atom NULL
compute        p water reduce sum c_peratom[1] c_peratom[2] c_peratom[3]
variable       press equal -(c_p[1]+c_p[2]+c_p[3])/(3*50320)


# compute order parameter
compute        3 all orientorder/atom nnn NULL cutoff 3.5

# compute center of mass of bridge
compute 	4 water com

# Run simulation
thermo_style        custom step c_2 press vol etotal ke pe v_press c_1[4] c_4[*]
thermo              200
dump		     1 water custom 400 ${DIR}/prod.${NAME}.dump id type x y z vx vy vz c_3[*] c_peratom[*]
dump		     1 water custom 400 run_5/prod.${NAME}.dump id type x y z vx vy vz c_3[*] c_peratom[*]
dump		     1 water custom 400 run_5/prod.ibeam_cooling_5.dump id type x y z vx vy vz c_3[*] c_peratom[*]
run                 ${STEPS}
run                 5200000
Neighbor list info ...
  update every 1 steps, delay 0 steps, check yes
  max neighbors/atom: 2000, page size: 100000
  master list distance cutoff = 6.67472
  ghost atom cutoff = 6.67472
  binsize = 3.33736, bins = 48 13 11
  2 neighbor lists, perpetual/occasional/extra = 1 1 0
  (1) pair sw, perpetual
      attributes: full, newton on
      pair build: full/bin/atomonly
      stencil: full/bin/3d
      bin: standard
  (2) compute orientorder/atom, occasional, copy from (1)
      attributes: full, newton on
      pair build: copy
      stencil: none
      bin: none
Per MPI rank memory allocation (min/avg/max) = 0.8531 | 5.953 | 7.261 Mbytes
Step c_2 Press Volume TotEng KinEng PotEng v_press c_1[4] c_4[1] c_4[2] c_4[3] 
       0    235.90891   -248.56074    216009.12    -18655.68    1371.9425   -20027.623   -496.58993    34.424034    78.746796    22.593896    25.515935 
     200    241.20884   -399.36728    216009.12   -18685.233    1402.7646   -20087.998   -1127.3495    35.253162    78.747138    22.591277     25.53721 
     400    244.04971    -389.7255    216009.12   -18652.094    1419.2858    -20071.38   -1082.2597    36.647737    78.745767    22.591843    25.533633 
     600    250.64019   -316.08749    216009.12   -18544.465    1457.6132   -20002.078   -817.00475    38.620981    78.747749    22.591478    25.517749 
     800    242.90723   -381.04304    216009.12   -18534.689    1412.6417    -19947.33   -1061.0387    41.316715     78.74903    22.590889    25.528012 
    1000    238.74549    -209.8725    216009.12    -18630.91    1388.4388   -20019.349   -328.37771    43.016128    78.747632    22.590765    25.551332 
    1200    245.39288   -520.44838    216009.12   -18577.869    1427.0971   -20004.966   -1615.8498    44.641962    78.747625    22.588893    25.564634 
    1400    238.76466   -161.58243    216009.12   -18580.094    1388.5503   -19968.645   -111.95781    45.715783    78.745149    22.588942    25.550866 
    1600    234.47106   -313.12918    216009.12     -18561.4    1363.5806   -19924.981   -785.15398    47.919574    78.744451    22.586341    25.531647 
    1800    245.00489   -333.93755    216009.12   -18517.329    1424.8407    -19942.17   -823.27131    49.492725    78.742922    22.584969    25.532962 
    2000    250.86546   -287.74001    216009.12   -18473.997    1458.9232    -19932.92   -646.44839     50.04489    78.742333    22.585122    25.536397 
    2200    239.41784   -270.26718    216009.12   -18552.758    1392.3489   -19945.107   -573.07412    51.619607    78.742675    22.585347    25.548774 
    2400    244.80292    -311.1952    216009.12   -18523.324    1423.6661    -19946.99   -732.14404    53.905822    78.743212     22.58727    25.552745 
    2600    239.97045   -322.24905    216009.12   -18579.831    1395.5626   -19975.393   -784.80966    56.259569    78.742008    22.587408    25.560584 
    2800    245.72033    -328.6477    216009.12   -18516.771    1429.0014   -19945.772   -843.78073    57.890699    78.743581    22.584153    25.536282 
    3000     246.6141    -142.4127    216009.12    -18539.56    1434.1992   -19973.759   -45.056349    58.860453    78.742939    22.582319    25.544519 
    3200    237.07612   -260.33608    216009.12   -18595.984    1378.7305   -19974.714   -541.22471    60.527921    78.741553    22.582928     25.54744 
    3400     238.9936   -375.23119    216009.12   -18596.124    1389.8817   -19986.006   -1020.3428    62.002528    78.739493    22.581586    25.538201 
    3600    243.45883   -353.41079    216009.12   -18580.921    1415.8495    -19996.77   -960.66052     63.28011    78.740304    22.581186    25.555896 
    3800    239.75851   -269.85256    216009.12   -18575.857    1394.3301   -19970.187   -605.27105    63.804268    78.738011    22.582355    25.569346 
    4000    238.73233   -286.52882    216009.12   -18647.379    1388.3623   -20035.741   -652.75438    65.042299     78.73694    22.582134    25.571066 
    4200    237.80874   -372.74757    216009.12   -18561.932    1382.9911   -19944.923   -1015.2132    67.363531    78.736871    22.582386    25.575488 
    4400    238.85252   -318.75919    216009.12   -18566.621    1389.0612   -19955.683   -792.18943    69.660307    78.737253    22.582159    25.559891 
    4600    233.28473   -349.35567    216009.12   -18646.933    1356.6814   -20003.614   -941.67818     71.19553    78.737277    22.582844    25.569178 
    4800      241.582   -319.00718    216009.12   -18501.597    1404.9347   -19906.531   -775.44395    73.498455     78.73747    22.582392    25.560496 
    5000    244.86384   -293.98487    216009.12   -18535.228    1424.0205   -19959.248   -666.23197    75.440132    78.734842    22.582608    25.554653 
    5200    237.78713   -190.73837    216009.12   -18584.715    1382.8654    -19967.58   -199.57238    75.025286    78.735317    22.585011    25.545946 
    5400    237.77933    -261.7325    216009.12   -18616.883    1382.8201   -19999.703   -570.57338     75.52289    78.735619    22.585275    25.551282 
    5600     234.0685   -197.55124    216009.12   -18621.486    1361.2395   -19982.725   -283.11384    76.937981    78.735211    22.587622    25.578754 
    5800     242.6702   -253.31374    216009.12   -18532.341    1411.2632   -19943.604   -512.21097    77.650822    78.734881     22.58787     25.60363 
    6000    238.73902   -190.08097    216009.12   -18562.313    1388.4012   -19950.714   -266.26101    78.948825    78.735034    22.585538    25.610707 
    6200    236.13666    -156.0955    216009.12   -18580.732     1373.267   -19953.999   -66.665266    80.842355    78.733685    22.585226    25.617422 
    6400     242.9353    -177.3866    216009.12   -18557.825    1412.8049    -19970.63   -221.83858    82.344551    78.736365    22.583847    25.613681 
    6600    242.00214   -243.10246    216009.12   -18631.179     1407.378   -20038.557   -504.07348    83.321292    78.738355    22.582462    25.616864 
    6800    237.90833   -235.75334    216009.12   -18622.782    1383.5703   -20006.352   -407.74438    84.480623    78.739133     22.58155    25.619378 
    7000    238.83769   -281.00296    216009.12   -18593.925     1388.975     -19982.9   -680.95346    85.468128     78.74135    22.580705    25.607631 
    7200    235.08297   -192.86143    216009.12   -18658.677    1367.1392   -20025.816   -219.86828    86.306792      78.7429    22.579844     25.61664 
    7400    240.17505   -435.92683    216009.12   -18638.495    1396.7525   -20035.248   -1264.4434    87.260474    78.742517    22.581963    25.635497 
    7600    238.31616     -335.595    216009.12   -18592.477     1385.942   -19978.419   -893.83199    87.425077    78.742183    22.581043    25.647105 
    7800    229.41743   -452.47283    216009.12   -18687.128    1334.1909   -20021.319   -1381.2622    88.347842    78.741237    22.580346    25.654144 
    8000     242.8982   -245.20626    216009.12   -18538.808    1412.5891   -19951.397   -444.49047     90.63212    78.741788    22.581828    25.644694 
    8200    242.54646   -289.81167    216009.12   -18566.652    1410.5436   -19977.195   -676.39416    93.038868    78.744237    22.581997    25.648699 
    8400      240.385   -195.39236    216009.12   -18526.033    1397.9735   -19924.007    -301.5292    95.093577    78.743613    22.578438    25.645101 
    8600    241.92045   -290.86847    216009.12   -18554.285     1406.903   -19961.188   -624.43889    96.785723    78.742811    22.576444    25.649157 
    8800     241.8872   -333.96609    216009.12   -18586.475    1406.7096   -19993.184   -835.78459     97.57998      78.7441    22.573673    25.640725 
    9000    238.35669    -247.0042    216009.12   -18574.385    1386.1777   -19960.562   -457.74082    98.327816    78.746254    22.572126    25.625692 
    9200    245.48172   -393.11839    216009.12   -18579.127    1427.6138   -20006.741   -1119.3416    100.08778    78.747622    22.573173    25.631943 
    9400    240.81355   -304.15256    216009.12   -18599.022    1400.4657   -19999.487   -719.85377     102.4315    78.748974      22.5745    25.606837 
    9600    237.99278   -411.33762    216009.12   -18635.772    1384.0614   -20019.833   -1189.0881    102.93783    78.749931    22.573925    25.592844 
    9800    242.43211   -467.67824    216009.12   -18508.796    1409.8786   -19918.675   -1431.9098    104.67517    78.748725    22.571537    25.591041 
   10000    241.13343    -306.4732    216009.12   -18563.957    1402.3261   -19966.283   -745.56552    105.60232    78.748314    22.571874    25.580958 
   10200    243.36636   -256.03209    216009.12   -18484.262    1415.3118   -19899.574   -548.91562    106.80148    78.752431     22.57363    25.582173 
   10400    244.46667   -261.20552    216009.12   -18483.325    1421.7107   -19905.036   -565.97579    107.82017     78.75275     22.57411     25.59769 
   10600    237.87231   -265.46238    216009.12   -18568.108    1383.3608   -19951.468   -520.27783    110.15549    78.751674    22.575706    25.614701 
   10800    239.33662   -255.17675    216009.12   -18606.058    1391.8766   -19997.935   -490.47384    112.83898    78.752022    22.574845    25.590242 
   11000    233.14678   -258.52901    216009.12    -18644.92    1355.8792   -20000.799   -544.74493    114.88079    78.753055    22.573393    25.576221 
   11200    239.74199    -221.4034    216009.12   -18635.842     1394.234   -20030.076   -384.13309     117.0495    78.751131    22.572282    25.570339 
   11400    238.98634   -296.94619    216009.12   -18621.306    1389.8395   -20011.146   -667.14816     119.6624    78.751261    22.575454     25.56398 
   11600    238.87965   -70.689426    216009.12   -18571.583    1389.2191   -19960.802    297.33966    122.18885    78.753721    22.576275    25.549613 
   11800    243.74927   -323.56618    216009.12   -18558.537    1417.5386   -19976.076   -797.53849    124.60595    78.755072    22.576456    25.561202 
   12000    246.88261   -343.23582    216009.12   -18552.262    1435.7607   -19988.023   -902.79925    125.37355    78.752499    22.579238    25.572306 
   12200    241.11878   -460.99124    216009.12   -18574.251    1402.2409   -19976.492   -1401.2497    126.35169    78.752451    22.580477    25.574401 
   12400    241.11903   -355.00856    216009.12   -18592.844    1402.2423   -19995.086   -951.20979    127.64087    78.752542    22.579067    25.572294 
   12600    241.28149   -246.70878    216009.12   -18528.275    1403.1871   -19931.462   -506.98381    129.97579    78.749251    22.579257    25.560149 
   12800    244.60527   -337.88132    216009.12   -18564.215    1422.5167   -19986.732   -849.65093    130.24258    78.746326    22.578498     25.54399 
   13000    239.95061   -433.73618    216009.12   -18572.344    1395.4473   -19967.791   -1254.3493    131.69471    78.746844    22.578723    25.538613 
   13200    233.48782   -267.15945    216009.12     -18614.8    1357.8625   -19972.663   -612.32303    133.89848    78.746161    22.578377    25.498824 
   13400    233.32516   -352.43078    216009.12   -18668.702    1356.9166   -20025.619   -911.58416    135.02403    78.745583    22.580529    25.497144 
   13600     235.7345   -220.66909    216009.12   -18647.816    1370.9282   -20018.745    -380.5932    136.55242     78.74406    22.580568     25.47913 
   13800    244.04863   -343.99484    216009.12   -18581.347    1419.2796   -20000.627   -885.97732    139.09071    78.743807    22.582326    25.514661 
   14000    243.95449   -390.68427    216009.12   -18536.938    1418.7321    -19955.67   -1084.8442    138.86977    78.743221    22.580884    25.511175 
   14200    237.79827   -217.23153    216009.12   -18605.184    1382.9302   -19988.114   -341.07508    139.31118    78.744805    22.580477    25.528691 
   14400    238.38595   -343.36821    216009.12   -18651.039    1386.3479   -20037.387   -885.53659    141.28113    78.744828    22.578553    25.536164 
   14600    236.93823   -318.11245    216009.12   -18634.414    1377.9286   -20012.342    -788.6529    142.61985     78.74393    22.575016    25.532785 
   14800    240.97661   -296.17692    216009.12   -18572.545     1401.414   -19973.959   -649.69963    143.97659      78.7446    22.573821    25.522059 
   15000    246.89397   -296.48765    216009.12   -18591.878    1435.8268   -20027.705   -708.86127    145.54163    78.743199    22.572114     25.53732 
   15200    238.64686   -279.66729    216009.12   -18563.015    1387.8652    -19950.88   -637.85002    147.52414    78.742663    22.573961    25.546051 
   15400    235.91649   -323.83786    216009.12   -18625.461    1371.9866   -19997.448    -795.3869    149.70987    78.744115    22.577199    25.537184 
   15600    246.64786   -287.26744    216009.12   -18464.195    1434.3955    -19898.59   -613.91849    149.79047     78.74067    22.578844    25.551679 
   15800    248.10097   -283.44996    216009.12   -18527.618    1442.8462   -19970.464   -656.21759    150.88061    78.740872    22.578466    25.545156 
   16000    239.80778   -356.81068    216009.12   -18577.683    1394.6166     -19972.3   -967.10312    152.92141    78.740518    22.577368    25.544949 
   16200    232.32417   -170.32747    216009.12   -18560.475    1351.0953    -19911.57   -118.66851    154.90593    78.739708    22.576412    25.545543 
   16400    236.92736   -390.40847    216009.12   -18583.845    1377.8654    -19961.71   -1074.6942    156.21886    78.740344    22.577338    25.515298 
   16600    246.91967   -177.95493    216009.12   -18524.778    1435.9763   -19960.755   -201.19515    157.07964    78.740076    22.577032    25.511916 
   16800    237.24761   -444.67039    216009.12   -18558.257    1379.7278   -19937.985   -1263.4067    158.26423    78.740239    22.578173    25.518316 
   17000    228.81222   -508.41532    216009.12   -18588.786    1330.6713   -19919.457    -1549.944    160.20708    78.743811    22.578003     25.52476 
   17200    237.33156   -246.45421    216009.12   -18595.286     1380.216   -19975.502   -476.95748    162.94958    78.742555    22.577614    25.532533 
   17400    237.75557   -497.78242    216009.12   -18631.852    1382.6819   -20014.534   -1528.8957    163.91683    78.742828    22.577292    25.527376 
   17600    235.12773    -386.5904    216009.12   -18562.635    1367.3995   -19930.034   -1059.7637    164.06259    78.742159    22.578208    25.518668 
   17800    234.74984   -397.96973    216009.12   -18572.856    1365.2019   -19938.058   -1119.2797    167.15843    78.739539    22.578159     25.53599 
   18000    239.52889   -238.71049    216009.12   -18520.293    1392.9948   -19913.288    -488.4889    168.58884    78.736203    22.578263    25.534307 
   18200    244.82098   -120.99689    216009.12   -18514.437    1423.7712   -19938.208    96.208025    169.56604     78.73411    22.576957    25.552322 
   18400     237.7426   -272.61325    216009.12   -18500.466    1382.6064   -19883.073   -585.63766    170.64663    78.732087    22.578546    25.548761 
   18600    240.94862   -150.85455    216009.12   -18536.222    1401.2513   -19937.474   -46.734829    173.45539    78.729736    22.580522    25.541868 
   18800    245.13513   -260.03393    216009.12   -18595.264    1425.5982   -20020.862   -542.15591    175.89772    78.732628    22.580377    25.545305 
   19000    241.90277   -353.07046    216009.12    -18525.75    1406.8002    -19932.55   -866.92358    177.57913      78.7311    22.581477    25.541401 
   19200    236.91867   -390.29963    216009.12   -18544.098    1377.8149   -19921.912   -1086.0278    178.45482     78.72955    22.582348     25.56288 
   19400    246.12674   -300.42806    216009.12   -18516.118    1431.3649   -19947.483   -675.84794    178.85334     78.72899    22.581426    25.579296 
   19600    243.13682   -240.71299    216009.12   -18521.181    1413.9768   -19935.158   -420.95861    181.76984    78.731173    22.578969    25.579611 
   19800    241.57871   -462.44215    216009.12   -18524.268    1404.9156   -19929.184   -1404.4735    183.54216    78.733977     22.57719    25.578316 
   20000    244.16928   -191.62845    216009.12    -18576.72    1419.9812   -19996.702   -226.20636    186.40934    78.736624    22.575667    25.598977 
   20200     241.3449   -229.65572    216009.12   -18627.593    1403.5558   -20031.149   -362.56491    190.35805    78.735076    22.575506    25.586184 
   20400    247.14262   -449.70299    216009.12   -18555.147    1437.2728    -19992.42   -1312.4307    193.03402    78.735569    22.573258    25.583566 
   20600    244.48171   -193.03375    216009.12   -18670.423    1421.7982   -20092.221    -271.8876    194.21563    78.737265    22.571672    25.559662 
   20800    241.55594   -317.25938    216009.12   -18609.827    1404.7832   -20014.611   -789.81992    198.70247    78.739177    22.573033    25.587102 
   21000     235.6671   -230.59616    216009.12   -18615.406    1370.5362   -19985.943   -430.61973    200.18749    78.736898    22.572441    25.576891 
   21200    244.70715   -283.02977    216009.12   -18554.288    1423.1092   -19977.397   -571.00002    200.25102    78.737664    22.573831    25.559587 
   21400    243.04218   -366.74975    216009.12   -18587.231    1413.4265   -20000.658   -953.79262     201.8807    78.735649     22.57348     25.55709 
   21600    247.21343   -317.15953    216009.12   -18475.359    1437.6846   -19913.044   -811.23767    202.24749    78.735061    22.575163    25.554375 
   21800    243.31302   -114.00009    216009.12   -18588.125    1415.0016   -20003.127    61.287588    203.55526    78.734696    22.576064    25.546905 
   22000    228.04829   -288.41662    216009.12   -18649.088    1326.2286   -19975.316   -699.59735    205.26773    78.733883     22.57527    25.548416 
   22200    231.13674    -349.4418    216009.12   -18649.244    1344.1896   -19993.434    -910.6508    208.09883    78.732938    22.574047    25.553421 
   22400    241.48021   -266.55979    216009.12   -18513.946    1404.3428   -19918.289   -496.57607    211.22042    78.732927    22.575545    25.565264 
   22600     244.2077   -317.87948    216009.12   -18518.906    1420.2046   -19939.111   -765.61053    213.23576    78.732059    22.577134    25.540622 
   22800     245.9165   -284.63934    216009.12   -18529.544    1430.1423   -19959.687   -621.94969    214.73102    78.730467     22.57764    25.555277 
   23000    241.43993   -291.04916    216009.12   -18621.024    1404.1085   -20025.132   -657.39645    214.19986    78.730729    22.576836    25.581172 
   23200    242.57826   -276.55268    216009.12   -18600.942    1410.7285   -20011.671   -638.05656    214.16585      78.7321    22.575575    25.593533 
   23400    235.56622   -352.13616    216009.12   -18635.502    1369.9496   -20005.452   -930.60475    212.55804    78.732754     22.57528    25.610052 
   23600    242.18823   -370.32458    216009.12   -18582.895    1408.4603   -19991.355   -970.65548    213.25722    78.733624    22.575338    25.607466 
   23800    242.38164   -179.43518    216009.12   -18593.443    1409.5851   -20003.028   -240.64648    215.15303    78.734312     22.57688    25.589813 
   24000    243.96961   -270.42526    216009.12    -18635.71      1418.82    -20054.53    -576.7168    218.76758    78.733442    22.574175    25.584567 
   24200    240.12771   -319.13399    216009.12   -18635.353    1396.4772    -20031.83   -744.50776    220.95371     78.73367    22.572783    25.591891 
   24400    243.24796   -196.70346    216009.12    -18668.02    1414.6232   -20082.643   -279.23696    222.34347    78.733708    22.571577     25.60179 
   24600    236.12833   -435.08532    216009.12   -18696.451    1373.2185    -20069.67   -1278.1209    224.76354    78.735039    22.570612     25.60674 
   24800    232.97163   -375.29381    216009.12   -18677.727    1354.8606   -20032.587   -1047.4634    227.31729    78.733826    22.571017    25.592425 
   25000    229.85913     -412.375    216009.12   -18663.583    1336.7597   -20000.343   -1212.4994    227.08483    78.732362    22.571195    25.570989 
   25200    236.20582   -245.31131    216009.12   -18766.949    1373.6692   -20140.619   -467.20723    226.09839    78.729719    22.572058    25.571618 
   25400    236.29609   -369.08328    216009.12   -18697.518    1374.1942   -20071.713   -965.09148    228.01945    78.728838    22.570821    25.569264 
   25600    243.29285   -313.92109    216009.12   -18543.082    1414.8843   -19957.966   -777.48072     229.0105    78.730361    22.569596    25.561455 
   25800    241.77192   -277.09836    216009.12   -18548.032    1406.0392   -19954.071   -611.17505    230.38325     78.73214    22.572905    25.558153 
   26000    240.80369   -452.56877    216009.12   -18606.342    1400.4084    -20006.75   -1330.4431     233.5665    78.733136     22.57656    25.567974 
   26200    242.62247   -342.61531    216009.12   -18627.366    1410.9856   -20038.352   -916.54959    236.04659    78.731718     22.57618     25.54101 
   26400    232.31941   -246.39753    216009.12   -18636.161    1351.0676   -19987.229   -462.16411     235.9536    78.727506    22.576943    25.552322 
   26600    248.06374   -350.81297    216009.12   -18487.659    1442.6297   -19930.289   -883.92401    234.92508    78.727895    22.580446     25.54574 
   26800    237.67458   -252.72635    216009.12   -18529.941    1382.2109   -19912.152    -519.5573    236.04681    78.727065    22.583251    25.554673 
   27000    248.12457    -299.8232    216009.12   -18522.359    1442.9834   -19965.342   -675.02949    240.15995    78.727765    22.585135    25.537939 
   27200     237.3289   -244.94871    216009.12   -18579.325    1380.2006   -19959.526   -465.90667    242.57418    78.726002    22.587988     25.51181 
   27400    237.29223    -176.1138    216009.12   -18540.967    1379.9873   -19920.954   -198.84463    242.13671    78.727914    22.589206    25.502288 
   27600    230.36766   -189.63854    216009.12   -18671.489     1339.717   -20011.206   -239.97386    244.77251    78.726983    22.589553    25.499946 
   27800    236.48419    -279.9042    216009.12   -18559.773    1375.2881   -19935.061   -631.38937    247.09325    78.727011    22.588933    25.506677 
   28000     235.4317   -244.31911    216009.12   -18616.675    1369.1673   -19985.842   -476.90232       249.58    78.724534     22.58947    25.497101 
   28200    242.73985   -168.41971    216009.12   -18569.302    1411.6683   -19980.971   -187.48694    251.44227    78.721454    22.590039    25.474389 
   28400    238.56556   -280.65898    216009.12   -18582.768    1387.3924   -19970.161   -596.61383    251.62399    78.719972    22.588372    25.475097 
   28600    240.39513   -268.97877    216009.12   -18565.427    1398.0324   -19963.459   -613.52132    250.70942    78.720681    22.589133     25.47729 
   28800    241.35129   -299.92638    216009.12    -18585.19     1403.593   -19988.783    -699.2058      249.489    78.720799    22.587944    25.451949 
   29000    230.24432   -167.81752    216009.12   -18565.654    1338.9997   -19904.654   -165.41159    248.04001     78.71931    22.587208    25.438476 
   29200    242.06245   -318.37929    216009.12    -18516.97    1407.7288   -19924.699   -762.33962    251.86247     78.71806    22.588114    25.449843 
   29400    240.82222   -325.04863    216009.12   -18539.997    1400.5162   -19940.513    -817.9009    254.65219    78.720064    22.587887    25.439626 
   29600    244.99385   -428.35188    216009.12   -18538.061    1424.7765   -19962.837    -1215.349    258.63501    78.722217     22.58782    25.433844 
   29800    234.43921   -272.79362    216009.12   -18610.019    1363.3954   -19973.414   -618.26286    261.57695    78.721934    22.586704    25.431319 
   30000     233.1744    -357.9911    216009.12   -18657.655    1356.0398   -20013.695   -912.89041    261.42368    78.723296    22.585958    25.462685 
   30200    239.72192   -318.90007    216009.12   -18600.605    1394.1173   -19994.722   -773.68073    262.45113    78.723944    22.585883    25.458865 
   30400    240.75354   -292.95441    216009.12    -18558.75    1400.1168   -19958.867   -672.75522     263.9976    78.722864    22.583805    25.436679 
   30600     237.0086    -322.5419    216009.12   -18607.453    1378.3378   -19985.791   -778.51434    268.53139    78.720825    22.582494    25.417597 
   30800    244.79171   -329.12467    216009.12   -18572.567     1423.601   -19996.168   -810.12545    271.20194    78.719244    22.581441    25.417034 
   31000    245.59157    -337.2614    216009.12   -18589.454    1428.2526   -20017.707   -899.16789    274.04304    78.716335    22.580847    25.433496 
   31200    234.62832   -348.15852    216009.12   -18599.165    1364.4952    -19963.66   -904.89749    278.19122    78.717406    22.580743     25.44535 
   31400    235.03499   -391.12565    216009.12   -18582.717    1366.8602   -19949.577    -1104.371    281.32579    78.718398     22.58147    25.475619 
   31600    235.40784    -144.4441    216009.12   -18626.454    1369.0285   -19995.482   -17.033878    285.15657    78.720474    22.582609    25.475242 
   31800    242.12904   -208.80169    216009.12    -18538.36    1408.1161   -19946.476   -266.95201    286.81988    78.719632    22.581581     25.44707 
   32000    235.14044   -335.83597    216009.12   -18656.265    1367.4735   -20023.738   -882.31404    288.70525     78.72081    22.581072    25.445321 
   32200    241.90211     -323.462    216009.12   -18626.362    1406.7963   -20033.158   -788.74149    293.28915    78.722557    22.577343    25.438208 
   32400    235.59842   -300.71524    216009.12   -18612.253    1370.1369    -19982.39   -673.62036    290.87873    78.724629    22.579847    25.429742 
   32600    242.41012   -459.03507    216009.12   -18528.228    1409.7507   -19937.979   -1384.3916    291.55643    78.723659    22.582772    25.442652 
   32800    241.54576   -229.71795    216009.12   -18520.147     1404.724   -19924.871   -424.38322    289.76181     78.72456    22.582496    25.447853 
   33000    240.64635   -129.65712    216009.12   -18515.129    1399.4934   -19914.623    24.295546    289.35987    78.724974    22.582059    25.431699 
   33200    237.19682   -168.36836    216009.12   -18564.212    1379.4324   -19943.644   -152.80855    288.92905    78.723933    22.582626    25.422623 
   33400    239.86836   -215.44535    216009.12   -18601.411    1394.9689    -19996.38   -325.49113    286.72266    78.724158    22.585197    25.422093 
   33600    233.45661   -182.13809    216009.12   -18600.482     1357.681   -19958.163   -197.32856    287.67962    78.724163    22.584969    25.373595 
   33800    247.83683   -91.350416    216009.12   -18442.999      1441.31   -19884.309    133.53912    288.72874    78.725345      22.5855    25.378055 
   34000    237.17942   -324.41897    216009.12   -18535.972    1379.3313   -19915.303   -789.78242    291.69745    78.727256    22.584193    25.376826 
   34200    239.28209   -404.15343    216009.12   -18531.816    1391.5594   -19923.376   -1105.3572    293.69511    78.726228    22.583389    25.377461 
   34400    236.92509   -439.73792    216009.12   -18588.156    1377.8522   -19966.008   -1268.0535    297.52752    78.724675    22.584324    25.375069 
   34600    245.24592   -418.84657    216009.12   -18476.148    1426.2424    -19902.39   -1205.2381    301.10203    78.724403    22.585482    25.402108 
   34800    230.53738   -293.94298    216009.12   -18574.701    1340.7041   -19915.406    -680.1572    302.60456    78.724013    22.585286    25.424341 
   35000    238.69286      -318.47    216009.12   -18591.088    1388.1327    -19979.22   -841.02879    301.87333    78.722522    22.585614    25.435544 
   35200    247.50496   -375.21189    216009.12   -18494.473      1439.38   -19933.854   -1014.2875     302.8313    78.723505    22.582258     25.42242 
   35400    238.97908   -237.02025    216009.12   -18548.206    1389.7973   -19938.003   -394.12161    305.65212    78.723668    22.580715    25.437863 
   35600    242.42849   -207.32848    216009.12   -18551.042    1409.8576   -19960.899   -347.46934    309.23608    78.722929    22.581166    25.430031 
   35800    240.68837   -327.79327    216009.12   -18486.239    1399.7378   -19885.977   -821.64179    314.11475    78.721606     22.58096    25.436588 
   36000    239.86633   -373.81462    216009.12   -18579.394    1394.9572   -19974.352   -1047.6898    317.82869    78.720882    22.582478     25.42735 
   36200    246.00926   -236.66774    216009.12   -18575.211    1430.6817   -20005.892   -445.62527    317.23021    78.721759    22.580825    25.412538 
   36400    241.74412   -302.07437    216009.12   -18558.237    1405.8775   -19964.115    -705.1686    317.47034    78.723177    22.580758    25.419296 
   36600    246.34107    -182.0482    216009.12   -18567.206    1432.6114   -19999.817   -196.45432    315.66884    78.722888    22.581228    25.444902 
   36800    238.54292    -191.4216    216009.12   -18644.599    1387.2607    -20031.86   -225.05618    313.00775    78.724054    22.581093    25.448861 
   37000    243.04989   -258.21487    216009.12    -18622.98    1413.4713   -20036.451   -589.53996    314.74182    78.723605    22.582372     25.44304 
   37200    243.18414   -296.92922    216009.12   -18637.221    1414.2521   -20051.473   -680.67543    316.46894    78.723127    22.581999    25.455207 
   37400    234.69456   -180.94984    216009.12   -18630.002    1364.8804   -19994.882   -221.32166    314.61846    78.723781    22.582253    25.423591 
   37600    239.45379   -285.46823    216009.12   -18643.335     1392.558   -20035.893   -665.41824    315.54826     78.72489    22.581941    25.405836 
   37800    235.28302   -177.46331    216009.12   -18719.346    1368.3026   -20087.648   -142.46274    316.82074    78.724018    22.581957    25.404914 
   38000    233.48013   -319.35193    216009.12   -18621.606    1357.8178   -19979.424   -763.77039    319.74767    78.721624    22.579697     25.40794 
   38200    240.05914   -225.57395    216009.12   -18615.698    1396.0784   -20011.776   -381.39359    320.56541    78.718774    22.580355    25.421588 
   38400    236.72819   -369.34629    216009.12   -18572.693    1376.7071     -19949.4   -985.36595    323.48512    78.718649    22.579177    25.408455 
   38600    243.34251   -400.61711    216009.12   -18577.645    1415.1731   -19992.818   -1127.2665    325.64604    78.718312    22.576431    25.427392 
   38800    238.07092   -354.94062    216009.12   -18556.008    1384.5158   -19940.524   -961.57891    326.21705    78.717594    22.576605    25.440346 
   39000    242.97864    -306.6958    216009.12    -18520.99    1413.0569   -19934.047   -703.23103    327.91934    78.716546    22.577404    25.452481 
   39200    234.08651   -468.06109    216009.12    -18635.49    1361.3442   -19996.834   -1423.4968    331.73404    78.715141    22.577046    25.454316 
   39400    238.64848   -336.17662    216009.12   -18581.258    1387.8747   -19969.133   -837.20085    330.99181    78.713479    22.576783    25.446012 
   39600    241.42632   -317.74721    216009.12    -18557.22    1404.0293   -19961.249   -805.93455    332.13894    78.712418    22.574901    25.444569 
   39800    234.11454   -214.23418    216009.12   -18624.666    1361.5073   -19986.173   -349.36935    333.57394    78.713192    22.574034     25.44833 
   40000    244.07355   -168.40215    216009.12   -18584.539    1419.4245   -20003.964   -122.76059    336.46264     78.71546    22.574766    25.451958 
   40200    232.51982   -278.51715    216009.12   -18600.452    1352.2331   -19952.685   -587.30094    340.34248    78.714948    22.575454    25.405664 
   40400    238.96322   -417.11146    216009.12   -18614.957     1389.705   -20004.662   -1225.5823    343.79869    78.715861    22.577394    25.390821 
   40600    247.34659   -231.91687    216009.12   -18543.878    1438.4591   -19982.337   -433.58513    345.71914    78.714469    22.579693    25.383999 
   40800    237.39941   -186.55992    216009.12   -18632.127    1380.6106   -20012.737   -242.63019    348.19726    78.714658    22.578947    25.384102 
   41000    235.02434   -405.96323    216009.12   -18587.211    1366.7983   -19954.009   -1140.2767    350.32166     78.71648    22.578946    25.399447 
   41200    250.69211   -253.44626    216009.12   -18523.554    1457.9151   -19981.469   -493.28626     351.8234    78.715708    22.579007      25.4121 
   41400    238.24325   -472.19536    216009.12   -18542.348     1385.518   -19927.866    -1414.856    352.60646    78.714905    22.580747    25.431944 
   41600    243.35308   -359.23331    216009.12   -18538.284    1415.2346   -19953.519    -887.5402    351.09239    78.714334    22.579617    25.463192 
   41800    244.55123   -215.28165    216009.12   -18553.105    1422.2024   -19975.307   -340.28725    351.00425    78.710748    22.579595    25.458597 
   42000    237.71647   -369.42422    216009.12   -18590.014    1382.4545   -19972.469   -1005.6994    352.19826    78.711224    22.577659    25.457661 
   42200    236.97861   -341.87947    216009.12   -18635.081    1378.1634   -20013.245   -864.36102    353.46247    78.714225    22.574605    25.466196 
   42400    232.89746   -358.90217    216009.12   -18561.628    1354.4292   -19916.057   -992.97145    354.60702    78.713515    22.576681    25.444226 
   42600    239.56664   -390.87622    216009.12    -18602.42    1393.2143   -19995.634   -1087.1703    353.84099    78.713247    22.576959    25.428272 
   42800    237.96935   -231.37965    216009.12   -18552.184    1383.9251   -19936.109   -416.99959    354.84926    78.710129     22.57739    25.403829 
   43000    241.57752   -179.16736    216009.12   -18563.691    1404.9086   -19968.599   -181.63994    356.07447    78.707251    22.577389    25.367817 
   43200    235.03527   -287.35053    216009.12   -18546.805    1366.8618   -19913.666   -603.01497    358.30697    78.707034    22.579666    25.364907 
   43400    235.24438   -392.19345    216009.12   -18541.918    1368.0779   -19909.996   -1075.8565    358.75834    78.708039    22.580862    25.352552 
   43600    240.04883   -369.78415    216009.12   -18559.045    1396.0185   -19955.063   -994.63271    359.29433    78.710164    22.579065    25.347504 
   43800    231.80585   -352.58883    216009.12   -18623.728    1348.0809   -19971.809   -911.42993    361.35116    78.709969    22.578295    25.379402 
   44000    238.29776   -420.67473    216009.12   -18629.679     1385.835   -20015.514   -1152.3869    362.33443    78.712155    22.577405    25.380124 
   44200     240.5087   -288.02203    216009.12   -18603.562    1398.6929   -20002.255   -666.59214    362.11004    78.712972    22.576792    25.393364 
   44400    240.53993   -145.51262    216009.12   -18631.737    1398.8745   -20030.612   -75.473019    361.27696    78.711118    22.577012    25.380881 
   44600    231.40867   -358.73439    216009.12   -18619.363    1345.7711   -19965.134   -911.34223    361.71189    78.709225     22.57514    25.409068 
   44800    232.74553   -237.87383    216009.12   -18606.908    1353.5457   -19960.454   -481.98367    362.89203    78.710551    22.577024    25.410238 
   45000    242.41319   -266.20732    216009.12   -18601.502    1409.7686   -20011.271   -576.21777     364.3581    78.710358    22.578683     25.39674 
   45200    236.54969   -437.54196    216009.12   -18557.488     1375.669   -19933.157   -1286.4331    366.72462    78.710648    22.577156    25.406499 
   45400    236.84269   -397.26881    216009.12   -18625.585     1377.373   -20002.958   -1138.1003    366.40475    78.712095     22.57739    25.399224 
   45600    242.94208   -227.03989    216009.12    -18538.59    1412.8444   -19951.434   -395.99337    367.80481    78.712226    22.578865    25.418787 
   45800    241.87428   -276.61929    216009.12   -18581.138    1406.6345   -19987.772   -580.41216    369.41698    78.713394    22.577664    25.428015 
   46000    238.92981     -317.332    216009.12   -18514.081    1389.5107   -19903.592   -720.51222    368.86043    78.713037    22.577117    25.413782 
   46200    242.22695   -244.86934    216009.12   -18486.386    1408.6855   -19895.071   -510.86323    371.67596    78.711271    22.576813    25.423791 
   46400     238.2801   -250.43971    216009.12   -18539.035    1385.7323   -19924.767   -476.65152    371.48628    78.711754    22.579113    25.417462 
   46600    237.97863   -260.52699    216009.12   -18543.034    1383.9791   -19927.013   -554.65575    375.43005    78.712348    22.579815    25.431862 
   46800    246.88195   -322.30095    216009.12   -18541.866    1435.7569   -19977.623   -805.15601    381.00538    78.708629    22.581634    25.442837 
   47000    247.00252   -540.64794    216009.12   -18532.618    1436.4581   -19969.076   -1703.5174    385.76898    78.708494    22.581636    25.452087 
   47200    235.60544    -287.8823    216009.12   -18658.431    1370.1777   -20028.608   -690.35206    388.10782    78.707541     22.58287    25.462143 
   47400    244.69523    -353.5558    216009.12   -18606.083    1423.0399   -20029.122   -906.82561    388.11507    78.707363     22.58378    25.461832 
   47600    245.06373   -219.98068    216009.12   -18653.534     1425.183   -20078.717   -362.20852    389.04884    78.708154    22.582466    25.451453 
   47800    241.31473   -242.44142    216009.12   -18647.226    1403.3804   -20050.607   -429.24568     390.1226    78.709512    22.582308    25.434812 
   48000    238.51547   -244.49993    216009.12   -18656.795    1387.1011   -20043.897   -444.45117    390.88515    78.710749    22.582662    25.448339 
   48200    235.21203   -296.80971    216009.12   -18631.525    1367.8898   -19999.414   -719.89203    390.88546    78.709224    22.584368    25.456294 
   48400    237.48891   -250.78716    216009.12   -18626.058    1381.1311   -20007.189   -540.85212    391.30615    78.709065    22.585745    25.464945 
   48600    236.41164   -292.23322    216009.12   -18687.916    1374.8662   -20062.782   -703.12529    393.62412    78.709304    22.585091    25.477308 
   48800    231.29638   -408.82215    216009.12   -18644.984    1345.1181   -19990.102   -1214.1345    395.83423    78.711223    22.584336    25.497203 
   49000    235.64625   -281.72048    216009.12   -18613.389     1370.415   -19983.804   -624.12442    394.63956    78.711595    22.584309    25.503625 
   49200    239.82612   -256.12919    216009.12   -18570.025    1394.7233   -19964.748   -533.47937    393.54032    78.712054    22.582091    25.490889 
   49400    242.22863    -447.9902    216009.12   -18622.251    1408.6952   -20030.947   -1319.1727    394.37679    78.711434     22.58484    25.484165 
   49600    236.12859    -229.5313    216009.12    -18584.39    1373.2201    -19957.61   -390.06811    399.39374    78.712757    22.585273    25.456527 
   49800    237.87108   -163.51921    216009.12   -18583.765    1383.3536   -19967.119   -143.53026    400.06088    78.712781    22.584841    25.446495 
   50000    236.83265   -459.52489    216009.12   -18605.967    1377.3146   -19983.281   -1371.2783     400.8298    78.712274    22.586061    25.461511 
   50200    244.47106   -333.66648    216009.12   -18549.662    1421.7362   -19971.398   -844.91049    403.17842     78.71053      22.5841    25.432752 
   50400     244.7081   -165.80284    216009.12    -18575.48    1423.1147   -19998.594   -126.94179    402.62262     78.71016    22.586047     25.43641 
   50600    250.93626    -198.5279    216009.12   -18483.954     1459.335   -19943.289   -294.24187    402.34202    78.711484    22.585444    25.432125 
   50800    235.81155   -373.64328    216009.12   -18631.102    1371.3763   -20002.479   -995.85622    403.44723     78.71311    22.585826    25.447208 
   51000    236.32309    -207.8182    216009.12   -18628.823    1374.3512   -20003.174   -298.89799    402.25904    78.714854    22.585411    25.433475 
   51200    233.72722   -352.96599    216009.12   -18641.598    1359.2548   -20000.853   -913.02817    402.50499    78.714261    22.585446     25.42323 
   51400    243.21943   -317.27672    216009.12   -18592.153    1414.4573    -20006.61   -757.32288    404.97709    78.715997    22.585109    25.412447 
   51600    237.64434   -318.32865    216009.12   -18641.023     1382.035   -20023.058   -731.92028    406.17524    78.716333    22.585777    25.426769 
   51800    239.08881   -317.08597    216009.12   -18586.513    1390.4354   -19976.949    -829.3535    407.86062    78.714043    22.583963     25.46011 
   52000    231.90348   -279.83146    216009.12   -18650.088    1348.6487   -19998.737   -611.15051    408.85071    78.713042    22.584488    25.463945 
   52200    236.44539   -180.38498    216009.12   -18650.869    1375.0624   -20025.931   -204.69292    408.23183    78.711337    22.584349    25.475891 
   52400    235.39689   -378.50799    216009.12    -18678.64    1368.9648   -20047.605   -997.50702    409.11034    78.711113    22.581194    25.488133 
   52600    237.37847   -317.60332    216009.12   -18588.265    1380.4888   -19968.754   -818.36688     411.3509    78.711323    22.579966    25.506721 
   52800    240.72608   -394.32446    216009.12   -18533.849    1399.9571   -19933.806     -1104.15    412.00096    78.711474    22.579916    25.507642 
   53000    244.87801     -233.806    216009.12   -18510.314    1424.1029   -19934.416   -433.11587    414.69504    78.711578    22.580272    25.516964 
   53200    237.12589   -236.28982    216009.12    -18663.58    1379.0199     -20042.6   -463.90877    414.04914    78.711285    22.579858    25.520722 
   53400     233.1128    -372.0309    216009.12   -18601.204    1355.6815   -19956.885   -1038.4561    410.40169    78.709326    22.579203    25.535783 
   53600    235.68112    -225.7252    216009.12   -18635.717    1370.6178   -20006.335    -399.7593    408.26743     78.71022    22.581086    25.538395 
   53800    230.93489   -113.61611    216009.12   -18583.335    1343.0158   -19926.351    104.72673    409.99712    78.709962     22.57862    25.536391 
   54000    240.00999    -522.2958    216009.12   -18528.663    1395.7926   -19924.456   -1630.8556    410.18432    78.712936    22.577806    25.507166 
   54200    246.60828   -348.06275    216009.12   -18512.825    1434.1653   -19946.991   -916.21666    409.11501    78.716133    22.576547    25.479586 
   54400     248.8925   -241.28469    216009.12   -18503.204    1447.4494   -19950.654   -440.64623    409.58884    78.716627    22.576137    25.455493 
   54600    246.57728   -225.16408    216009.12   -18563.515    1433.9851     -19997.5   -389.49643    407.84071    78.718375    22.577901    25.453815 
   54800    240.08618   -221.95013    216009.12   -18574.123    1396.2357   -19970.359   -432.58819    406.10153    78.716296    22.578964    25.447604 
   55000    242.53587   -513.56935    216009.12   -18539.084     1410.482   -19949.566    -1634.974    406.29325    78.715987    22.576958    25.464443 
   55200    234.96132   -354.98445    216009.12   -18666.734    1366.4318   -20033.166   -952.50658    404.33613    78.714116    22.573229    25.466798 
   55400    243.21201   -243.16991    216009.12    -18603.51    1414.4141   -20017.924   -458.25368    404.04878    78.710128    22.570677    25.465095 
   55600    246.19997   -382.01344    216009.12   -18615.402    1431.7908   -20047.193   -1049.6783    400.73071    78.709637    22.569314    25.451355 
   55800    246.70452   -373.80529    216009.12   -18504.211     1434.725   -19938.936     -1012.92    400.19345    78.710344    22.567114    25.452946 
   56000    245.00775   -238.93516    216009.12   -18552.804    1424.8574   -19977.662   -458.55053    400.56581    78.710459    22.568583    25.422175 
   56200    243.00072   -393.01004    216009.12    -18559.17    1413.1854   -19972.355   -1110.6929    402.56598    78.711713      22.5683    25.457822 
   56400    239.31006   -345.77419    216009.12    -18652.92    1391.7221   -20044.642   -898.04413    403.85616    78.712004     22.56994    25.440684 
   56600    232.95858   -310.42764    216009.12   -18693.394    1354.7847   -20048.179    -744.1671    406.68237    78.710961    22.568261    25.432611 
   56800    245.20219   -178.32857    216009.12   -18595.948    1425.9882   -20021.936   -194.78299    405.64716     78.71118    22.569506    25.433861 
   57000    238.27039   -364.28676    216009.12   -18682.525    1385.6758   -20068.201   -1023.8967    405.72627    78.710726    22.569822    25.412299 
   57200    241.32646   -372.92529    216009.12   -18595.275    1403.4486   -19998.723   -1023.2671    408.81348    78.711502    22.570572    25.419841 
   57400    241.50759   -276.41719    216009.12   -18626.353     1404.502   -20030.855   -616.42283    412.22548    78.710128    22.568463    25.394743 
   57600     237.0008   -250.55752    216009.12    -18649.69    1378.2925   -20027.983   -499.21516    418.99296    78.708995    22.569298    25.401256 
   57800    242.57544   -248.83853    216009.12   -18573.012    1410.7121   -19983.724   -466.55731    423.36985    78.708032    22.569599    25.411793 
   58000    248.66171   -153.45264    216009.12   -18612.925    1446.1072   -20059.033   -70.150203     427.1345    78.708739    22.567887    25.406845 
   58200    238.81648   -92.050277    216009.12   -18594.949    1388.8517     -19983.8    160.08004    427.84339    78.706434     22.56587    25.402518 
   58400    238.41246   -218.86158    216009.12   -18635.187    1386.5021   -20021.689   -361.07597    429.01265    78.706529    22.565932    25.409501 
   58600    240.03666   -346.71637    216009.12   -18672.863    1395.9477    -20068.81   -923.07578    427.92428    78.704816     22.56267    25.415766 
   58800    242.27527   -376.30081    216009.12   -18649.648    1408.9664   -20058.614   -1017.8017    425.47292    78.706099    22.563405    25.434631 
   59000    246.04123   -254.41293    216009.12   -18582.042    1430.8676    -20012.91   -511.06134    424.66721     78.70689    22.565474    25.436666 
   59200    237.32033   -402.98774    216009.12   -18636.655    1380.1507   -20016.805    -1114.984    426.77392    78.707646    22.563257    25.437815 
   59400    238.73581   -305.45322    216009.12   -18645.871    1388.3825   -20034.254   -747.39806    429.16571     78.70802    22.562445    25.447119 
   59600    231.93972   -176.92812    216009.12    -18677.81    1348.8595   -20026.669   -170.08809     430.2996    78.706918    22.561605    25.440429 
   59800    243.35396   -304.13396    216009.12   -18626.481    1415.2396   -20041.721   -718.38558    431.74421     78.70635    22.563471    25.452909 
   60000    242.85535   -384.87764    216009.12   -18589.298      1412.34   -20001.638   -1067.5149    430.86017    78.705682    22.564328    25.476943 
   60200     236.3971   -278.17245    216009.12   -18613.837    1374.7816   -19988.619     -595.809    429.07467     78.70597    22.566534    25.506283 
   60400    235.64573   -388.07871    216009.12   -18571.315     1370.412   -19941.727   -1090.9415     429.2919    78.707366    22.569638    25.521488 
   60600    243.64008   -245.25289    216009.12   -18537.786    1416.9036   -19954.689   -473.67561    430.74359    78.706032    22.571717    25.525055 
   60800    241.30515   -252.54812    216009.12   -18499.866    1403.3247   -19903.191   -536.74012    431.54618    78.705225    22.573693    25.518243 
   61000    242.15879   -216.95033    216009.12    -18561.26    1408.2891   -19969.549   -328.27746    433.20016    78.704896    22.573582    25.530928 
   61200     253.0245   -448.20516    216009.12   -18517.327    1471.4793   -19988.806    -1291.175     433.9027    78.705275    22.573373    25.542908 
   61400    243.15985   -405.40581    216009.12   -18557.327    1414.1108   -19971.438   -1131.8571     437.3372     78.70728    22.573462    25.535429 
   61600     239.6205   -393.00562    216009.12   -18598.066    1393.5275   -19991.594   -1092.3783    439.56571    78.706024    22.573499      25.5446 
   61800    243.17598   -321.59891    216009.12   -18659.184    1414.2046   -20073.389   -823.16984     436.7561    78.707257    22.573606    25.540541 
   62000    242.66306   -129.46432    216009.12   -18562.843    1411.2217   -19974.065    20.895852    435.81357    78.708512    22.569884    25.524385 
   62200    243.87797   -380.12118    216009.12   -18560.526    1418.2871   -19978.813   -1011.8429    439.16891    78.706881     22.56985     25.53491 
   62400    240.01469   -278.29399    216009.12   -18547.281    1395.8199   -19943.101    -625.5873    442.13194    78.707763      22.5694    25.521587 
   62600    239.32319   -398.59716    216009.12   -18602.474    1391.7985   -19994.272   -1113.6338    441.14074    78.707549    22.568399    25.515046 
   62800    244.05349   -382.53769    216009.12   -18690.605    1419.3078   -20109.913   -1071.3443    441.75054    78.707432    22.571831    25.495077 
   63000    241.85884   -138.44106    216009.12   -18610.483    1406.5447   -20017.028   -15.906383     441.8921    78.707353    22.570771    25.471571 
   63200    242.82229   -308.57592    216009.12   -18635.872    1412.1477    -20048.02   -778.93248    443.08619    78.707566    22.568898    25.472966 
   63400    239.08443   -232.85071    216009.12   -18691.836      1390.41   -20082.246   -480.98288    444.52738      78.7082      22.5687    25.475629 
   63600    232.02709   -341.34487    216009.12   -18665.119    1349.3676   -20014.486   -847.30399    446.75306    78.710624    22.568898    25.489002 
   63800    234.32749   -333.80375    216009.12   -18697.729    1362.7457   -20060.475   -860.33132     446.5704    78.709378    22.570976    25.492725 
   64000    244.90714   -334.93025    216009.12   -18614.186    1424.2723   -20038.458   -820.62847    444.60242    78.706897    22.574728     25.47558 
   64200    235.09491   -376.52014    216009.12   -18617.462    1367.2087   -19984.671   -1024.0011     442.6935    78.708419     22.57723    25.473412 
   64400    237.15392   -379.02839    216009.12   -18641.914    1379.1829   -20021.097   -1036.4065    444.08067    78.711588    22.577833    25.464058 
   64600    232.90501   -254.39899    216009.12   -18684.131    1354.4732   -20038.605   -522.77975    445.99221    78.712804    22.577976    25.485248 
   64800    237.92267   -298.54726    216009.12   -18618.409    1383.6537   -20002.063   -688.52957    448.90543    78.711962    22.580559    25.476629 
   65000    244.55801   -209.08442    216009.12   -18574.106    1422.2419   -19996.348   -329.36836    449.63462    78.711515    22.581708    25.475634 
   65200    239.32293    -308.0926    216009.12   -18578.804     1391.797   -19970.601   -715.78935    451.28757    78.711278    22.581619    25.507636 
   65400    243.38928   -337.92959    216009.12   -18590.231    1415.4451   -20005.676   -814.04026    452.83022    78.709214    22.581908    25.501839 
   65600    245.91828   -358.84728    216009.12   -18549.446    1430.1526   -19979.598   -983.84295    454.37548    78.708444    22.584305    25.485055 
   65800     238.0083   -477.23556    216009.12    -18592.98    1384.1517   -19977.132   -1440.9066    457.37029    78.709968     22.58648    25.486277 
   66000     240.8222   -372.77614    216009.12   -18607.883    1400.5161   -20008.399   -997.44907    457.74037    78.709405    22.588327    25.473686 
   66200    236.59646   -313.06089    216009.12   -18658.926     1375.941   -20034.867   -743.55405     458.6482    78.706606    22.587263    25.482845 
   66400    237.45428   -362.97976    216009.12   -18654.552    1380.9297   -20035.482   -994.67325    460.31386    78.705173    22.587632    25.479325 
   66600     234.5186   -345.51391    216009.12    -18656.27    1363.8571   -20020.127   -853.91853    459.03651     78.70278    22.586201    25.486641 
   66800    233.37008   -353.62363    216009.12   -18671.744    1357.1778   -20028.922   -960.11846    458.37559    78.701323    22.585889    25.484175 
   67000    229.97076   -306.01952    216009.12   -18681.465    1337.4089   -20018.874   -681.40526    457.61237     78.69919    22.587354    25.479502 
   67200    243.76127   -127.06275    216009.12   -18642.203    1417.6084   -20059.812    40.553178    457.25476    78.698049    22.585375     25.50999 
   67400    245.27295   -406.47184    216009.12   -18617.658    1426.3997   -20044.058    -1136.142    461.12218    78.699516    22.585765    25.488814 
   67600    239.38165   -324.36437    216009.12   -18579.473    1392.1385   -19971.612   -857.56452     462.2351    78.703818    22.586504    25.475011 
   67800    242.02554   -425.38207    216009.12   -18605.508    1407.5142   -20013.022   -1198.5599    467.22143    78.704679    22.589187    25.476144 
   68000    237.89662   -352.70681    216009.12   -18639.473    1383.5022   -20022.975   -930.48675    466.89967    78.704097    22.591214    25.473217 
   68200    239.73236   -306.12732    216009.12   -18647.685     1394.178   -20041.863   -778.13205    469.67907    78.702875    22.592102    25.471883 
   68400    245.49503   -311.90918    216009.12   -18582.126    1427.6912   -20009.818   -741.48911    472.89573    78.702733    22.594605    25.469835 
   68600     235.2632   -457.98145    216009.12   -18628.883    1368.1874   -19997.071   -1371.8752    477.86134    78.702055    22.595085    25.491031 
   68800    244.26371   -158.48833    216009.12   -18579.347    1420.5303   -19999.877   -114.30806    478.13658    78.700975    22.594851    25.500667 
   69000     234.2118   -424.27682    216009.12   -18576.674    1362.0729   -19938.747   -1237.6446    480.33457    78.702091    22.594071    25.511193 
   69200    235.87009    -203.8092    216009.12   -18629.621    1371.7168   -20001.338   -315.84817    484.31572    78.701358    22.594823    25.498075 
   69400    241.33262   -134.66443    216009.12   -18683.078    1403.4844   -20086.563    2.1372786    483.02656    78.698984      22.5939    25.496461 
   69600    246.96455   -215.41314    216009.12   -18513.022    1436.2373   -19949.259   -325.45815    479.47033    78.697866    22.592652    25.471198 
   69800    242.75847   -357.06379    216009.12   -18634.787    1411.7766   -20046.564   -935.72311    477.14238    78.698277    22.591759    25.471871 
   70000    240.85067   -385.06201    216009.12   -18594.426    1400.6816   -19995.107   -1039.5064    476.16961    78.694632    22.590707    25.490073 
   70200    234.17278   -103.67906    216009.12   -18591.364    1361.8459    -19953.21     125.1206    473.44188      78.6939    22.591801     25.48805 
   70400    237.17275   -144.77319    216009.12   -18530.191    1379.2925   -19909.484   -41.538303     473.2955    78.693828     22.59421    25.505757 
   70600    237.57116   -339.76107    216009.12   -18596.429    1381.6095   -19978.038   -873.80559    473.09867    78.693324    22.595693    25.501981 
   70800    233.83063   -292.46932    216009.12   -18612.938    1359.8561   -19972.794    -718.2922    473.76913    78.693578    22.595067    25.473948 
   71000    240.96091   -251.33386    216009.12   -18629.979    1401.3227   -20031.302   -475.06886    472.95039    78.694861    22.596395    25.458157 
   71200    240.46725   -323.38518    216009.12   -18579.097    1398.4518   -19977.549   -771.40849     474.8755     78.69471    22.593816    25.486788 
   71400    237.90365   -387.73923    216009.12   -18609.582    1383.5431   -19993.125   -1085.1996    477.11416    78.693273    22.592291    25.504394 
   71600    240.18731   -317.90971    216009.12   -18549.873    1396.8238   -19946.697   -819.01449    479.08244    78.694349    22.589477    25.523449 
   71800    235.65655   -93.633998    216009.12   -18639.481    1370.4749   -20009.956    192.00361    476.48144    78.694947    22.588135    25.501476 
   72000    234.31712   -279.91256    216009.12   -18578.759    1362.6853   -19941.444   -594.94233    477.71556    78.692798    22.586219    25.506162 
   72200    246.31053   -338.68971    216009.12   -18472.944    1432.4338   -19905.378   -840.94772    477.94578    78.692709    22.585926    25.502402 
   72400    238.32158   -268.29053    216009.12   -18553.615    1385.9736   -19939.589   -547.00555    478.93102    78.690842     22.58437    25.509872 
   72600    244.34647   -430.69541    216009.12   -18508.917    1421.0117   -19929.928    -1236.525    481.21867    78.689996    22.583871    25.486238 
   72800    240.86014   -204.64089    216009.12    -18547.14    1400.7367   -19947.876   -329.49308    483.63934    78.689221     22.58315    25.495102 
   73000    230.55016   -237.01453    216009.12   -18559.498    1340.7784   -19900.276   -424.96483    489.07924    78.690254    22.583637    25.497038 
   73200    246.78965   -297.84538    216009.12   -18469.478    1435.2201   -19904.698   -696.57436    492.35884    78.693363    22.583452    25.490233 
   73400    235.69073   -339.66878    216009.12   -18468.273    1370.6737   -19838.947   -919.93385     494.6728    78.693445     22.58292    25.486265 
   73600     242.3966   -468.66689    216009.12   -18519.891    1409.6721   -19929.563   -1419.7004    497.88145    78.693739    22.584316    25.477652 
   73800    229.36057   -387.41258    216009.12   -18629.263    1333.8602   -19963.123    -1064.612    497.95696    78.693067    22.586188    25.484134 
   74000    240.09687   -248.24645    216009.12   -18652.131    1396.2978   -20048.429   -463.83147      500.079    78.692302    22.585785    25.485011 
   74200    238.31829   -300.87921    216009.12   -18589.089    1385.9544   -19975.043    -703.7222     503.1308    78.691684    22.586432    25.510661 
   74400    236.49011   -290.18986    216009.12   -18584.378    1375.3225   -19959.701   -636.20803    503.39986    78.692297     22.58701    25.501092 
   74600    238.37646   -365.97562    216009.12   -18666.109    1386.2927   -20052.402   -984.51796    503.86495    78.692461    22.586189    25.517327 
   74800    234.05469   -453.57334    216009.12   -18617.531    1361.1592    -19978.69   -1335.4635    503.42535    78.693909     22.58526    25.512087 
   75000    233.09642   -176.34765    216009.12   -18600.258    1355.5863   -19955.844   -176.17463    502.25304    78.695361    22.584106    25.505967 
   75200    241.05735   -321.32422    216009.12   -18565.724    1401.8836   -19967.608   -819.64853    505.31199    78.697044    22.584678     25.48968 
   75400    236.04258   -356.73318    216009.12   -18606.165    1372.7199   -19978.884   -960.31915    505.22942    78.698959    22.585907    25.497221 
   75600    242.05543   -274.87533    216009.12   -18602.655     1407.688   -20010.343   -607.92196    508.58233    78.698266      22.5846    25.499671 
   75800    243.28365   -243.24824    216009.12   -18540.298    1414.8307   -19955.129   -455.93658    512.57959    78.698171    22.583671    25.542563 
   76000    241.06839   -399.67583    216009.12   -18555.662    1401.9478   -19957.609   -1142.8671    514.66186    78.697074    22.583003    25.554341 
   76200    238.52505   -282.80537    216009.12   -18659.465    1387.1568   -20046.622   -627.51529    516.07672    78.697277    22.584606    25.561351 
   76400    242.66093   -466.64338    216009.12   -18631.401    1411.2093    -20042.61   -1447.1468    518.06418    78.698256    22.583249    25.589299 
   76600    236.06863   -317.43152    216009.12   -18606.024    1372.8714   -19978.895   -834.48425     520.9793     78.69827    22.584401     25.60414 
   76800    236.62822   -338.35016    216009.12   -18598.829    1376.1257   -19974.955   -911.61229    524.77352    78.698607    22.583187    25.616996 
   77000    238.70625   -320.37528    216009.12   -18562.754    1388.2106   -19950.964   -790.53953    527.84752    78.696629     22.58182    25.611578 
   77200     238.7521   -257.03534    216009.12   -18548.292    1388.4773   -19936.769    -537.8517    527.74888     78.69632    22.581542    25.631254 
   77400    231.65938   -227.32174    216009.12   -18588.318    1347.2291   -19935.548    -405.4936    525.29729    78.696325    22.581134    25.620673 
   77600    233.23727   -230.41833    216009.12   -18643.456    1356.4054   -19999.861    -401.8244    523.46059    78.696034    22.581602    25.627417 
   77800    240.66641   -276.06315    216009.12   -18600.687    1399.6101   -20000.297   -663.07628    521.54684     78.69566    22.580618      25.6227 
   78000    232.95646   -377.86034    216009.12   -18622.386    1354.7723   -19977.158   -1060.4712    520.22538    78.695706    22.581884    25.648808 
   78200    238.98749   -387.12324    216009.12   -18554.137    1389.8462   -19943.983   -1091.9745    521.80859    78.695511    22.580096    25.635717 
   78400    239.38766   -341.25793    216009.12   -18566.553    1392.1734   -19958.727   -902.90675     525.7712    78.694576    22.579074    25.636519 
   78600    240.83596   -335.24177    216009.12    -18559.31    1400.5961   -19959.906   -850.60608    529.01333    78.693224    22.579666    25.639991 
   78800    239.88596    -253.6587    216009.12   -18573.772    1395.0713   -19968.843   -506.49981    531.60184    78.692475    22.577253    25.631545 
   79000    235.86426   -347.33152    216009.12   -18546.567    1371.6829    -19918.25   -921.19402    534.25808    78.691179    22.576966    25.607154 
   79200    242.16375   -334.73646    216009.12   -18521.948    1408.3179   -19930.266    -868.6825     535.7636    78.690051    22.579068    25.613883 
   79400    241.11838   -298.14111    216009.12   -18493.176    1402.2385   -19895.415   -722.73226    537.71545      78.6892    22.579393    25.596037 
   79600    243.03604   -186.42702    216009.12   -18602.881    1413.3908   -20016.271    -245.1064    536.73132    78.689628    22.578635    25.616005 
   79800    240.14704   -446.81507    216009.12   -18614.719    1396.5896   -20011.309   -1363.4765    538.06902    78.690544    22.578656    25.617226 
   80000    232.91029    -314.7775    216009.12    -18622.13    1354.5038   -19976.633   -747.44808    539.32475    78.690891    22.577264    25.609169 
   80200    241.74432   -275.98993    216009.12   -18622.217    1405.8787   -20028.096   -576.27694    537.79428    78.691612    22.578522    25.622718 
   80400    235.52107   -371.50728    216009.12   -18638.096     1369.687   -20007.783    -1051.328    538.68476    78.693256    22.577436    25.614178 
   80600    237.13625   -230.20407    216009.12   -18586.979    1379.0802    -19966.06   -393.31875    540.23278    78.693051    22.579488    25.598459 
   80800    240.54919   -304.78262    216009.12   -18624.315    1398.9284   -20023.243   -687.17863    540.60931    78.696192    22.582412    25.598975 
   81000    244.26097   -179.60162    216009.12   -18646.918    1420.5144   -20067.433   -189.80012    540.83893    78.695851    22.586046     25.62452 
   81200    239.94693   -357.29667    216009.12   -18634.746    1395.4259   -20030.172   -951.82388    539.86105    78.698899    22.585435    25.629486 
   81400    240.68176   -172.12525    216009.12   -18636.438    1399.6993   -20036.137   -217.90978    542.27299    78.696226    22.586252    25.630809 
   81600    239.50534   -459.80088    216009.12   -18652.901    1392.8578   -20045.759   -1360.7765    546.29482     78.69678    22.587445    25.624902 
   81800    230.65346   -380.03717    216009.12     -18718.4    1341.3791   -20059.779   -1051.2433    552.61985    78.695055    22.586662    25.630536 
   82000    236.71937   -360.50423    216009.12   -18638.397    1376.6558   -20015.053    -937.7144    556.42061    78.694232    22.587632    25.615903 
   82200    244.97325    -317.1814    216009.12   -18596.683    1424.6567    -20021.34   -785.45136     559.6336     78.69356    22.588414    25.618891 
   82400    240.63522   -228.58966    216009.12   -18632.789    1399.4286   -20032.217   -430.49833    558.69322    78.696196    22.586476    25.604197 
   82600    244.12856   -250.63073    216009.12   -18586.034    1419.7444   -20005.778   -517.54923    557.90054    78.698379    22.587087    25.617211 
   82800    244.75696   -308.79925    216009.12   -18682.463    1423.3989   -20105.862   -728.27202    557.45094    78.698972    22.588716    25.628083 
   83000      245.136   -202.37207    216009.12   -18612.713    1425.6032   -20038.316   -286.66863    555.55331    78.697889    22.588314    25.614461 
   83200    232.50441   -457.79657    216009.12   -18626.971    1352.1435   -19979.114   -1368.2846    556.49087    78.698416    22.587009    25.589671 
   83400    235.20019   -323.96839    216009.12   -18641.037    1367.8209   -20008.858   -775.31165    557.89902    78.698894    22.586714    25.597548 
   83600    236.93608   -366.19991    216009.12    -18691.44    1377.9161   -20069.356    -953.7014    557.24139    78.701458     22.58712    25.577209 
   83800     237.2126   -330.73043    216009.12   -18658.093    1379.5242   -20037.618   -771.12934    555.78313    78.701542    22.586899    25.581461 
   84000    242.39056   -224.06402    216009.12   -18618.855    1409.6369   -20028.492   -359.46044    557.24167    78.703524    22.586623    25.578921 
   84200    235.20369    -267.4833    216009.12   -18571.795    1367.8412   -19939.636   -568.54743    559.95641    78.703921    22.586273    25.609973 
   84400    235.17163   -331.80843    216009.12   -18609.897    1367.6548   -19977.552   -825.96165    560.04516    78.705036    22.584797    25.609965 
   84600    243.45813   -313.71329    216009.12   -18537.793    1415.8455   -19953.638   -771.92838    558.13548    78.704736    22.585342    25.627757 
   84800    242.30507   -234.32994    216009.12   -18585.485    1409.1398   -19994.624   -399.03618    560.45241    78.706123    22.585213    25.644472 
   85000      240.573   -261.73448    216009.12   -18600.422    1399.0668   -19999.489   -527.96616     564.8741    78.706715    22.586082    25.636363 
   85200     245.0571   -199.97726    216009.12   -18611.197    1425.1444   -20036.341   -259.70704    567.88762    78.708781     22.58676    25.617452 
   85400    241.15426   -387.72453    216009.12   -18642.324    1402.4472   -20044.771    -1052.932    572.49776    78.707724    22.584131    25.604845 
   85600    232.59956   -484.81847    216009.12   -18621.632    1352.6968   -19974.328   -1565.4949    575.44518    78.707713    22.584696       25.594 
   85800     243.4439   -302.59993    216009.12     -18553.4    1415.7627   -19969.163   -721.78249    572.93256    78.710048    22.582819    25.575425 
   86000    239.91625   -309.86971    216009.12   -18588.445    1395.2474   -19983.692   -710.68216    578.56064    78.709456    22.582731    25.591213 
   86200    242.40198   -451.69464    216009.12   -18566.291    1409.7034   -19975.994   -1358.4962    582.29983    78.709972    22.584996    25.579647 
   86400    236.44269   -513.56412    216009.12   -18628.856    1375.0468   -20003.903    -1606.018    582.67383    78.710985    22.586637    25.603994 
   86600    245.75872   -216.74529    216009.12    -18535.53    1429.2247   -19964.754   -340.17666    582.51767    78.710317    22.586849    25.593927 
   86800    239.10307   -386.41685    216009.12   -18599.254    1390.5184   -19989.772    -1066.303    581.82675    78.708508    22.588994    25.579571 
   87000    235.37601   -197.18092    216009.12   -18565.435    1368.8434   -19934.279   -269.14973    580.00921     78.70612    22.590939    25.594659 
   87200    245.39298   -156.07592    216009.12   -18540.889    1427.0977   -19967.986   -83.582837    578.95404    78.704582    22.591829    25.578043 
   87400    244.02464   -222.82704    216009.12   -18583.721      1419.14   -20002.861   -352.37794    576.33486    78.704012    22.592645    25.569418 
   87600    236.27501   -356.09017    216009.12    -18574.92    1374.0716   -19948.991   -924.08805    572.59281    78.704643    22.592513     25.57416 
   87800    234.62895   -294.16827    216009.12   -18587.244    1364.4988   -19951.742   -679.34635    574.61333    78.705457    22.592663    25.578876 
   88000    239.26367   -479.04223    216009.12   -18561.589    1391.4523   -19953.042   -1475.0596    573.04505     78.70476    22.592008    25.572444 
   88200    236.77785   -218.68754    216009.12   -18626.641    1376.9959   -20003.637   -354.33487    571.25511    78.704107    22.592167    25.572543 
   88400    245.29465   -296.93973    216009.12   -18578.689    1426.5258   -20005.215   -706.14936    573.30006    78.704617     22.59367    25.565698 
   88600    237.60668   -260.20832    216009.12   -18575.657     1381.816   -19957.473    -533.8498    573.73204    78.703703    22.596978    25.562306 
   88800    228.40807   -301.20214    216009.12   -18629.628    1328.3209   -19957.948     -772.321    570.46688    78.703255    22.597222    25.557409 
   89000    240.94569   -370.94843    216009.12   -18559.918    1401.2342   -19961.152   -1008.0759    571.22839    78.705038    22.595286    25.545728 
   89200    240.91773    -287.3262    216009.12   -18562.777    1401.0716   -19963.849   -652.19316    573.47309    78.705504    22.595315    25.515378 
   89400    245.98763   -353.04227    216009.12   -18551.765    1430.5559   -19982.321   -926.43411    578.09916    78.703977    22.596112    25.501735 
   89600     230.0668   -361.87244    216009.12   -18656.157    1337.9674   -19994.124   -999.35959    580.35379     78.70596    22.595505    25.519628 
   89800    237.90625   -361.86583    216009.12   -18551.957    1383.5582   -19935.515   -965.95185    583.81902    78.705162    22.595144    25.533242 
   90000    240.96263   -284.15039    216009.12   -18563.975    1401.3328   -19965.308   -631.70127     585.3837    78.708101     22.59522    25.528934 
   90200    237.34612    -291.3774    216009.12   -18595.831    1380.3007   -19976.131   -632.74988    590.93998    78.706799    22.595778    25.532202 
   90400    238.78005   -216.11987    216009.12    -18520.97    1388.6398   -19909.609    -335.2338    592.12656    78.705333    22.595532    25.565494 
   90600    247.86986   -302.81329    216009.12    -18533.09    1441.5022   -19974.592   -729.94062    594.21497    78.701059    22.596077    25.554576 
   90800       235.19   -360.08627    216009.12   -18567.778    1367.7616    -19935.54   -948.28446    595.43493    78.702077    22.596759    25.557212 
   91000    238.86936   -309.13743    216009.12   -18585.699    1389.1592   -19974.858   -736.53241    595.53909    78.700046    22.597815    25.554878 
   91200    232.34121   -415.22091    216009.12   -18681.071    1351.1943   -20032.265   -1163.6734    598.32014    78.702969    22.599796    25.546122 
   91400    240.57432   -267.39666    216009.12   -18572.255    1399.0745    -19971.33   -579.14456    600.73221    78.703807    22.602264    25.522389 
   91600    246.01593   -271.96786    216009.12   -18513.499    1430.7205   -19944.219   -582.19173    603.64296    78.703033    22.602424    25.509151 
   91800    238.78089   -354.88966    216009.12   -18537.004    1388.6447   -19925.649   -957.58066    603.06859    78.702156    22.602541    25.517259 
   92000    238.26757   -227.87229    216009.12   -18556.465    1385.6595   -19942.125     -388.931    603.34063    78.701185    22.601534    25.532946 
   92200    236.89503   -428.18855    216009.12   -18593.548    1377.6773   -19971.226   -1273.8569    608.00038    78.701769    22.599693    25.543775 
   92400    238.89628   -424.44903    216009.12   -18599.652    1389.3157   -19988.968   -1197.2863    610.19295    78.704266    22.600385    25.538807 
   92600    242.62604    -161.4071    216009.12   -18549.234    1411.0064    -19960.24   -140.48859    612.53882     78.70559     22.60299    25.555714 
   92800     237.4678   -329.96137    216009.12   -18598.841    1381.0084   -19979.849    -809.2386    615.82328     78.70625    22.604233    25.550884 
   93000    238.48815     -286.888    216009.12   -18648.042    1386.9422   -20034.984   -647.18724    618.67251    78.706443    22.604374     25.51681 
   93200    234.89316   -342.46518    216009.12   -18624.874    1366.0354   -19990.909   -867.34419    622.46523    78.704479    22.604016    25.523211 
   93400    239.42522   -418.46616    216009.12   -18696.924    1392.3918   -20089.316   -1177.2267    627.33858     78.70388    22.603089    25.531547 
   93600    236.74426   -245.30771    216009.12   -18662.751    1376.8005   -20039.552   -490.90948    629.75104    78.704798    22.603722    25.512626 
   93800    231.38722   -263.09896    216009.12   -18659.269    1345.6463   -20004.915   -566.79794    630.59366    78.703946    22.603985    25.504312 
   94000    236.45556     -366.501    216009.12     -18647.1    1375.1216   -20022.221   -994.53859    632.14333    78.703385    22.602316    25.526665 
   94200    246.12576   -216.06956    216009.12    -18591.65    1431.3592   -20023.009   -338.33893    628.70911    78.704054    22.601811    25.547214 
   94400    234.62445   -194.73001    216009.12   -18617.923    1364.4727   -19982.396   -241.41907    629.83076    78.705201    22.602674    25.574324 
   94600    237.69276   -580.72908    216009.12   -18636.071    1382.3166   -20018.387    -1900.508    629.47033    78.704859    22.602689    25.589406 
   94800    236.20213   -248.27836    216009.12   -18627.282    1373.6477    -20000.93   -520.39981    631.34467    78.705435    22.602083    25.584873 
   95000    238.87257   -186.63325    216009.12   -18618.363    1389.1779   -20007.541   -235.09801    632.55143    78.706485    22.601066    25.567133 
   95200    245.39516   -310.88125    216009.12   -18618.949    1427.1104   -20046.059    -755.1638    631.18487    78.707168    22.600811    25.544481 
   95400    231.68418   -304.91107    216009.12   -18613.501    1347.3734   -19960.874   -684.42059    633.01616    78.706971    22.600028      25.5701 
   95600    231.44243   -172.13939    216009.12   -18569.658    1345.9674   -19915.626   -132.39847    635.25037    78.708411    22.600312    25.586124 
   95800    245.35754   -373.94712    216009.12   -18566.867    1426.8916   -19993.759   -963.92877    638.27744    78.709409    22.601325    25.603273 
   96000    245.26071   -306.88995    216009.12   -18566.739    1426.3285   -19993.067    -717.6478    640.42353     78.71017    22.601595    25.615866 
   96200    244.37844   -430.61622    216009.12   -18566.625    1421.1976   -19987.823    -1215.728    643.32038    78.711881    22.601693    25.592554 
   96400    239.79249   -386.71542    216009.12   -18603.791    1394.5277   -19998.319   -1092.7341    645.73898    78.709102    22.600793    25.551467 
   96600    240.83823   -335.39893    216009.12   -18649.337    1400.6093   -20049.946   -837.46921    644.93732    78.708441    22.599877    25.530854 
   96800    236.88709   -405.28251    216009.12   -18627.861    1377.6312   -20005.493   -1170.9454    644.22603    78.710091    22.601414    25.526304 
   97000    229.50152   -354.76284    216009.12   -18668.671    1334.6799    -20003.35   -918.83743    645.82485     78.70792    22.599898     25.52876 
   97200    236.05796   -261.29249    216009.12   -18615.836    1372.8093   -19988.646   -558.19051    648.40743    78.707482    22.600643    25.539239 
   97400    234.92263   -427.03334    216009.12   -18577.524    1366.2068    -19943.73   -1258.7705    654.23767    78.706343    22.600339    25.544368 
   97600    246.92219   -380.78694    216009.12   -18514.446    1435.9909   -19950.437   -1035.0552    656.24151    78.704532    22.600804    25.541462 
   97800    247.16491   -214.40735    216009.12   -18536.344    1437.4025   -19973.746   -314.25693    657.36067    78.703865    22.598791    25.561202 
   98000    243.23767   -303.50019    216009.12   -18580.872    1414.5634   -19995.436   -722.37635    659.95077    78.702698    22.596029    25.584781 
   98200    238.24675   -255.42281    216009.12    -18640.64    1385.5384   -20026.178   -528.66532    665.29896    78.703954      22.5959    25.561781 
   98400    236.69994   -370.48784    216009.12   -18589.584    1376.5428   -19966.127   -986.34449    670.60871    78.704764    22.597378    25.529652 
   98600    242.55108   -478.23792    216009.12   -18597.762    1410.5705   -20008.333   -1468.6678    675.79363     78.70438    22.600108    25.527119 
   98800    243.40493   -339.15994    216009.12   -18572.942    1415.5361   -19988.478   -863.34167    680.32614    78.704455    22.600927    25.501608 
   99000    238.36848   -174.24918    216009.12   -18623.235    1386.2463   -20009.481   -140.28614    681.48065    78.704121    22.601888    25.505087 
   99200    241.93967   -242.62095    216009.12   -18624.685    1407.0148   -20031.699   -469.50276    680.16203    78.704923    22.603337    25.475257 
   99400    231.34943   -457.70991    216009.12   -18630.202    1345.4266   -19975.628   -1364.8497    681.75276    78.703961    22.603864    25.479014 
   99600    244.72637   -360.19458    216009.12   -18571.959     1423.221    -19995.18   -925.19894    682.25775    78.703931     22.60319    25.452407 
   99800    245.02015    -246.9623    216009.12   -18642.033    1424.9295   -20066.963    -484.2818     684.1184    78.703704    22.603577    25.445849 
  100000    245.38626    -349.3331    216009.12   -18650.934    1427.0586   -20077.993   -905.30747    683.91979    78.703035    22.604606    25.475166 
  100200    235.43663   -282.95318    216009.12   -18671.078    1369.1959   -20040.274   -616.66279    680.45507    78.703317    22.607121    25.480901 
  100400    238.30956   -222.95229    216009.12   -18588.539    1385.9036   -19974.442   -352.39547     679.3756    78.700566    22.608767    25.481777 
  100600    236.68737   -449.83159    216009.12   -18617.684    1376.4697   -19994.153   -1340.4928    677.85913     78.69896    22.612132    25.482789 
  100800    240.33234   -327.24285    216009.12   -18662.477    1397.6673   -20060.145   -777.40475    672.44688    78.698393    22.613167      25.4809 
[...]
 5175800    227.56614    61.619112    216009.12   -20666.343    1323.4247   -21989.768    830.40955    8927.3077    77.852424    21.980775      25.4204 
 5176000    225.41917    33.641877    216009.12   -20661.738    1310.9388   -21972.676    707.99054     8929.733    77.851894    21.981887    25.416831 
 5176200    225.67364    80.064413    216009.12   -20670.771    1312.4187    -21983.19    928.33537    8927.6935    77.851593     21.98168     25.41481 
 5176400    221.01105    49.280279    216009.12   -20689.076    1285.3031   -21974.379    803.93033    8926.8929     77.85105    21.981524    25.417254 
 5176600    222.68791    39.484897    216009.12       -20647     1295.055   -21942.055    743.58924     8926.951    77.851039    21.981261    25.416402 
 5176800    231.67578   -3.0220891    216009.12   -20625.249    1347.3245   -21972.574    559.69953    8929.9609    77.850659    21.981496    25.418998 
 5177000     230.7097    92.282448    216009.12    -20624.59    1341.7062   -21966.296    997.05175    8925.0326    77.851034    21.981397    25.418439 
 5177200    226.11437    49.927706    216009.12   -20648.473    1314.9818   -21963.455    812.46582    8925.2865    77.849855    21.981703    25.419294 
 5177400    228.43634   -35.852483    216009.12   -20673.526    1328.4853   -22002.012    425.29443    8927.0547    77.849412    21.982344    25.418791 
 5177600    233.96018    47.825555    216009.12   -20616.748    1360.6095   -21977.357    782.64172    8926.7019    77.849257    21.983185    25.420489 
 5177800     226.7496    64.822517    216009.12   -20655.609     1318.676   -21974.285    829.99848    8926.4955    77.848028    21.983632    25.417202 
 5178000    223.93617   -33.321208    216009.12   -20675.627    1302.3144   -21977.942     409.8002    8927.6738    77.848645    21.984709    25.418225 
 5178200    228.11296    68.441048    216009.12    -20674.92    1326.6047   -22001.525    888.75664    8927.1734    77.849432    21.985507    25.419261 
 5178400    230.47093    83.781443    216009.12   -20686.143    1340.3176   -22026.461    922.83092     8924.324    77.849629    21.985922    25.413444 
 5178600    229.34966  -0.27147438    216009.12   -20667.715    1333.7968   -22001.512    614.28292     8926.229    77.849873    21.986272     25.41295 
 5178800    232.59123   -29.093562    216009.12   -20630.022    1352.6484    -21982.67    506.02669    8926.7159    77.849333    21.987429    25.414854 
 5179000    226.95663    142.45314    216009.12   -20657.266      1319.88   -21977.146    1172.4466    8924.5195    77.850771    21.986286    25.419126 
 5179200    226.17133    48.615489    216009.12   -20629.869     1315.313   -21945.182    778.42028     8926.919    77.851766    21.986268    25.421177 
 5179400      222.132   -13.163579    216009.12   -20694.513     1291.822   -21986.335    530.71317    8925.5947    77.851557    21.986468    25.420828 
 5179600    232.71547    87.159536    216009.12   -20590.332    1353.3709   -21943.703    949.12553    8926.5333     77.85271    21.986147    25.416993 
 5179800    227.70181    12.896538    216009.12   -20644.898    1324.2136   -21969.112    605.37801    8925.8521    77.853734    21.987154    25.416055 
 5180000    219.14848    35.619855    216009.12   -20673.041    1274.4712   -21947.513    762.53717    8927.5734    77.854077    21.987772    25.424055 
 5180200    219.13308    127.19606    216009.12   -20739.141    1274.3816   -22013.523    1119.4447    8926.1415    77.854297    21.988291    25.422982 
 5180400     222.2582    35.839152    216009.12   -20711.053     1292.556   -22003.609    767.97239    8926.9149     77.85521     21.98859    25.419766 
 5180600    225.61281   -24.811911    216009.12   -20646.699    1312.0649   -21958.764    503.39569    8926.7576    77.854438    21.989666    25.413942 
 5180800    225.85677    21.764508    216009.12    -20626.95    1313.4837   -21940.433    666.60222    8924.5177    77.854361    21.989317    25.414231 
 5181000    226.35459    94.056902    216009.12   -20665.359    1316.3788   -21981.738    944.81198     8924.138    77.854009    21.989925    25.416432 
 5181200    228.84046   -96.699945    216009.12   -20676.526    1330.8355   -22007.362    148.31282    8925.7274    77.853584    21.990774    25.419657 
 5181400    226.37946    13.430809    216009.12   -20716.156    1316.5234   -22032.679    609.24137    8926.7609    77.854105    21.990589    25.425356 
 5181600    232.80019    120.08466    216009.12   -20649.449    1353.8636   -22003.312    1107.3975    8920.5986    77.854214    21.990874    25.423521 
 5181800    220.68019   -86.916734    216009.12    -20728.58     1283.379   -22011.959    200.33333    8927.2361    77.854204    21.992362    25.422078 
 5182000    227.49187     9.252359    216009.12   -20651.306    1322.9927   -21974.299    564.47046    8925.8189    77.854289    21.992803    25.421005 
 5182200    233.45237    141.48699    216009.12   -20645.925    1357.6564   -22003.581    1162.1463    8922.8234    77.854326    21.992662    25.418712 
 5182400    227.33055   -16.614822    216009.12   -20626.184    1322.0546   -21948.238    502.67565     8927.515    77.853725    21.992175     25.41852 
 5182600    218.16011   -10.128057    216009.12   -20724.703    1268.7233   -21993.426    544.35834    8926.7354    77.853375    21.991343    25.415316 
 5182800    229.53453    123.07906    216009.12   -20666.475    1334.8719   -22001.347    1079.2187    8923.4859    77.853486    21.991617    25.418829 
 5183000    225.65289    34.326963    216009.12   -20645.842     1312.298    -21958.14    682.43097    8925.1965    77.853011    21.991175    25.416103 
 5183200    224.00994   -78.026654    216009.12   -20599.271    1302.7433   -21902.014    221.54251    8930.2415    77.852428     21.99205    25.424239 
 5183400    228.79208    105.92319    216009.12   -20613.107    1330.5542   -21943.661    1015.5492    8924.2225      77.8534    21.992821    25.422983 
 5183600    226.57902    68.674337    216009.12   -20693.302     1317.684   -22010.986    896.88166    8924.4771    77.852803    21.993423    25.422749 
 5183800    224.13694   -3.3133446    216009.12   -20719.081    1303.4819   -22022.563    621.17379    8927.3397    77.852869    21.993337    25.430875 
 5184000    223.36641    5.8802654    216009.12   -20723.381    1299.0009   -22022.382    603.65941    8926.6492    77.852283     21.99387    25.419807 
 5184200    222.93243    178.29636    216009.12   -20602.708     1296.477   -21899.185    1339.4252    8923.8324    77.851497    21.994239    25.416047 
 5184400    227.15592   -15.726464    216009.12   -20661.211     1321.039    -21982.25    515.99336    8926.3631    77.850224    21.995108    25.426557 
 5184600    225.64703   -2.2451351    216009.12   -20593.825    1312.2639   -21906.089    624.60614    8929.9228    77.849679    21.995542    25.428169 
 5184800    227.48923    100.30934    216009.12   -20653.352    1322.9774   -21976.329    983.05014    8923.6314    77.849301    21.995704    25.428483 
 5185000    220.69407    47.600156    216009.12   -20658.515    1283.4597   -21941.975    783.66139    8925.0659    77.849252    21.995439    25.421631 
 5185200    226.44148   -25.835351    216009.12    -20646.15    1316.8841   -21963.034    453.37278      8927.92    77.849539     21.99515     25.41554 
 5185400    220.07288     137.9173    216009.12   -20682.758    1279.8471   -21962.605    1161.1255    8924.1273    77.849555    21.995519    25.415674 
 5185600    224.06559     126.4527    216009.12   -20649.878     1303.067   -21952.945    1133.8598    8926.7096    77.849291    21.995929    25.408213 
 5185800    222.92112   -33.691755    216009.12   -20670.165    1296.4113   -21966.576    426.83721    8930.9766    77.849752    21.996528    25.414884 
 5186000    230.61989     135.7072    216009.12   -20629.055    1341.1839   -21970.239     1181.272    8926.7306    77.849572    21.997999    25.419203 
 5186200    223.94469    97.611922    216009.12   -20635.337    1302.3639   -21937.701    984.85359    8927.1285    77.850075    21.998991    25.416523 
 5186400    232.43679    -25.66897    216009.12   -20651.145    1351.7502   -22002.896    478.40855    8928.9317    77.849934    21.999687    25.413278 
 5186600    233.77555    118.84199    216009.12   -20646.545    1359.5358   -22006.081    1106.1336    8925.6249     77.84979    22.000927    25.410771 
 5186800    229.66492    178.65669    216009.12   -20634.355    1335.6302   -21969.985    1361.0509    8925.0822    77.850042     22.00175    25.410247 
 5187000    225.31277   -27.980737    216009.12   -20653.494      1310.32   -21963.814    455.02185    8930.2039    77.849474    22.001978    25.403031 
 5187200    223.48343    37.077281    216009.12   -20620.824    1299.6814   -21920.506    754.06228    8927.5871    77.849817    22.001825    25.411298 
 5187400    226.40452    134.62714    216009.12   -20637.317    1316.6692   -21953.986    1168.2821    8926.8508    77.850681    22.003107    25.410732 
 5187600    226.72644    -2.571543    216009.12   -20675.725    1318.5413   -21994.267    598.65206    8928.0706    77.850158    22.003967    25.410245 
 5187800    228.94424   -54.475667    216009.12   -20636.517    1331.4391   -21967.956    376.94932    8929.4396    77.849718    22.004987     25.41034 
 5188000    227.30154    113.08081    216009.12   -20661.568    1321.8859   -21983.454    1064.6051    8928.1463    77.849339     22.00567    25.410489 
 5188200    231.34291    65.892668    216009.12   -20615.757    1345.3887   -21961.145    850.26241    8926.1677    77.849544    22.006317    25.408654 
 5188400     232.8644   -71.495015    216009.12   -20647.938     1354.237   -22002.175    300.34522    8931.8948    77.850391    22.007036    25.408891 
 5188600    227.27191    109.24904    216009.12   -20654.291    1321.7135   -21976.004    1081.0903    8928.3162    77.849705    22.007845    25.409369 
 5188800     228.3032    140.88089    216009.12    -20699.58     1327.711   -22027.291     1193.771    8926.3367    77.849342    22.007911    25.405567 
 5189000    228.50872   -22.192078    216009.12   -20689.854    1328.9063   -22018.761    470.57949    8931.6439    77.849587    22.008834    25.407026 
 5189200    224.97759   0.36102077    216009.12   -20679.362    1308.3708   -21987.733    591.03257    8928.4003    77.847948    22.009513    25.415644 
 5189400    221.48573    114.70299    216009.12   -20737.059    1288.0637   -22025.123    1052.9814    8923.7875    77.847774    22.009293    25.416441 
 5189600    224.44406   -31.544625    216009.12   -20684.589     1305.268   -21989.857    420.24937    8929.3332    77.848037    22.008892    25.413227 
 5189800    229.14244   -9.6006041    216009.12   -20646.819    1332.5917   -21979.411     545.0711    8929.5342    77.847778    22.007189    25.416765 
 5190000    229.06863    103.80591    216009.12   -20686.979    1332.1625   -22019.142    980.28282    8927.7106    77.848223    22.006184    25.413292 
 5190200    225.81031    5.1871648    216009.12   -20658.074    1313.2135   -21971.288    599.31371    8930.5642     77.84846    22.005495    25.417013 
 5190400    229.44098     14.25668    216009.12   -20667.418    1334.3279   -22001.746    672.93136    8928.3493    77.849156    22.005169    25.423928 
 5190600    234.42829    109.76018    216009.12   -20597.173    1363.3319   -21960.504    1050.2398    8926.8169    77.850061    22.004196    25.419973 
 5190800    226.36752    7.0244777    216009.12   -20670.794     1316.454   -21987.248    583.70185    8929.6312    77.850434      22.0043    25.414092 
 5191000    226.77664   -28.612849    216009.12   -20644.239    1318.8333   -21963.072    474.30645     8930.851    77.850701    22.004358    25.417296 
 5191200    226.60803    103.05526    216009.12   -20637.218    1317.8527   -21955.071    1019.2442    8930.3665    77.850573    22.005091     25.41554 
 5191400    225.67873    94.283244    216009.12   -20671.438    1312.4483   -21983.887    996.16472    8929.6283    77.850353    22.004274    25.416813 
 5191600     227.5833     4.447385    216009.12   -20686.684    1323.5244   -22010.209    611.22401    8930.3282    77.850243    22.004485    25.414241 
 5191800    223.39843    6.2446462    216009.12   -20683.151     1299.187   -21982.338     650.2647    8931.1522    77.850504    22.004806    25.418182 
 5192000    228.92419    180.30738    216009.12   -20623.381    1331.3224   -21954.704    1384.6382    8927.4447    77.851755    22.004661    25.417091 
 5192200    233.21718   -20.596352    216009.12   -20592.804    1356.2886   -21949.093    524.28103    8930.2471     77.85234    22.004559    25.419089 
 5192400    225.54089   -49.106082    216009.12   -20668.923    1311.6467   -21980.569    364.15863     8929.472    77.851545    22.003276    25.418174 
 5192600    227.48083    64.762308    216009.12   -20662.694    1322.9285   -21985.622    827.21453    8928.0055    77.851585    22.001272    25.416624 
 5192800    232.29592    70.982565    216009.12   -20677.573     1350.931   -22028.504    875.89978    8928.9972    77.851058    22.000883    25.416653 
 5193000    231.59808   -79.373019    216009.12   -20636.629    1346.8726   -21983.502    192.72199    8931.2729    77.850453    22.000834    25.414152 
 5193200    222.47488    92.272904    216009.12   -20707.284    1293.8161     -22001.1    967.92846     8927.224    77.850616    21.999927    25.415164 
 5193400    231.24756    93.148867    216009.12   -20628.559    1344.8342   -21973.393    973.35842    8929.4178    77.850401    22.000061    25.413197 
 5193600    226.84184   -2.4446615    216009.12   -20657.315    1319.2124   -21976.528    589.07931    8930.6714    77.850951     21.99884    25.417753 
 5193800    223.32197    116.14615    216009.12   -20645.272    1298.7424   -21944.014    1063.0063    8926.5063    77.849145    21.999364    25.416983 
 5194000    227.88214    45.605306    216009.12   -20636.253    1325.2624   -21961.516    786.93446     8928.742    77.848419    21.998616    25.420538 
 5194200    219.20903   -16.053163    216009.12   -20713.486    1274.8233   -21988.309    550.23632     8929.282    77.847524    21.998626    25.421904 
 5194400    231.84777    140.82502    216009.12   -20688.936    1348.3247   -22037.261    1200.3054    8929.0653    77.846846    21.999025    25.428275 
 5194600    227.65158    152.12964    216009.12   -20645.963    1323.9215   -21969.884    1222.1582    8928.8073    77.845961    21.998735    25.428029 
 5194800    227.40363   -16.938866    216009.12   -20607.268    1322.4795   -21929.748    492.38337    8929.1091    77.845784    21.998249    25.428436 
 5195000    225.92584    87.843935    216009.12   -20678.699    1313.8854   -21992.584    980.48209    8929.3391    77.844714    21.999531    25.427509 
 5195200    234.40576    120.23202    216009.12   -20599.986    1363.2008   -21963.187    1050.3641    8928.8939    77.844281    22.000003    25.429898 
 5195400    219.15287   -44.658036    216009.12   -20667.902    1274.4968   -21942.399    357.57076    8931.1862    77.842979    22.000616    25.419268 
 5195600    230.50677    28.240383    216009.12     -20629.5     1340.526   -21970.026    685.00215    8930.3879    77.841839    22.001054    25.418992 
 5195800    219.67988    119.17131    216009.12   -20688.328    1277.5616    -21965.89    1027.3982    8927.2541    77.841968    22.001827    25.415924 
 5196000    233.84105   0.12339217    216009.12   -20599.383    1359.9167     -21959.3    556.53434    8929.1696    77.841664    22.002486    25.418371 
 5196200    229.05784    73.903441    216009.12   -20627.628    1332.0997   -21959.728    887.91254    8930.1194    77.841328    22.002708    25.419492 
 5196400     225.2572    168.04089    216009.12    -20679.33    1309.9968   -21989.327    1326.9409    8928.5322    77.840059     22.00181    25.417599 
 5196600    224.39402     39.74768    216009.12    -20641.36     1304.977   -21946.337    760.36693    8929.2382    77.839667    22.001362    25.418558 
 5196800    233.53033    42.444917    216009.12   -20659.612    1358.1098   -22017.721    774.70344    8930.3255    77.839991    22.001684    25.422232 
 5197000    226.96285    194.26086    216009.12   -20646.324    1319.9161    -21966.24    1415.9466    8928.2734    77.839814     22.00156    25.420195 
 5197200    231.02288    57.106747    216009.12   -20626.021    1343.5275   -21969.549    839.93637    8928.9362    77.841484    22.001999    25.420748 
 5197400    224.29867   -19.183493    216009.12   -20690.694    1304.4225   -21995.116    488.29494    8932.5417    77.840779    22.003416     25.41531 
 5197600    224.46381    180.27406    216009.12    -20695.62    1305.3828   -22001.003    1354.1021    8928.2211    77.840968    22.003034    25.418723 
 5197800    225.04184    61.913217    216009.12   -20709.175    1308.7444   -22017.919    863.70248     8928.505    77.840823    22.003014    25.417841 
 5198000    222.55549   -24.716134    216009.12   -20744.295    1294.2849   -22038.579    514.00183    8932.7833    77.840705    22.003648    25.411967 
 5198200    236.41261    133.48568    216009.12   -20651.572    1374.8718   -22026.444    1123.7481    8927.7262    77.840386    22.003378    25.414043 
 5198400    230.74135    84.965977    216009.12   -20641.579    1341.8902   -21983.469    923.09816    8925.9995    77.841075    22.003839    25.411959 
 5198600    224.02555   -88.997367    216009.12   -20649.478    1302.8341   -21952.312    178.84222    8934.1001    77.841678    22.004248    25.414411 
 5198800    223.40895    135.40944    216009.12   -20728.774    1299.2483   -22028.022     1156.041    8928.0913    77.841378    22.004753    25.410386 
 5199000    225.07317    198.91826    216009.12   -20693.377    1308.9266   -22002.303    1446.1897    8926.6587    77.841981    22.004724     25.41292 
 5199200    235.76717   -73.699386    216009.12   -20593.474    1371.1182   -21964.592    287.97261    8933.1859    77.841544    22.004738     25.41577 
 5199400    224.78947    33.615829    216009.12   -20713.952    1307.2767   -22021.229    715.52638    8929.7868    77.840855    22.004399    25.417861 
 5199600    229.49141    146.60775    216009.12   -20697.476    1334.6211   -22032.097    1181.8618    8926.6348    77.839632    22.004998    25.410596 
 5199800    229.57807   -6.5910199    216009.12   -20656.704    1335.1251   -21991.829     553.3194    8932.0712    77.839872    22.004003    25.414305 
 5200000    225.63549     15.68431    216009.12   -20683.354    1312.1968   -21995.551    624.06145    8929.0864    77.838783    22.004235    25.420826 
Loop time of 7016.93 on 160 procs for 5200000 steps with 9248 atoms

Performance: 640.280 ns/day, 0.037 hours/ns, 741.065 timesteps/s
97.7% CPU use with 160 MPI tasks x no OpenMP threads

MPI task timing breakdown:
Section |  min time  |  avg time  |  max time  |%varavg| %total
---------------------------------------------------------------
Pair    | 0.24232    | 1441.3     | 5578.2     |5176.4 | 20.54
Neigh   | 0.32771    | 90.558     | 357.32     |1228.1 |  1.29
Comm    | 11.274     | 1731.2     | 5586.5     |4594.8 | 24.67
Output  | 89.655     | 89.726     | 91.58      |   1.6 |  1.28
Modify  | 216.28     | 3564.8     | 6823.5     |4771.3 | 50.80
Other   |            | 99.31      |            |       |  1.42

Nlocal:    57.8 ave 196 max 0 min
Histogram: 72 21 27 0 0 0 0 0 13 27
Nghost:    535.163 ave 922 max 0 min
Histogram: 20 4 0 8 8 35 35 17 21 12
Neighs:    0 ave 0 max 0 min
Histogram: 160 0 0 0 0 0 0 0 0 0
FullNghs:  5869.61 ave 23588 max 0 min
Histogram: 111 9 0 0 0 0 0 1 21 18

Total # of neighbors = 939138
Ave neighs/atom = 101.55
Neighbor list builds = 546796
Dangerous builds = 0
write_data 		${DIR}/data.${NAME}_run
write_data 		run_5/data.${NAME}_run
write_data 		run_5/data.ibeam_cooling_5_run
Total wall time: 1:57:12
