
# Set production fixes - Nose/Hoover
#
fix                 4 water temp/csvr ${START_TEMP} ${END_TEMP} 500.0 928347
fix                 4 water temp/csvr 240 ${END_TEMP} 500.0 928347
fix                 4 water temp/csvr 240 227 500.0 928347


## divide "droplet" into core and surface
#region		core_reg cylinder z 135 135 44.6 20 INF units box
#region		surface_reg cylinder z 135 135 44.6 20 INF units box side out
#group		core dynamic all region core_reg
#group		surface dynamic all region surface_reg

## compute pressure core
#compute        peratom_core core stress/atom NULL
#compute        p_core core reduce sum c_peratom_core[1] c_peratom_core[2] c_peratom_core[3]
#variable       press_core equal -(c_p_core[1]+c_p_core[2]+c_p_core[3])/(3*1249982.5)


## compute pressure surface
#compute        peratom_surf surface stress/atom NULL
#compute        p_surf surface reduce sum c_peratom_surf[1] c_peratom_surf[2] #c_peratom_surf[3]
#variable       press_surf equal -(c_p_surf[1]+c_p_surf[2]+c_p_surf[3])/(3*42395)

## compute total pressure of drop
compute        peratom water stress/atom NULL
compute        p water reduce sum c_peratom[1] c_peratom[2] c_peratom[3]
variable       press equal -(c_p[1]+c_p[2]+c_p[3])/(3*50320)


# compute order parameter
compute        3 all orientorder/atom nnn NULL cutoff 3.5

# compute center of mass of bridge
compute 	4 water com

# Run simulation
thermo_style        custom step c_2 press vol etotal ke pe v_press c_1[4] c_4[*]
thermo              200
dump		     1 water custom 400 ${DIR}/prod.${NAME}.dump id type x y z vx vy vz c_3[*] c_peratom[*]
dump		     1 water custom 400 run_11/prod.${NAME}.dump id type x y z vx vy vz c_3[*] c_peratom[*]
dump		     1 water custom 400 run_11/prod.ibeam_cooling_11.dump id type x y z vx vy vz c_3[*] c_peratom[*]
run                 ${STEPS}
run                 5200000
Neighbor list info ...
  update every 1 steps, delay 0 steps, check yes
  max neighbors/atom: 2000, page size: 100000
  master list distance cutoff = 6.67472
  ghost atom cutoff = 6.67472
  binsize = 3.33736, bins = 48 13 11
  2 neighbor lists, perpetual/occasional/extra = 1 1 0
  (1) pair sw, perpetual
      attributes: full, newton on
      pair build: full/bin/atomonly
      stencil: full/bin/3d
      bin: standard
  (2) compute orientorder/atom, occasional, copy from (1)
      attributes: full, newton on
      pair build: copy
      stencil: none
      bin: none
Per MPI rank memory allocation (min/avg/max) = 0.8532 | 5.955 | 7.261 Mbytes
Step c_2 Press Volume TotEng KinEng PotEng v_press c_1[4] c_4[1] c_4[2] c_4[3] 
       0    233.94516   -422.08689    216009.12   -18702.567    1360.5222   -20063.089   -1230.4204    29.563737    78.757129    22.600951    25.566956 
     200     234.7083   -265.84662    216009.12   -18729.677    1364.9603   -20094.637   -562.45476    31.325828    78.757224    22.602457    25.573813 
     400    236.83498   -417.05938    216009.12   -18688.231    1377.3282   -20065.559    -1177.355     33.58808    78.756478    22.602341    25.581718 
     600    248.29333   -300.95856    216009.12   -18568.931    1443.9649   -20012.896   -727.41653    34.974231    78.756855    22.600219    25.589904 
     800    248.16468   -287.06123    216009.12   -18545.925    1443.2167   -19989.142   -639.70827    36.415075    78.757222    22.598696    25.583523 
    1000    235.98844   -436.60674    216009.12   -18628.093    1372.4051   -20000.498   -1307.9039    37.442896    78.756749    22.598358    25.602719 
    1200    239.41144   -409.72182    216009.12   -18579.262    1392.3117   -19971.574   -1170.6982    37.948069    78.758606    22.600201    25.605546 
    1400     240.4845   -359.16783    216009.12   -18589.204    1398.5521   -19987.756   -967.52583    39.975491    78.757669    22.599374    25.620936 
    1600    250.13555   -224.76259    216009.12   -18605.134    1454.6784   -20059.813   -407.55709    41.854742    78.758383    22.599069     25.59262 
    1800     242.0386   -321.80247    216009.12    -18572.63    1407.5901    -19980.22   -761.44739    43.713688    78.755954    22.600824    25.583792 
    2000    242.67295   -282.70613    216009.12   -18526.134    1411.2792   -19937.413   -630.63291    45.568904    78.756382    22.601111    25.581707 
    2200    239.82489   -190.30623    216009.12   -18605.856    1394.7161   -20000.572   -241.24294    46.901236    78.757212    22.600615    25.578737 
    2400    242.57451   -369.34884    216009.12   -18559.055    1410.7067   -19969.762   -976.86745    48.366339    78.759954    22.601014    25.599936 
    2600    240.52711   -212.84266    216009.12   -18597.916    1398.7999   -19996.716     -344.406    50.472414    78.759635    22.601849    25.605283 
    2800    246.76032   -381.10014    216009.12   -18537.628    1435.0496   -19972.678   -1025.2196     51.65437    78.758841    22.603778    25.619186 
    3000     248.6215   -365.17167    216009.12   -18584.327    1445.8734     -20030.2   -956.76701    53.024701     78.75814    22.601867    25.628654 
    3200    229.96676    -445.7128    216009.12   -18653.192    1337.3856   -19990.578   -1334.2611     55.29897     78.75869    22.601156     25.62956 
    3400    239.51482   -368.75033    216009.12   -18615.957    1392.9129    -20008.87   -971.84602    56.586557    78.759434    22.600366    25.585603 
    3600    239.15959   -382.99007    216009.12   -18597.261    1390.8471   -19988.109   -1030.2426    56.390777     78.75862    22.601489     25.58292 
    3800    250.70921   -295.41116    216009.12   -18568.168    1458.0146   -20026.182   -674.98876    58.588664    78.755819    22.602607    25.578205 
    4000    238.73976   -361.47902    216009.12   -18648.204    1388.4055   -20036.609   -974.73818    60.987848    78.756683     22.60366    25.541994 
    4200    239.96814   -374.60273    216009.12   -18581.786    1395.5492   -19977.335   -1010.9465    62.634701    78.758162    22.604358     25.52965 
    4400    245.70638   -355.11024    216009.12   -18608.237    1428.9203   -20037.157   -969.10326    63.238684    78.758977     22.60326    25.535629 
    4600    235.39006   -352.83623    216009.12   -18707.612    1368.9251   -20076.537   -939.95051    64.164581    78.760944    22.600344    25.511322 
    4800    245.21652   -116.55913    216009.12   -18570.929    1426.0715   -19997.001    112.81349    64.820197    78.760526    22.600531    25.502529 
    5000    239.75539   -384.84249    216009.12   -18618.311     1394.312   -20012.623   -1056.4207    66.141376    78.757756    22.601128    25.501349 
    5200    237.45787   -269.79438    216009.12   -18609.329    1380.9506    -19990.28   -557.07464    67.081318    78.758442    22.602431    25.519219 
    5400    237.22967   -69.689531    216009.12   -18645.163    1379.6235   -20024.787    247.67813    67.357663    78.759797    22.602595     25.52781 
    5600    236.42978   -313.19619    216009.12   -18669.195    1374.9717   -20044.167   -751.08417     68.11661    78.758596    22.604256    25.540527 
    5800    242.77748   -181.80079    216009.12   -18605.542    1411.8871   -20017.429   -236.66616    69.241601    78.757542    22.606603    25.547626 
    6000     233.5018   -318.33035    216009.12   -18657.761    1357.9438   -20015.705   -750.62501    70.337352    78.759435    22.605933     25.53788 
    6200    235.58996   -291.52629    216009.12   -18657.483    1370.0877    -20027.57   -690.52126    71.759094    78.764092    22.601687    25.551437 
    6400    241.18396   -183.20121    216009.12   -18604.361    1402.6199   -20006.981   -213.47006    73.299955     78.76454     22.60067    25.566831 
    6600    238.10436   -269.10749    216009.12   -18620.927    1384.7103   -20005.638   -589.88677    74.218302    78.763478    22.600701    25.550411 
    6800     233.4231   -265.72845    216009.12   -18607.191    1357.4862   -19964.678   -542.66651    76.430659    78.763087    22.597906    25.568105 
    7000      235.118   -287.06685    216009.12   -18581.017    1367.3429    -19948.36   -644.10935    78.447824    78.763011    22.595953    25.555454 
    7200    237.46933   -272.74243    216009.12   -18654.819    1381.0172   -20035.836   -568.67559    79.657899    78.763272    22.597026    25.566794 
    7400    236.86681   -359.91111    216009.12   -18623.552    1377.5133   -20001.065   -970.24567    81.999442    78.762418    22.598895    25.577118 
    7600    243.30801   -171.44238    216009.12   -18563.167    1414.9724    -19978.14   -154.78762     84.01689     78.76147    22.603119     25.55719 
    7800    231.92613    -299.7796    216009.12   -18655.618    1348.7804   -20004.398   -666.33146    85.416626    78.761928    22.602731    25.552585 
    8000    246.93568   -449.68366    216009.12   -18523.195    1436.0694   -19959.265   -1317.8976    86.111697    78.762009    22.602939    25.549394 
    8200    242.38568   -326.96997    216009.12   -18550.723    1409.6086   -19960.331   -801.54317    86.972486     78.75921    22.601815    25.561151 
    8400    243.35617   -445.22695    216009.12   -18517.591    1415.2525   -19932.843   -1264.9422    87.780984    78.758139    22.601301    25.542338 
    8600     242.6257   -315.21601    216009.12   -18588.613    1411.0044   -19999.617   -777.35632    89.705628    78.757461    22.603015    25.520988 
    8800    241.02748    -390.4516    216009.12   -18613.508    1401.7099   -20015.218   -1044.2917    91.175193    78.758507    22.604554    25.526995 
    9000    244.98404   -316.70284    216009.12   -18619.237    1424.7195   -20043.957   -743.28921      92.4816    78.757967    22.605936    25.515567 
    9200    239.81535   -310.32364    216009.12   -18579.676    1394.6607   -19974.337   -748.87623    93.315101    78.757155    22.606529    25.499497 
    9400     239.7042   -222.10173    216009.12   -18622.774    1394.0142   -20016.788   -361.54768    94.459848     78.75771    22.604625    25.467121 
    9600    235.95634   -336.76643    216009.12   -18666.045    1372.2183   -20038.264   -855.54923    95.220652    78.758373    22.601309    25.458886 
    9800    245.74228   -403.67236    216009.12    -18538.16    1429.1291   -19967.289   -1170.2055    96.985573    78.761004    22.601008    25.457411 
   10000    237.80652   -267.26151    216009.12   -18585.129    1382.9782   -19968.107   -563.28601     98.58061    78.761753    22.601061    25.481462 
   10200    243.76929   -419.13063    216009.12    -18481.87     1417.655   -19899.525   -1156.0762    101.22902    78.762549    22.602489    25.464443 
   10400    243.35622   -306.37094    216009.12   -18518.018    1415.2528   -19933.271   -678.92201    103.27203    78.764248    22.599622     25.45218 
   10600    237.25008   -334.02663    216009.12    -18622.73    1379.7421   -20002.472   -856.81776    104.59654    78.764238    22.597022    25.433396 
   10800     234.5358    -404.0497    216009.12   -18620.254    1363.9571   -19984.211   -1121.1117    106.08414    78.763191    22.597358    25.432442 
   11000    239.11584   -419.76579    216009.12   -18608.674    1390.5926   -19999.267   -1183.6892    106.98289    78.763455    22.597147    25.413486 
   11200    236.62641   -398.63578    216009.12   -18608.393    1376.1152   -19984.508   -1088.3352    108.82312    78.762344    22.595606    25.424151 
   11400    237.33522   -162.80654    216009.12   -18605.163    1380.2373   -19985.401   -80.256608    110.22475    78.763428    22.593952    25.405338 
   11600    246.95548   -310.44474    216009.12   -18513.016    1436.1845   -19949.201   -750.92767    113.01923    78.761062    22.593434    25.399704 
   11800    243.03249   -210.01636    216009.12   -18491.722    1413.3701   -19905.092   -343.83841    114.09581    78.757921    22.592174    25.393952 
   12000     237.0626   -397.24982    216009.12   -18488.975    1378.6519   -19867.626   -1146.4219    117.27238    78.758632    22.591615     25.40987 
   12200    242.48406   -360.99447    216009.12   -18519.195    1410.1807   -19929.376   -976.59897    119.39345    78.755847    22.591748    25.410666 
   12400    244.19544   -313.65423    216009.12   -18520.142    1420.1333   -19940.275   -789.24696    120.58691    78.753868    22.591357    25.426696 
   12600    245.72647   -233.05634    216009.12   -18462.151    1429.0371   -19891.188   -424.14946    123.39767    78.753736    22.592884    25.456737 
   12800    238.31484   -333.09192    216009.12    -18517.93    1385.9343   -19903.864   -832.18417    126.18811    78.753643    22.590433    25.490955 
   13000    236.17964   -295.64495    216009.12   -18563.209     1373.517   -19936.726   -721.33379    128.50167    78.753732    22.590677    25.499842 
   13200     237.8288   -387.04606    216009.12   -18578.839    1383.1077   -19961.947   -1073.8472     130.6692    78.753297    22.589736     25.48733 
   13400    233.68567   -323.19431    216009.12    -18655.95    1359.0132   -20014.963   -799.00359    133.62635    78.755268    22.590797    25.483148 
   13600    235.11022   -258.41313    216009.12   -18636.854    1367.2977   -20004.151   -541.74002     134.3354    78.754954    22.590912    25.474025 
   13800     245.4975   -347.85239    216009.12   -18561.391    1427.7056   -19989.096   -914.70585    134.34564    78.754779    22.592167    25.442383 
   14000    243.39551   -311.06728    216009.12   -18499.995    1415.4813   -19915.476   -733.88019    136.40559    78.757392    22.591123     25.44877 
   14200    237.08504   -275.01232    216009.12   -18580.114    1378.7824   -19958.896   -624.82847    137.79432    78.757485    22.590146    25.429997 
   14400    242.29793   -268.11066    216009.12   -18635.058    1409.0982   -20044.156   -568.18838    139.14251    78.758367    22.590701    25.421193 
   14600      243.062   -427.02397    216009.12   -18611.735    1413.5417   -20025.277   -1236.9804    140.67951     78.75691    22.592665    25.409499 
   14800    239.85566   -466.73759    216009.12   -18569.442    1394.8951   -19964.337   -1414.1377    141.25101    78.755513    22.593501    25.393147 
   15000    238.71923   -334.49432    216009.12   -18595.079    1388.2861   -19983.365   -882.03113     142.9342    78.756977    22.592477    25.389389 
   15200    240.07373   -259.89589    216009.12   -18565.799    1396.1633   -19961.962   -508.44272    145.51529    78.756514    22.591437    25.400345 
   15400    231.21455   -362.77396    216009.12   -18590.496    1344.6422   -19935.138   -964.36466     148.1247     78.75677    22.591786    25.424934 
   15600    250.59196   -273.36937    216009.12   -18429.672    1457.3327   -19887.005   -585.12384    148.60867    78.757599     22.59447    25.441991 
   15800    245.41101   -354.64811    216009.12   -18485.213    1427.2026   -19912.415   -896.97791    148.70149     78.75817     22.59295    25.442742 
   16000    246.10209   -284.69871    216009.12   -18551.278    1431.2216   -19982.499   -629.04394     147.5891     78.75704    22.594131    25.421039 
   16200    236.64607   -427.49687    216009.12   -18528.968    1376.2295   -19905.197   -1225.3292    148.58261    78.756892    22.594614    25.433528 
   16400    236.38516   -413.89232    216009.12   -18561.272    1374.7122   -19935.984    -1160.466    150.04713    78.758278     22.59519    25.431155 
   16600     238.2167   -233.94316    216009.12   -18505.558    1385.3636   -19890.921   -409.68845    150.54777    78.759438    22.595695    25.448629 
   16800    247.06403   -159.19434    216009.12    -18547.17    1436.8158   -19983.986   -89.663737    152.42542    78.757296    22.598454     25.46231 
   17000    242.99801   -521.30073    216009.12   -18612.816    1413.1696   -20025.986   -1637.9028    155.17923    78.756732    22.600308    25.453018 
   17200    239.08896   -207.01463    216009.12   -18611.343    1390.4363   -20001.779   -353.34114    156.91026    78.756528    22.600126    25.496307 
   17400    237.17741     -385.743    216009.12   -18666.737    1379.3196   -20046.057   -1085.1375    157.94273    78.755877     22.60023    25.481129 
   17600    238.65072   -371.03593    216009.12   -18591.477    1387.8877   -19979.364   -1017.0555    159.87958    78.754982    22.600587    25.508043 
   17800    237.14427   -196.99945    216009.12   -18619.079    1379.1268   -19998.206   -254.70206    160.95031    78.753134    22.600487    25.507306 
   18000    241.91443   -391.94936    216009.12   -18551.931     1406.868   -19958.799    -1090.933    163.26455    78.750945    22.601146    25.503011 
   18200    242.72588   -262.53281    216009.12   -18589.022     1411.587    -20000.61    -559.4616    163.90657    78.749885    22.600416    25.494894 
   18400    238.79259   -258.59685    216009.12   -18585.749    1388.7128   -19974.462   -544.04342    164.61175    78.748234    22.601066    25.516275 
   18600    239.85704   -227.24821    216009.12   -18572.798    1394.9031   -19967.701   -405.71544    166.64799    78.748414    22.601124    25.496967 
   18800    239.25987   -203.60734    216009.12   -18605.598    1391.4302   -19997.029   -321.36032    168.71401    78.748437    22.600591    25.464686 
   19000    238.09465   -305.59433    216009.12   -18528.835    1384.6538   -19913.489   -735.30114    172.43446    78.748318    22.601309    25.471878 
   19200    242.14218   -217.79704    216009.12    -18525.77    1408.1925   -19933.962   -372.87711    175.22697    78.745804     22.60318    25.502392 
   19400    242.60101   -230.19158    216009.12   -18489.944    1410.8609   -19900.805   -408.11107    180.48327    78.745384    22.602992    25.495892 
   19600    242.59169   -392.70483    216009.12   -18504.397    1410.8066   -19915.203   -1142.8426    182.91338     78.74734    22.603021     25.49527 
   19800     245.8373   -176.69184    216009.12   -18496.763    1429.6817   -19926.444   -171.95773    183.28089    78.744914    22.607347    25.477364 
   20000    243.78724   -155.97175    216009.12    -18526.35    1417.7594    -19944.11   -73.245558    183.50109    78.745665    22.609071    25.496704 
   20200    230.32891   -253.14859    216009.12   -18587.249    1339.4917    -19926.74   -456.94606    185.42587    78.744746    22.612382     25.49376 
   20400    245.59273   -244.37366    216009.12   -18489.028    1428.2594   -19917.287    -457.5934    188.41853    78.742648    22.612122    25.513765 
   20600    239.46411   -331.91204    216009.12   -18614.913     1392.618   -20007.531   -808.75515    188.16696    78.742873    22.613581    25.529625 
   20800    241.96474   -229.94825    216009.12   -18575.057    1407.1606   -19982.218   -442.58529    188.54077    78.744944    22.613605     25.53782 
   21000    241.12737   -287.94807    216009.12   -18598.729    1402.2908    -20001.02   -720.46741     186.5613    78.746757    22.613504     25.53481 
   21200     242.8405   -414.55436    216009.12   -18552.172    1412.2536   -19964.426   -1225.7026     184.5491    78.746373    22.613431    25.538467 
   21400    241.78915   -333.96931    216009.12   -18574.681    1406.1394   -19980.821   -827.64333    185.26405    78.746511    22.613351    25.531148 
   21600    246.57778   -316.23193    216009.12   -18460.566     1433.988   -19894.554   -814.26987    185.73854    78.745068    22.614029    25.536811 
   21800    242.06434   -320.77284    216009.12   -18596.346    1407.7398   -20004.086   -804.90628    186.12551    78.744543    22.615033    25.533976 
   22000     237.4436   -187.44243    216009.12   -18633.194    1380.8676   -20014.062   -257.38801    187.17435    78.744552    22.615864    25.536442 
   22200    232.39959   -456.89257    216009.12   -18650.509    1351.5338   -20002.043   -1394.5961      184.906      78.7436    22.618769    25.534887 
   22400    240.94487   -153.48723    216009.12   -18525.155    1401.2294   -19926.384    -71.82324    184.40652    78.742702    22.619135    25.547602 
   22600    241.32627   -271.56218    216009.12   -18548.905    1403.4475   -19952.353   -539.76953    186.82232    78.742014    22.620706     25.57239 
   22800    246.51223   -440.05801    216009.12   -18531.549    1433.6068   -19965.155   -1299.4796    188.34373    78.740942    22.619124    25.567435 
   23000    240.99837   -274.90563    216009.12   -18578.365    1401.5406   -19979.906   -619.77892    190.77952    78.741925    22.616532    25.552494 
   23200    238.13789   -465.81366    216009.12   -18539.077    1384.9053   -19923.982    -1394.601    193.38323    78.743933     22.61351    25.565786 
   23400    237.51605   -161.95646    216009.12     -18556.8    1381.2889   -19938.088   -154.58836    193.65472    78.745204    22.609672    25.557784 
   23600    242.53626   -294.90464    216009.12   -18506.394    1410.4843   -19916.878   -669.77724    195.74253    78.745658    22.607638     25.56171 
   23800    240.60741   -276.63905    216009.12   -18546.941    1399.2669   -19946.208   -613.42655    198.55926    78.747356    22.607012    25.572243 
   24000    242.95597   -208.01039    216009.12   -18569.831    1412.9251   -19982.756   -307.55184    199.79994    78.750381     22.60634    25.549339 
   24200    244.36358   -331.97032    216009.12   -18556.356    1421.1112   -19977.467   -855.56121    202.77977    78.751464    22.604193    25.553373 
   24400    235.85805   -201.35094    216009.12   -18599.545    1371.6467   -19971.191   -284.82373    203.83365    78.753471    22.607543    25.522697 
   24600    234.35784   -259.75488    216009.12   -18651.872    1362.9222   -20014.794   -562.45449    204.74091    78.753652    22.609337    25.509744 
   24800    240.04454   -388.24304    216009.12   -18616.373    1395.9935   -20012.367   -1068.2256    207.10792    78.752643    22.609828    25.511005 
   25000    236.04856   -278.64643    216009.12   -18631.037    1372.7546   -20003.792   -565.70174    208.55219    78.753412    22.608569    25.507317 
   25200    232.94415     -228.864    216009.12   -18731.257    1354.7008   -20085.957   -428.45595    211.92761    78.753234    22.608296    25.508268 
   25400    238.58507    -191.0256    216009.12   -18630.559    1387.5059   -20018.065   -222.04726    212.97347    78.752749    22.606908    25.485727 
   25600     249.8726   -331.17097    216009.12   -18499.327    1453.1492   -19952.476   -795.97197    214.16476    78.752934    22.604739    25.487076 
   25800    237.90512   -297.07033    216009.12   -18555.753    1383.5516   -19939.305    -732.2541      214.588    78.752954     22.60622    25.512217 
   26000    239.03135   -346.92498    216009.12   -18573.322    1390.1013   -19963.424   -953.43641    215.91299    78.750605    22.606524    25.544765 
   26200    234.23833   -351.89094    216009.12   -18587.878    1362.2271   -19950.105   -933.60977    217.55102    78.749176    22.606527    25.562249 
   26400    237.43893   -283.55621    216009.12   -18631.283    1380.8404   -20012.123   -617.63585    219.40958    78.750342    22.603953    25.577396 
   26600    247.56351   -239.60316    216009.12    -18551.12    1439.7205   -19990.841   -486.19751     222.5838    78.751512    22.605831    25.592497 
   26800    238.41575   -185.54596    216009.12   -18596.657    1386.5212   -19983.178   -270.03913    223.13003    78.750454    22.605184    25.584627 
   27000    251.02766   -279.98754    216009.12   -18529.056    1459.8665   -19988.922    -598.0049    223.44639    78.749764     22.60602    25.587086 
   27200     242.0393   -566.41991    216009.12   -18597.391    1407.5942   -20004.985   -1881.8508    223.60087    78.747572    22.604313    25.596932 
   27400     239.1279   -438.88449    216009.12   -18535.507    1390.6628    -19926.17   -1331.4335    225.07776    78.746795    22.605872    25.603955 
   27600    230.71191   -418.74173    216009.12   -18655.007    1341.7191   -19996.726   -1278.8185    227.18985    78.744866    22.606909    25.575835 
   27800    246.05119   -449.20963    216009.12   -18568.078    1430.9256   -19999.003   -1351.5512    227.45981    78.742628    22.609919    25.562975 
   28000     236.9853   -278.96597    216009.12   -18643.371    1378.2023   -20021.573   -639.92043    229.31287    78.744801    22.611187    25.547662 
   28200    241.24483   -190.31318    216009.12   -18610.197    1402.9739   -20013.171   -242.14008    229.59672    78.742952    22.610313    25.555173 
   28400    237.56802   -213.62863    216009.12   -18614.191    1381.5912   -19995.782   -377.61056    231.37145    78.741239    22.610869    25.568414 
   28600    239.61411   -321.95948    216009.12   -18608.728    1393.4903   -20002.219   -813.89038    232.03758    78.742052    22.612345    25.563166 
   28800    237.37456   -228.12895    216009.12   -18575.165    1380.4661   -19955.631   -372.62686    233.97179    78.741736    22.614163    25.589502 
   29000    244.02731   -236.87954    216009.12    -18552.44    1419.1556   -19971.596   -459.80411    236.98891    78.739773    22.617381    25.582964 
   29200     244.8431   -301.88889    216009.12   -18512.183    1423.8998   -19936.083   -749.46627    239.24437    78.739039    22.618695    25.589649 
   29400    238.87229   -286.58055    216009.12   -18544.349    1389.1762   -19933.526   -649.99042    241.47474    78.741075    22.620722    25.616244 
   29600    241.18492   -332.37456    216009.12   -18558.688    1402.6254   -19961.313   -860.21749    242.44983    78.742601    22.622565     25.62467 
   29800    239.76361   -283.46634    216009.12   -18632.943    1394.3598   -20027.303   -654.79762    242.28007    78.742373    22.625074    25.637892 
   30000    243.20581   -319.43075    216009.12   -18659.438    1414.3781   -20073.816   -774.32055    242.87606    78.741743    22.626413    25.642565 
   30200    235.91212   -139.94301    216009.12   -18633.072    1371.9612   -20005.033   -39.358692    243.65503    78.741526    22.627428    25.646095 
   30400    240.75586    -161.6133    216009.12   -18633.952    1400.1302   -20034.082   -97.509132    242.74424     78.74194    22.626094    25.642358 
   30600    243.29287   -109.28741    216009.12   -18691.542    1414.8844   -20106.426    118.35448    243.69555    78.741416    22.624166    25.632442 
   30800    238.33878   -356.98347    216009.12   -18643.289    1386.0735   -20029.363   -920.83067    244.24183    78.739641    22.621847    25.617186 
   31000    244.50147   -371.32126    216009.12   -18625.909    1421.9131   -20047.822   -1020.9613    243.99069    78.739822    22.618436    25.628168 
   31200    238.64239   -147.21667    216009.12    -18602.18    1387.8392   -19990.019   -101.48213    244.32578    78.737569    22.615899    25.638263 
   31400    239.58075   -385.08489    216009.12   -18591.157    1393.2963   -19984.453   -1090.3795    245.57832    78.735563    22.614679     25.63038 
   31600      234.531   -227.80244    216009.12   -18622.607    1363.9292   -19986.536   -416.12148     248.0081    78.735169    22.614362    25.631888 
   31800    245.32806   -240.21072    216009.12   -18534.519    1426.7202    -19961.24   -440.61587    249.44245    78.732253    22.614894    25.655982 
   32000    235.56477   -461.70051    216009.12   -18636.943    1369.9411   -20006.884   -1399.8783    252.95992     78.73238    22.614138    25.649587 
   32200     239.8956   -336.97298    216009.12   -18609.669    1395.1273   -20004.797   -829.80149    253.01466    78.734076    22.613407     25.64116 
   32400    243.31153   -398.23386    216009.12   -18598.267    1414.9929    -20013.26   -1126.0453    254.36991    78.733032    22.614931    25.618358 
   32600    242.00783   -329.28686    216009.12   -18541.598    1407.4111   -19949.009   -837.03203    256.56981    78.730213    22.614813    25.625894 
   32800    238.50758   -294.18203    216009.12   -18533.106    1387.0552   -19920.162    -699.2666    257.79146    78.727366    22.613014    25.618096 
   33000    244.79874    -333.2788    216009.12   -18522.427    1423.6418   -19946.069   -840.23399    259.53282     78.72831    22.611767    25.606903 
   33200    240.80858   -350.69464    216009.12   -18564.729    1400.4369   -19965.166   -949.68708    258.81128    78.726631    22.611731    25.637888 
   33400    233.48946   -350.98159    216009.12   -18626.405    1357.8721   -19984.277   -921.47089    260.05845    78.725863    22.613051    25.610078 
   33600     238.8839   -348.06596    216009.12   -18631.792    1389.2437   -20021.036     -877.711    260.23796    78.726551    22.613586    25.588915 
   33800     248.0657   -204.98515    216009.12   -18493.981     1442.641   -19936.622   -282.70117    261.32883    78.727847    22.613801    25.575902 
   34000    241.36772   -292.01809    216009.12   -18657.367    1403.6885   -20061.056   -647.60623    262.78339    78.730038    22.613211    25.586349 
   34200     236.9591   -300.39759    216009.12   -18610.814      1378.05   -19988.864   -720.83418    263.02673    78.727894    22.614726    25.609608 
   34400    240.24747   -372.48856    216009.12   -18645.731    1397.1737   -20042.905   -1021.9568    263.51283    78.726146    22.614289    25.607832 
   34600    247.40822   -259.86696    216009.12   -18528.268    1438.8175   -19967.085   -543.58822    265.58039    78.726406    22.613148    25.618997 
   34800    236.23892    -280.6463    216009.12   -18616.464    1373.8617   -19990.325   -606.78319    267.53942    78.726834    22.611776    25.625859 
   35000     235.8072    -338.6408    216009.12   -18649.793     1371.351   -20021.144   -905.30292    269.70477    78.726466    22.612187    25.617444 
   35200    246.07641    -288.4486    216009.12     -18546.5    1431.0722   -19977.573   -621.58243     270.2774    78.727092    22.611443    25.635508 
   35400    241.09262   -236.85627    216009.12   -18566.587    1402.0887   -19968.676   -389.61138    272.04838    78.726232    22.612643    25.630431 
   35600    240.55758   -333.74935    216009.12   -18545.015    1398.9772   -19943.992   -861.45037    273.84488     78.72534    22.613258    25.640431 
   35800    246.36741   -270.05772    216009.12   -18489.033    1432.7646   -19921.797   -590.55386    275.19314    78.729003    22.613699    25.622259 
   36000    238.10506    -370.3169    216009.12   -18616.595    1384.7143   -20001.309   -1034.8832    276.05253    78.728014     22.61282    25.631359 
   36200    239.15447    -282.2268    216009.12   -18547.458    1390.8173   -19938.275   -633.70169    277.33565    78.728564    22.613772    25.616528 
   36400     241.1901   -257.01625    216009.12   -18522.846    1402.6556   -19925.501   -585.23858    279.13447    78.727659    22.611982    25.623601 
   36600    245.31536   -395.97382    216009.12   -18534.282    1426.6463   -19960.929   -1120.9579      282.946    78.726916    22.610998     25.59703 
   36800    238.73175   -264.76685    216009.12   -18635.174    1388.3589   -20023.533   -567.01159    284.77223     78.72681     22.61106    25.558451 
   37000    240.51815   -296.44631    216009.12   -18595.361    1398.7478   -19994.109   -647.56059    285.42177    78.727134    22.611949    25.533058 
   37200    233.93062   -237.59609    216009.12   -18623.399    1360.4377   -19983.836   -391.58336     287.9833    78.725991    22.611655      25.5276 
   37400    238.45179   -432.90395    216009.12   -18597.849    1386.7308   -19984.579   -1205.6593    290.33657    78.727113    22.612265    25.494001 
   37600    237.58518   -393.52439    216009.12   -18638.117     1381.691   -20019.808   -1100.0741    290.85071    78.726476    22.612173    25.509851 
   37800    236.36605   -212.64171    216009.12   -18689.601     1374.601   -20064.202   -328.29703    290.99107    78.727543    22.611678    25.522708 
   38000    237.81786   -230.04626    216009.12   -18611.037    1383.0441   -19994.081   -408.03763    290.63556    78.728281    22.611302    25.517709 
   38200    237.66223   -471.32507    216009.12   -18617.483    1382.1391   -19999.622   -1424.6208     291.7528    78.727348    22.612421    25.527553 
   38400    237.15738   -188.09812    216009.12   -18565.644     1379.203   -19944.847   -215.86671    290.88826     78.72764    22.614187    25.532827 
   38600    239.19581   -389.14193    216009.12   -18564.734    1391.0577   -19955.791   -1060.3762    292.81464    78.729566    22.614878     25.52516 
   38800    245.25233   -374.76383    216009.12   -18559.363    1426.2797   -19985.642   -986.37306    293.65135    78.728416    22.615743    25.530088 
   39000    248.36035   -315.30614    216009.12   -18490.909    1444.3546   -19935.264   -767.02887    295.55254    78.727612    22.617931     25.53654 
   39200     238.0922   -368.24424    216009.12   -18609.111    1384.6396   -19993.751   -958.75925    299.19492    78.726107    22.617159     25.55624 
   39400    239.91223   -341.85449    216009.12   -18572.702     1395.224   -19967.926   -878.72566    300.87101    78.725318      22.6157    25.552518 
   39600    247.08251   -405.45196    216009.12   -18570.445    1436.9233   -20007.368   -1124.8732    304.19301    78.726539    22.614789    25.547793 
   39800    238.48905   -430.29598    216009.12   -18645.435    1386.9475   -20032.382   -1258.9483    306.27118    78.727998    22.612664    25.555726 
   40000    244.81424    -289.3763    216009.12   -18602.909     1423.732   -20026.641   -648.73016    306.68656    78.729618      22.6121     25.55424 
   40200    235.08298   -388.32676    216009.12   -18593.209    1367.1393   -19960.348   -1035.3182    307.56153    78.730676    22.613579    25.560108 
   40400    233.46741    -319.4027    216009.12   -18666.201    1357.7438   -20023.945   -748.89077    308.00561    78.727676    22.615533    25.547852 
   40600    240.90509    -346.6718    216009.12   -18587.277    1400.9981   -19988.275   -886.33857    309.57208     78.72865    22.616605    25.561673 
   40800    239.67762   -233.26687    216009.12   -18665.995    1393.8597   -20059.855   -374.58552    309.85334    78.728338    22.615649    25.554663 
   41000    245.16484   -289.34917    216009.12   -18630.638    1425.7709   -20056.409   -683.13553    310.15202    78.730041    22.616004     25.54128 
   41200    246.29366   -404.79993    216009.12    -18546.72    1432.3356   -19979.056   -1154.5304    311.80784    78.730175    22.614852    25.550749 
   41400    240.09973   -273.35432    216009.12   -18578.919    1396.3145   -19975.234   -616.69566    312.38456    78.729173    22.612518    25.541761 
   41600     243.3028   -324.13621    216009.12   -18550.985    1414.9421   -19965.927   -839.50154    315.31147    78.729362    22.612829    25.535968 
   41800    242.52648   -289.46556    216009.12   -18586.911    1410.4274   -19997.339   -652.34323    314.99107    78.732467    22.611522    25.542915 
   42000    236.64134   -191.81256    216009.12   -18615.134     1376.202   -19991.336   -214.01466    315.53304    78.733185    22.613237    25.542202 
   42200    234.90553   -407.17067    216009.12   -18658.064    1366.1073   -20024.172   -1143.9322    317.01112    78.732385    22.615872    25.543467 
   42400     240.8353   -373.42037    216009.12   -18596.485    1400.5922   -19997.077   -991.45917    318.77671    78.731641    22.618844    25.517844 
   42600    239.34604   -559.30334    216009.12   -18642.247    1391.9313   -20034.178   -1758.8778    320.30488    78.730022     22.61812    25.544425 
   42800    241.27065   -145.56564    216009.12   -18608.657     1403.124   -20011.781   -37.977587    320.06904     78.73063    22.619344    25.568323 
   43000    243.39573   -259.59843    216009.12   -18633.073    1415.4826   -20048.556   -528.87599    320.26936    78.731484    22.621285    25.578832 
   43200    245.59239   -330.80671    216009.12   -18610.328    1428.2574   -20038.585   -818.27975    322.51117    78.732384     22.62369    25.561822 
   43400      237.878   -361.13378    216009.12   -18605.187    1383.3939   -19988.581   -965.48171    321.03815    78.735827    22.624069    25.587517 
   43600    244.84879   -424.07715    216009.12   -18617.488    1423.9329   -20041.421   -1253.3566    322.89842    78.735586    22.624787    25.587734 
   43800    237.16354   -333.29684    216009.12   -18693.348    1379.2389   -20072.587   -826.93642     323.0505    78.734193    22.625084    25.577609 
   44000    235.01443   -420.96075    216009.12   -18693.076    1366.7406   -20059.816   -1226.4663    325.14442     78.73512    22.626224    25.572879 
   44200    233.26804   -353.19851    216009.12   -18613.731    1356.5843   -19970.316   -918.85051    326.26104    78.735364    22.625323    25.534693 
   44400    233.59078   -490.38091    216009.12   -18626.826    1358.4613   -19985.287   -1512.8881    327.71044    78.736314    22.625683    25.521577 
   44600    238.12448   -247.05881    216009.12   -18647.194    1384.8273   -20032.021   -486.67199    327.54848    78.736065    22.626552    25.530915 
   44800    235.53696   -476.68084    216009.12   -18651.691    1369.7794   -20021.471   -1460.5739    328.63583    78.735229    22.625698    25.521544 
   45000    235.76002   -320.70111    216009.12   -18623.605    1371.0766   -19994.682   -804.23152    329.61453     78.73481    22.626132    25.536263 
   45200    243.01184   -165.57598    216009.12   -18571.223      1413.25   -19984.473    -129.3233     329.4268    78.735667     22.62779    25.550638 
   45400    237.73511   -209.12699    216009.12   -18637.699    1382.5629   -20020.262   -343.50666     330.5562     78.73671    22.628069    25.581841 
   45600    247.03045    -327.2664    216009.12   -18560.057    1436.6205   -19996.677   -840.67563    332.18409    78.737844    22.626524    25.612406 
   45800    241.14245   -130.48103    216009.12   -18589.621    1402.3785   -19991.999   -7.9460494    333.50586    78.736854    22.626149    25.611912 
   46000    246.33262   -152.33518    216009.12   -18549.905    1432.5622   -19982.467   -51.970366    336.11667    78.739037    22.627916    25.608914 
   46200    241.10988   -270.68158    216009.12   -18539.538    1402.1891   -19941.727    -558.2866    337.17088      78.7417    22.629682    25.618746 
   46400    233.54125   -478.72949    216009.12   -18637.728    1358.1733   -19995.901   -1413.0649    340.08999     78.74389     22.62941    25.597442 
   46600    241.31824   -190.71553    216009.12   -18628.731    1403.4008   -20032.132   -276.97298    340.79873    78.745421    22.626544    25.621849 
   46800    238.49317   -184.06722    216009.12   -18600.249    1386.9714   -19987.221   -194.72012    340.04654    78.746533    22.625905    25.628979 
   47000    246.47571   -430.91425    216009.12   -18555.231    1433.3944   -19988.625   -1228.3213     341.5168     78.74673    22.625133    25.626842 
   47200    240.62379   -217.85921    216009.12   -18670.769    1399.3622   -20070.131   -338.31273    339.93392     78.74796    22.623762    25.609523 
   47400    233.95738   -226.16843    216009.12   -18599.473    1360.5933   -19960.067   -343.94785    341.41995    78.748996    22.623672    25.604552 
   47600    235.24155   -154.04481    216009.12   -18602.122    1368.0615   -19970.184   -76.873357    342.63431    78.748053    22.625179     25.61168 
   47800    236.94052   -340.69375    216009.12   -18554.567    1377.9419   -19932.509   -832.22004    340.13627    78.745282    22.627978    25.611279 
   48000    240.90332   -298.71345    216009.12   -18560.621    1400.9878   -19961.609   -722.86734    341.49746    78.741789    22.627137    25.616918 
   48200    238.86034    -248.0935    216009.12   -18561.574    1389.1067    -19950.68   -522.94463    343.10575    78.739925    22.628565    25.634049 
   48400     240.4713   -365.32439    216009.12   -18537.074    1398.4754    -19935.55   -973.11089    344.67437    78.738795     22.62523    25.647577 
   48600    237.17012   -305.56653    216009.12   -18640.703    1379.2772   -20019.981   -745.59666    346.69223    78.737326    22.625296    25.647769 
   48800    235.15456   -266.77304    216009.12   -18641.861    1367.5555   -20009.417   -544.07665    345.87767     78.73663    22.626255    25.641896 
   49000    238.68564   -274.51303    216009.12   -18575.024    1388.0908   -19963.115   -597.63525    345.71664    78.737484    22.625689    25.635968 
   49200    237.39426   -170.03813    216009.12   -18568.424    1380.5807   -19949.005   -181.15621    346.11787    78.739316    22.624562    25.613331 
   49400    244.26762   -287.21855    216009.12   -18631.121    1420.5531   -20051.674   -639.24096    347.06029     78.73889    22.624701    25.599132 
   49600    237.55883   -314.23773    216009.12   -18613.606    1381.5377   -19995.144   -711.19794    348.05324    78.738941    22.628316    25.596313 
   49800    238.20398   -433.74497    216009.12   -18618.878    1385.2896   -20004.167     -1301.25    349.84851    78.740035    22.627775     25.59719 
   50000    238.92823   -304.37262    216009.12   -18637.389    1389.5016   -20026.891   -710.31843    352.20959    78.740612    22.626306    25.614751 
   50200    242.40721   -399.04552    216009.12   -18548.549    1409.7338   -19958.283    -1154.734    352.96966    78.738877    22.624216    25.600251 
   50400    247.62037   -231.65532    216009.12   -18525.951    1440.0512   -19966.002   -358.77641    350.48405    78.736659    22.624502    25.584675 
   50600    248.66999   -189.28629    216009.12   -18457.419    1446.1553   -19903.574   -239.04659    350.69319    78.737197    22.624345    25.555947 
   50800    234.37438   -275.71529    216009.12   -18633.643    1363.0184   -19996.662   -599.30353    352.00074     78.73715    22.624962    25.555223 
   51000    233.02319   -314.14569    216009.12   -18590.786    1355.1604   -19945.946   -752.95731    353.00554    78.737962    22.625895    25.554496 
   51200    240.38498   -223.11577    216009.12   -18620.468    1397.9734   -20018.442   -362.02753    355.16964    78.738024    22.627391     25.54345 
   51400    240.19462   -393.09083    216009.12   -18585.899    1396.8663   -19982.765   -1078.9086    355.92664    78.739285    22.628547    25.536285 
   51600    245.88396   -395.58761    216009.12   -18632.295     1429.953   -20062.248   -1116.9603    356.12208    78.740768    22.623152    25.541044 
   51800    240.41713   -448.52875    216009.12    -18571.64    1398.1603   -19969.801   -1333.3479    357.35109    78.743711    22.624728    25.546377 
   52000    239.17548   -449.48856    216009.12   -18637.221    1390.9394    -20028.16   -1316.3229     358.3499    78.744507    22.626116    25.562011 
   52200     233.3026   -297.53145    216009.12   -18657.493    1356.7853   -20014.279   -676.73509    358.10532    78.743204    22.629243    25.583944 
   52400    233.78437   -154.84816    216009.12   -18683.546    1359.5871   -20043.133     -85.1947    359.71584    78.742083    22.629289    25.596462 
   52600    237.84771   -404.97791    216009.12   -18603.531    1383.2177   -19986.749     -1172.49    362.70421    78.738893    22.631311    25.598994 
   52800    245.68119   -283.11612    216009.12   -18562.408    1428.7738   -19991.181   -658.22683    363.36917    78.736861    22.631457     25.59798 
   53000    250.36495   -166.20465    216009.12   -18553.715    1456.0125   -20009.728   -71.189845    365.14056    78.738184    22.630115    25.616045 
   53200    236.83851   -335.57131    216009.12   -18666.536    1377.3487   -20043.884   -836.02543    366.63785    78.738427    22.628808    25.616135 
   53400    244.01978   -361.55426    216009.12   -18646.822    1419.1118   -20065.934   -964.77458    368.17075    78.737818    22.628383    25.621684 
   53600    226.34702   -447.62049    216009.12   -18697.031    1316.3347   -20013.366   -1342.2714    366.96264    78.737622    22.630427    25.626032 
   53800    236.25155   -253.17091    216009.12   -18637.509    1373.9352   -20011.444   -514.54333    367.54104    78.737003    22.629266    25.647263 
   54000    231.46281   -445.29494    216009.12   -18617.032     1346.086   -19963.118   -1310.7946    368.20768    78.735574    22.627929    25.639419 
   54200    243.62383   -186.45798    216009.12   -18598.258    1416.8091   -20015.068   -204.12899    366.20386    78.734314    22.628907    25.639785 
   54400    245.30375    -119.3959    216009.12   -18532.674    1426.5788   -19959.253    81.461993     367.2572     78.73218    22.630479     25.68212 
   54600    244.29798   -291.59177    216009.12   -18556.275    1420.7297   -19977.004   -655.85838    369.14464    78.731483    22.630203    25.649969 
   54800    242.64441   -367.40718    216009.12   -18552.037    1411.1132    -19963.15   -1004.4215    369.46155    78.732904     22.63082    25.657574 
   55000    249.55221   -193.57513    216009.12   -18554.336     1451.286   -20005.622   -254.87971    369.69103    78.734139    22.630051    25.657187 
   55200    235.08444   -308.17862    216009.12   -18670.238    1367.1478   -20037.386   -715.07621    370.95566    78.734191    22.629851    25.649604 
   55400    234.95353   -208.83654    216009.12   -18652.779    1366.3864   -20019.166   -303.84865    370.49474    78.732574    22.630175    25.672917 
   55600    240.96319   -425.66771    216009.12   -18603.113     1401.336   -20004.449   -1220.0491    372.17964    78.732465     22.62848    25.658947 
   55800    244.80992   -414.39905    216009.12   -18498.414    1423.7069   -19922.121   -1197.5326    374.15886    78.732266    22.627368    25.620953 
   56000    238.48902   -303.19606    216009.12   -18521.216    1386.9473   -19908.164    -721.6762    375.96781    78.730008    22.628658    25.595886 
   56200    243.43346   -261.84439    216009.12   -18513.746     1415.702   -19929.448   -577.46402    378.47891    78.730137    22.627312    25.580764 
   56400    237.45273   -345.66037    216009.12   -18621.397    1380.9207   -20002.317   -879.03596    379.75355    78.729512    22.628343    25.558413 
   56600     235.1089   -361.91428    216009.12   -18674.854      1367.29   -20042.144   -977.35852      381.395     78.72651    22.629859    25.549356 
   56800     241.3366   -307.99625    216009.12   -18601.313    1403.5076   -20004.821   -722.43584    383.49509    78.728533    22.630885    25.548842 
   57000    237.26966   -149.14731    216009.12   -18669.156     1379.856   -20049.012   -80.151774    384.85135     78.72984    22.631982    25.577021 
   57200    238.41265   -290.02676    216009.12   -18571.915    1386.5032   -19958.418   -676.68803    388.18303    78.730937    22.634248    25.584839 
   57400    235.39777   -524.04353    216009.12    -18607.68      1368.97    -19976.65   -1655.8659     389.9934    78.729116    22.636018    25.585602 
   57600    233.20021   -214.77555    216009.12   -18674.272    1356.1899   -20030.462   -376.44791    388.21058    78.728666    22.638647    25.600849 
   57800    241.68587   -503.29731    216009.12   -18600.132    1405.5388    -20005.67   -1589.5577    388.56411    78.729701     22.63979    25.595313 
   58000    239.87308   -217.16373    216009.12   -18612.105    1394.9964   -20007.101   -324.61331     388.0822    78.728054    22.641689    25.581022 
   58200    241.98701   -317.87533    216009.12   -18594.716    1407.2901   -20002.006   -790.80184    387.68581    78.725032    22.642832    25.585663 
   58400    238.16139   -279.28753    216009.12   -18603.461     1385.042   -19988.503   -596.16693    390.07894    78.724928    22.644002    25.596746 
   58600    238.96022   -385.77412    216009.12    -18616.22    1389.6876   -20005.907   -1008.5759    389.35011    78.724199    22.645073    25.619259 
   58800    243.26469   -370.20447    216009.12   -18598.456    1414.7205   -20013.176   -1033.3928    391.39121    78.722574    22.645283    25.594832 
   59000    244.28952   -285.95133    216009.12   -18524.926    1420.6805   -19945.607   -650.20865     393.2944    78.724537    22.642663    25.592008 
   59200    238.22842    -313.9817    216009.12   -18582.301    1385.4317   -19967.733   -777.23427    396.00955    78.726022    22.644273    25.572066 
   59400    238.26831   -235.04863    216009.12   -18595.146    1385.6637    -19980.81   -409.25434    394.37898    78.727041    22.645675     25.57009 
   59600    233.70178   -387.75119    216009.12   -18652.937    1359.1068   -20012.044   -1089.0856    395.25238    78.726215    22.644842    25.554649 
   59800     235.3869   -500.76365    216009.12   -18612.178    1368.9068   -19981.085   -1525.4387    395.45583     78.72826     22.64288    25.569059 
   60000    239.16708   -293.38726    216009.12   -18596.143    1390.8906   -19987.033   -681.25234    394.32797     78.72825    22.643086    25.557132 
   60200    235.60757   -330.72215    216009.12   -18625.204    1370.1901   -19995.394   -841.08162    395.06424     78.72763    22.643207    25.551131 
   60400    240.07955   -298.27131    216009.12   -18556.865    1396.1971   -19953.062   -672.88114    394.95009    78.726928    22.641223    25.553955 
   60600    245.26274   -389.11016    216009.12    -18484.27    1426.3403    -19910.61   -1086.5378    394.94637    78.726468    22.641159    25.576385 
   60800    247.23611   -236.32671    216009.12   -18446.205    1437.8166   -19884.021   -401.12759    394.73825    78.725837    22.640675    25.582391 
   61000    242.52036   -232.07136    216009.12   -18547.604    1410.3918   -19957.996   -399.70099    394.26066     78.72554    22.640554    25.631336 
   61200    246.27261   -254.06373    216009.12   -18471.099    1432.2132   -19903.312   -513.30854    395.09007    78.723999    22.640523    25.621601 
   61400     243.4444   -395.87814    216009.12   -18509.058    1415.7656   -19924.823   -1108.3648    396.45266    78.724106    22.641814    25.632182 
   61600    243.74822   -218.99155    216009.12   -18549.029    1417.5325   -19966.562   -335.61619    398.48593    78.723582    22.639794    25.623797 
   61800    238.89677   -316.94355    216009.12   -18618.099    1389.3186   -20007.417   -794.19139    401.02952    78.722207    22.639628    25.642757 
   62000    243.67508   -287.91947    216009.12   -18552.524    1417.1072   -19969.631   -651.90148    402.75864    78.720336    22.638445    25.641185 
   62200     243.8898   -276.83276    216009.12   -18555.877    1418.3558   -19974.233   -579.32009    403.96886    78.721079    22.638646    25.668899 
   62400     238.8318   -181.99965    216009.12   -18545.258    1388.9408   -19934.199    -173.9034    404.79215    78.723174    22.638469    25.678404 
   62600    236.04435   -347.56908    216009.12   -18590.814    1372.7302   -19963.544   -868.40047    406.45688    78.724454    22.640096    25.671991 
   62800    230.65077   -369.23589    216009.12   -18652.976    1341.3635   -19994.339   -1004.6856    407.14388    78.724254    22.641717    25.672347 
   63000    241.71609   -547.22167    216009.12   -18578.358    1405.7145   -19984.072   -1798.8866    408.71634    78.724337    22.642589    25.690165 
   63200    242.01948   -260.99989    216009.12   -18616.525    1407.4789   -20024.004   -508.01988    409.48513    78.724831    22.642072    25.685988 
   63400    234.68017   -322.87004    216009.12   -18690.283    1364.7967    -20055.08   -816.59816    408.58735    78.725859    22.640761    25.668052 
   63600    235.37504   -370.45042    216009.12   -18661.329    1368.8377   -20030.166   -994.96286    410.42846    78.726537    22.640178    25.660736 
   63800    232.97848   -288.29196    216009.12   -18684.697    1354.9004   -20039.598   -653.80679    413.07219    78.725553    22.638958    25.666654 
   64000    239.90117   -413.77979    216009.12   -18573.577    1395.1598   -19968.737   -1155.9311    414.06839    78.726091    22.640327    25.693834 
   64200    239.88382   -334.33091    216009.12   -18587.696    1395.0588   -19982.754   -835.84509    414.47122    78.726031     22.63993    25.702682 
   64400    241.31667   -169.08046    216009.12    -18624.89    1403.3917   -20028.281   -144.73208    414.96652    78.725715    22.640733    25.708491 
   64600    238.04377   -355.27132    216009.12   -18649.118    1384.3579   -20033.476    -942.9159    415.80946    78.728771    22.640951    25.717838 
   64800    246.27842   -291.09813    216009.12   -18608.669    1432.2471   -20040.916   -624.58893    416.10139    78.730342    22.638796    25.694785 
   65000    247.99485   -395.17776    216009.12    -18530.35    1442.2291   -19972.579    -1092.813    420.02866     78.73219    22.639636    25.708069 
   65200    233.77288   -110.29245    216009.12   -18595.748    1359.5203   -19955.269    141.74324    419.48579    78.731033     22.64056    25.699272 
   65400    235.66943   -357.05232    216009.12   -18598.792    1370.5498   -19969.342   -944.18505    422.69021    78.728181    22.641452    25.680296 
   65600    236.30485   -342.62227    216009.12   -18544.639    1374.2451   -19918.884   -842.84293    425.51494    78.730139     22.64094    25.686779 
   65800     245.1402   -225.56373    216009.12   -18588.881    1425.6277   -20014.509   -381.94357     426.1422    78.728911    22.642555     25.68571 
   66000    247.67954   -351.63194    216009.12   -18626.828    1440.3953   -20067.223   -908.31689    427.60628    78.729972    22.642895    25.675478 
   66200    236.15808   -253.17666    216009.12   -18686.241    1373.3916   -20059.632   -499.59191     426.6027    78.730524    22.641002    25.698811 
   66400    236.95071   -336.56707    216009.12   -18655.187    1378.0012   -20033.188   -872.67499    429.01092    78.726114    22.641094    25.705481 
   66600    235.30376   -398.35065    216009.12   -18649.753    1368.4232   -20018.176   -1122.5659    430.07047    78.726485    22.640923    25.698495 
   66800    235.99139   -224.44411    216009.12   -18672.904    1372.4222   -20045.326   -424.22861    429.48964    78.729715    22.639145    25.702416 
   67000    229.38227    -325.8333    216009.12    -18701.85    1333.9864   -20035.836   -821.13128    431.37107      78.7286    22.638368    25.713594 
   67200    238.18114   -449.19877    216009.12   -18634.119    1385.1568   -20019.276   -1336.4345    432.01405    78.725579    22.639411    25.715933 
   67400    237.05954   -171.77696    216009.12    -18616.79    1378.6341   -19995.424   -215.76781    433.71034    78.725251    22.639157     25.71575 
   67600    247.75476   -323.49926    216009.12   -18581.895    1440.8328   -20022.728   -811.84946    434.86948    78.726366    22.640291    25.698027 
   67800     234.2521   -160.13485    216009.12   -18622.965    1362.3073   -19985.273   -103.35148    436.37519    78.729441    22.640037    25.702912 
   68000    232.88516   -193.98345    216009.12   -18611.036    1354.3577   -19965.394   -238.35176    438.20123    78.731785    22.638673    25.708983 
   68200    235.54366    -314.8233    216009.12   -18586.923    1369.8184   -19956.741   -776.46231    439.36472    78.732627    22.641836    25.703402 
   68400    238.04181   -171.55268    216009.12   -18563.278    1384.3465   -19947.624   -136.16607    439.20476    78.731374    22.644725    25.675694 
   68600    236.34321   -252.35208    216009.12   -18620.872    1374.4682    -19995.34   -454.97657    439.92311    78.729619    22.646185    25.674371 
   68800    242.32692   -365.76962    216009.12   -18587.509    1409.2668   -19996.776   -962.18806    441.04178    78.729025    22.647565    25.668837 
   69000     239.3915   -178.85972    216009.12   -18609.753    1392.1957   -20001.949   -208.02154    440.71998    78.729243    22.647077    25.668975 
   69200    238.23223   -325.79882    216009.12   -18675.244    1385.4539   -20060.698   -783.68993    440.64321    78.730369    22.650849     25.68405 
   69400    238.58916   -237.13215    216009.12    -18735.58    1387.5297   -20123.109     -427.914    441.46015    78.730491    22.650799    25.674539 
   69600    243.03939    -288.9264    216009.12   -18527.619    1413.4102    -19941.03   -685.44759    443.65993     78.73156     22.65043    25.663237 
   69800    234.56814    -347.8461    216009.12   -18630.543    1364.1452   -19994.688   -888.78712    445.06101    78.731883    22.652549    25.660989 
   70000    245.59129   -209.16375    216009.12   -18625.342     1428.251   -20053.593   -326.69111      443.384    78.731312    22.651685    25.667847 
   70200    246.55485   -218.09012    216009.12   -18574.741    1433.8546   -20008.595   -391.90677    443.95599    78.730024    22.651587    25.678606 
   70400    240.42332   -278.31564    216009.12   -18521.354    1398.1964   -19919.551   -629.66867      444.826    78.730884    22.652515    25.661399 
   70600     234.7418   -319.34669    216009.12   -18556.503    1365.1551   -19921.658   -807.89719     448.0846     78.73049     22.65421    25.651266 
   70800    236.85783    -251.3474    216009.12   -18584.108     1377.461   -19961.569   -477.47364    448.94579    78.730645    22.655261    25.653122 
   71000     231.3879   -132.81908    216009.12   -18588.702    1345.6503   -19934.352   -25.402706    449.38279    78.729074    22.654542    25.633698 
   71200    238.80472   -282.89137    216009.12    -18569.01    1388.7833   -19957.793   -616.59055    451.60857    78.729257    22.652649    25.622773 
   71400    239.52092   -269.13932    216009.12   -18591.612    1392.9484    -19984.56   -581.96678    450.72145    78.729541    22.650854    25.637539 
   71600    241.55409   -189.21347    216009.12   -18552.119    1404.7724   -19956.891   -214.33592    451.11566    78.730372     22.65108    25.630853 
   71800    239.16087   -274.06917    216009.12   -18640.326    1390.8545    -20031.18   -562.53934    452.75097    78.730849    22.653304    25.622299 
   72000    234.99124   -189.03462    216009.12   -18602.066    1366.6057   -19968.672   -185.59406    455.17862    78.727201    22.655593    25.642816 
   72200    248.06622   -162.93083    216009.12   -18458.791    1442.6441   -19901.435   -110.68256    457.04477    78.725462    22.655055    25.667265 
   72400    239.06149   -436.71189    216009.12   -18574.381    1390.2765   -19964.657   -1249.6415    460.61958    78.726307    22.656636    25.678207 
   72600    240.13983   -337.67618    216009.12   -18552.399    1396.5477   -19948.947   -849.30939    462.84829    78.728596    22.658305    25.666968 
   72800    239.27185   -343.32113    216009.12   -18579.437    1391.4999   -19970.937    -863.0107    463.51036    78.729084     22.66137    25.638185 
   73000    232.27337   -120.08179    216009.12   -18609.265    1350.7998   -19960.064    88.794155    466.19415    78.726435    22.661112    25.606515 
   73200    243.87767   -359.56657    216009.12    -18534.22    1418.2853   -19952.506     -921.897    467.49259    78.724377    22.659315    25.613454 
   73400    242.55266   -267.55476    216009.12   -18520.781    1410.5796   -19931.361   -543.06667    468.58949    78.720924    22.659073     25.61721 
   73600        242.6   -312.44395    216009.12   -18520.056     1410.855   -19930.911   -808.06973    470.74897    78.719258    22.658622    25.615358 
   73800    233.91876   -371.45687    216009.12   -18651.192    1360.3687   -20011.561   -990.67785    472.81159    78.718943    22.662019    25.624788 
   74000    236.81694   -205.29448    216009.12   -18657.891    1377.2232   -20035.114   -356.31795    472.02349    78.716428    22.662063    25.628436 
   74200    236.12777   -420.44309    216009.12   -18558.969    1373.2153   -19932.184    -1245.288    474.37075    78.716406    22.660279    25.632956 
   74400    246.08087   -317.24257    216009.12   -18569.481    1431.0981   -20000.579   -767.72033    478.28767     78.71423    22.658274    25.638981 
   74600    240.28926   -357.58586    216009.12   -18625.322    1397.4167   -20022.739   -916.87534    477.43855    78.714825    22.656099    25.673974 
   74800    234.73304   -233.89355    216009.12   -18612.301    1365.1042   -19977.405   -424.42294    480.03444    78.713905    22.658021    25.655825 
   75000    235.70258   -408.35656    216009.12   -18600.939    1370.7426   -19971.682    -1216.086    480.83438    78.713837    22.656708    25.668914 
   75200    241.60611   -273.62958    216009.12   -18559.155    1405.0749    -19964.23   -584.01025    483.14844     78.71244    22.656289    25.668417 
   75400    241.62963   -209.53213    216009.12   -18605.645    1405.2117   -20010.857   -312.55322    485.25969    78.708133    22.653924    25.671591 
   75600      238.206   -259.09637    216009.12   -18573.465    1385.3014   -19958.766   -535.38116    487.59279    78.707152    22.654978    25.700398 
   75800    241.82085   -349.14967    216009.12   -18516.082    1406.3237   -19922.406   -930.23489    488.00874     78.70954    22.652619    25.678325 
   76000    243.48549   -313.17707    216009.12   -18515.061    1416.0046   -19931.066   -786.47543    488.81867    78.709656    22.652726    25.661873 
   76200    239.71094   -179.00228    216009.12   -18625.265    1394.0535   -20019.318   -230.91558     489.5746    78.710558    22.651863    25.667092 
   76400    242.70558   -418.80817    216009.12   -18595.329     1411.469   -20006.798   -1215.4179    493.75532    78.715451    22.649646    25.684138 
   76600    241.00638   -372.56257    216009.12   -18602.375    1401.5872   -20003.962   -961.91229    494.55509    78.715461    22.650756    25.681937 
   76800    237.05569   -343.65622    216009.12   -18619.052    1378.6117   -19997.663   -876.06337    497.65315    78.717749     22.65114    25.665721 
   77000    242.78136   -281.56419    216009.12   -18604.019    1411.9096   -20015.929   -673.48909    496.28561    78.718146    22.650475     25.67298 
   77200    245.72662   -553.00885    216009.12   -18564.543     1429.038   -19993.581   -1803.1018    497.28157    78.718989    22.652949     25.67497 
   77400    236.00068   -322.30652    216009.12   -18608.536    1372.4762   -19981.012   -800.25324    495.53013    78.718133    22.654337    25.668994 
   77600    234.79885    -283.9728    216009.12   -18648.965    1365.4869   -20014.452   -669.78012    496.68927    78.718322    22.652929     25.66386 
   77800    238.11114   -436.30097    216009.12   -18599.141    1384.7497    -19983.89   -1301.2071    498.74583    78.720788    22.649894    25.655041 
   78000    239.13682   -430.94631    216009.12   -18649.916    1390.7146   -20040.631   -1246.1939    498.94917    78.720171    22.649182     25.64153 
   78200    238.38472   -415.90552    216009.12   -18599.658    1386.3407   -19985.999   -1265.3227    499.91754    78.718435    22.648892    25.636923 
   78400    248.79764   -504.13802    216009.12    -18625.06    1446.8977   -20071.957   -1585.7593     501.8643    78.719657    22.648783    25.651184 
   78600    237.14319   -327.56354    216009.12   -18612.554    1379.1205   -19991.674   -822.96144    501.48603    78.719691    22.651468    25.646443 
   78800       237.92   -467.57696    216009.12   -18617.162    1383.6381     -20000.8   -1418.9145    501.82646    78.719774    22.654174    25.647883 
   79000    243.37919   -354.80629    216009.12   -18593.093    1415.3864   -20008.479    -959.8363    501.77355    78.718564    22.656573    25.616099 
   79200     245.0502   -251.81136    216009.12   -18579.818    1425.1042   -20004.922   -470.91084    501.58495       78.718    22.658947    25.606774 
   79400     247.5921   -237.24526    216009.12   -18548.436    1439.8868   -19988.323   -439.59613    500.84156     78.71924    22.658354    25.569425 
   79600    238.75842   -247.37292    216009.12   -18617.023     1388.514   -20005.537   -470.01954     503.7656    78.720014    22.656935    25.574374 
   79800    235.48533   -335.47408    216009.12   -18614.518    1369.4791   -19983.998   -797.41244     505.4119    78.722433    22.657621      25.5735 
   80000    240.64416   -148.86877    216009.12   -18642.147    1399.4807   -20041.628   -50.769298     505.7475     78.72324    22.660069    25.574141 
   80200    241.23477   -313.06224    216009.12   -18601.423    1402.9154   -20004.339     -724.617    505.22899    78.723231    22.659917    25.580316 
   80400    242.65938   -401.80689    216009.12   -18620.839    1411.2003    -20032.04   -1139.3637    506.42022    78.723054    22.659695    25.583364 
   80600    238.41497    -205.9864    216009.12   -18617.128    1386.5167   -20003.645   -324.96996    505.48407    78.723547     22.66021     25.57554 
   80800    240.96499   -343.75842    216009.12   -18607.194    1401.3464    -20008.54    -861.6754    505.69894    78.724259    22.659848    25.544717 
   81000    237.39635   -276.81193    216009.12   -18569.321    1380.5928   -19949.913   -595.39052    503.31199    78.726676    22.659085    25.539732 
   81200     242.6774   -463.05033    216009.12   -18574.635    1411.3051    -19985.94   -1368.3831    505.87904    78.726816    22.658757    25.536969 
   81400    240.89385   -371.91682    216009.12   -18582.505    1400.9327   -19983.438   -978.89176     503.8248    78.726179    22.657071    25.533207 
   81600    235.49371   -334.33211    216009.12   -18618.614    1369.5279   -19988.142     -841.992    505.63577    78.725793    22.655496    25.543062 
   81800     228.4671   -98.656066    216009.12   -18716.624    1328.6642   -20045.288     168.5339    509.05058      78.7243    22.655654     25.55306 
   82000    240.11563    -414.9419    216009.12   -18606.688    1396.4069   -20003.094   -1158.8318    508.71684    78.724766    22.654757    25.575947 
   82200      242.438    -286.7444    216009.12   -18562.699    1409.9128   -19972.612   -651.50185    511.11402    78.724561    22.654762    25.590805 
   82400    241.04841    -212.3046    216009.12   -18586.535    1401.8316   -19988.367   -310.06211    511.14708    78.722209    22.656183      25.6122 
   82600    244.11799   -511.15893    216009.12   -18521.477    1419.6829    -19941.16   -1630.1143    514.19641    78.722683    22.654952    25.629649 
   82800    238.06526   -300.08983    216009.12   -18620.515    1384.4829   -20004.998   -683.44173    513.57482    78.722046    22.654164    25.648884 
   83000    247.11831     -211.337    216009.12   -18548.933    1437.1315   -19986.064   -289.21787    518.35101    78.721429    22.653239    25.658365 
   83200    240.99864   -313.95076    216009.12   -18590.125    1401.5422   -19991.667   -775.56372    519.31498    78.720427    22.652406    25.630216 
   83400    240.06455   -161.31487    216009.12   -18588.215    1396.1099   -19984.325   -102.38823    522.60695    78.718251    22.654315    25.658695 
   83600    236.68621   -229.22549    216009.12    -18650.49     1376.463   -20026.953   -420.29647    523.61169    78.716855    22.655797    25.647954 
   83800    238.60397   -401.66257    216009.12   -18598.295    1387.6158   -19985.911   -1135.7537    524.40031    78.717294    22.658832    25.659059 
   84000    240.58276   -245.08173    216009.12   -18546.939    1399.1236   -19946.062   -480.72484    526.62816    78.718774    22.659757    25.674957 
   84200     243.7399   -250.06683    216009.12   -18515.567    1417.4841   -19933.051     -468.746    524.20908    78.719792    22.657776    25.687574 
   84400    236.26686   -256.69491    216009.12   -18575.199    1374.0242   -19949.223   -477.62096    524.94732     78.71818    22.658071    25.671833 
   84600    240.29684   -476.51589    216009.12   -18505.797    1397.4608   -19903.258   -1489.9405     526.5796    78.715626    22.659423    25.670335 
   84800    243.36972   -291.52094    216009.12   -18541.661    1415.3313   -19956.992   -703.70896    526.53899    78.715547    22.660496    25.676986 
   85000    236.48139   -427.87898    216009.12   -18535.139    1375.2718   -19910.411   -1260.3304    530.00737    78.714612    22.662406    25.699513 
   85200    237.15837   -427.63169    216009.12   -18598.651    1379.2088    -19977.86   -1230.3659     531.3889    78.712902    22.660375    25.718926 
   85400    233.61041   -412.05555    216009.12   -18657.081    1358.5754   -20015.656   -1191.5523    532.99721    78.713851    22.660673    25.717261 
   85600    236.29606   -296.62396    216009.12    -18651.16     1374.194   -20025.355   -706.65315    532.83301    78.715526    22.660561    25.694101 
   85800    241.61173   -231.74703    216009.12   -18568.913    1405.1076    -19974.02   -417.76139    535.53947    78.715583    22.662928    25.681586 
   86000    238.15586   -292.60817    216009.12   -18619.645    1385.0098   -20004.655    -685.2447     534.8903    78.718146    22.659966    25.671757 
   86200    239.80016   -292.34086    216009.12   -18597.676    1394.5723   -19992.248   -625.67318    537.19129    78.718487    22.660418    25.660327 
   86400    231.65015     -409.768    216009.12   -18645.885    1347.1755   -19993.061   -1153.6204    537.92181    78.718396     22.66102    25.678567 
   86600    246.20858   -249.80007    216009.12   -18573.837    1431.8409   -20005.678   -468.56238    539.40346    78.720409    22.659307    25.681982 
   86800    239.51643   -261.23802    216009.12   -18655.245    1392.9223   -20048.167   -559.71668    540.71852    78.719602    22.659246    25.699245 
   87000    244.10021   -404.89654    216009.12   -18607.826    1419.5795   -20027.406   -1160.3645    538.01039    78.718722    22.660284    25.690692 
   87200    233.88267   -394.30435    216009.12   -18581.472    1360.1588    -19941.63   -1066.5349    539.47754    78.715431    22.659663    25.687224 
   87400    243.35991   -257.80812    216009.12   -18561.361    1415.2743   -19976.635   -534.27661     539.1083    78.715528    22.661421    25.671602 
   87600    246.45197   -443.73548    216009.12   -18566.232    1433.2563   -19999.488   -1310.3875    539.13501    78.717119    22.662437    25.684362 
   87800     238.9191   -254.87445    216009.12   -18593.901    1389.4485    -19983.35   -556.80865    539.71448    78.718518    22.663291    25.688172 
   88000    242.93534   -112.15878    216009.12    -18551.53    1412.8051   -19964.335    108.68769    538.51194     78.71844    22.667518    25.684338 
   88200    232.23866   -301.35878    216009.12   -18635.616     1350.598   -19986.214   -672.36195    540.71369     78.71706    22.667643    25.666041 
   88400    240.18344   -230.94419    216009.12   -18555.401    1396.8013   -19952.202   -367.40727    541.92136    78.715881    22.669628    25.667561 
   88600    235.60612   -324.05233    216009.12    -18558.78    1370.1816   -19928.962   -778.88015    543.93643    78.717705    22.669555    25.675553 
   88800    233.11111   -214.48766    216009.12   -18665.428    1355.6717   -20021.099   -330.16169    545.48678    78.717841    22.670549    25.648552 
   89000    234.73851   -301.78686    216009.12   -18613.372     1365.136   -19978.508   -698.95262    545.55593    78.717027    22.669011    25.633235 
   89200    245.06537   -211.24449    216009.12   -18597.946    1425.1924   -20023.138   -306.96594    546.13243    78.714748    22.669835    25.621738 
   89400    236.21085    -283.9224    216009.12   -18585.618    1373.6985   -19959.317   -602.10428    549.62293    78.714981    22.671445    25.615986 
   89600    237.70077   -356.89393    216009.12   -18676.083    1382.3632   -20058.446    -965.2685    550.63679    78.714301     22.67194    25.583783 
   89800    241.66861    -380.3063    216009.12   -18579.449    1405.4384   -19984.887   -1042.6763    553.25784    78.716387    22.673511    25.595388 
   90000    236.15931   -408.39149    216009.12   -18598.206    1373.3987   -19971.604   -1204.1152    550.72599    78.715814    22.673171     25.60677 
   90200    239.19402   -190.92871    216009.12   -18606.113    1391.0473    -19997.16   -289.60565    548.35492    78.714369    22.670618    25.609267 
   90400    243.30449   -450.40786    216009.12   -18569.122     1414.952   -19984.074   -1353.0807    550.67582    78.713494    22.670642    25.590837 
   90600    242.08985   -107.84175    216009.12   -18554.908    1407.8882   -19962.796    119.21053    550.50358    78.712013    22.672742     25.57825 
   90800    235.78626   -383.38972    216009.12   -18560.041    1371.2292    -19931.27   -1057.4594    554.30121    78.711263    22.671805    25.593753 
   91000    237.34735   -322.64355    216009.12   -18632.186    1380.3079   -20012.494   -793.36613    554.39627     78.70982    22.676341    25.619235 
   91200      233.107   -306.41978    216009.12   -18706.943    1355.6478   -20062.591   -720.04285    554.44038    78.714111    22.676219    25.646072 
   91400    238.85079    -164.7014    216009.12   -18631.252    1389.0512   -20020.303   -53.114727    557.66435     78.71676    22.676687    25.652389 
   91600    242.07745   -361.36772    216009.12   -18520.337    1407.8161   -19928.153   -943.10239    559.51029    78.715512     22.67753    25.615095 
   91800    243.63973   -242.86362    216009.12   -18557.028    1416.9016   -19973.929    -455.4701    559.54928    78.715045    22.678708    25.619543 
   92000    239.93933   -408.94849    216009.12   -18577.188    1395.3817    -19972.57   -1140.0165    561.62704    78.715187    22.678567    25.641574 
   92200    239.58887   -444.05768    216009.12   -18586.971    1393.3435   -19980.314   -1280.2218    561.92058    78.717023    22.679396    25.638209 
   92400    234.11146   -288.34251    216009.12   -18511.595    1361.4894   -19873.085   -654.15146    561.46662    78.717026    22.679292    25.636648 
   92600    240.38784   -409.37373    216009.12   -18482.405      1397.99   -19880.395   -1146.2789    563.11622    78.716921    22.679436    25.631777 
   92800    245.94812   -175.19073    216009.12   -18557.294    1430.3262    -19987.62   -140.51189    561.75718    78.717417    22.680396    25.610135 
   93000    237.99812   -326.07346    216009.12   -18600.931    1384.0925   -19985.023   -808.89609     561.6715    78.716031    22.679416    25.610757 
   93200    236.89945   -562.28797    216009.12   -18588.301    1377.7031   -19966.004   -1827.2482     565.5193    78.717968    22.679218    25.632979 
   93400    234.05139    -326.0926    216009.12   -18642.021      1361.14   -20003.161   -826.57861     565.0466    78.718292    22.678584     25.62971 
   93600    236.83251   -352.70115    216009.12    -18599.24    1377.3138   -19976.554   -884.98482    564.87801    78.719506    22.679427    25.633343 
   93800    241.91771   -354.59979    216009.12   -18608.131     1406.887   -20015.018   -926.04055    566.03891    78.720976    22.678037    25.635161 
   94000    237.57646   -293.88879    216009.12   -18635.199    1381.6403   -20016.839   -666.05769    565.97458    78.720017    22.677063    25.627369 
   94200    249.52775   -116.52691    216009.12   -18591.461    1451.1437   -20042.605    90.179133    568.88253    78.719485    22.676552    25.631153 
   94400    242.82726   -340.25357    216009.12   -18641.159    1412.1766   -20053.336   -855.77709    573.51885    78.718966    22.677299    25.640836 
   94600    234.12962   -289.87882    216009.12   -18664.183    1361.5949   -20025.778   -614.90857     571.4499    78.719962    22.676136    25.660978 
   94800     237.2262   -178.40255    216009.12    -18642.89    1379.6033   -20022.493   -200.84079    571.58723     78.71874    22.676845    25.640547 
   95000    238.95436   -323.73209    216009.12   -18639.281    1389.6535   -20028.934   -809.02463    572.08075    78.716448    22.677019    25.659829 
   95200    237.68388   -385.44842    216009.12   -18652.881     1382.265   -20035.146   -1064.2663    572.76163    78.715562    22.677337    25.661092 
   95400    244.02757   -188.85226    216009.12    -18646.94    1419.1571   -20066.097    -249.6951    573.65039    78.717257     22.67592    25.664058 
   95600    234.88513   -438.29231    216009.12   -18619.128    1365.9887   -19985.117   -1296.4668    575.83008    78.718385    22.674069    25.668044 
   95800    236.20041   -249.57925    216009.12   -18597.548    1373.6378   -19971.185   -480.52006    573.73815    78.720035    22.674477    25.678749 
   96000    236.53278   -341.70803    216009.12   -18579.876    1375.5707   -19955.447   -864.48428    576.51234    78.718285    22.676517    25.680568 
   96200     241.8668   -390.66571    216009.12   -18564.755     1406.591   -19971.346   -1098.3219    578.40053     78.71792    22.673513    25.671986 
   96400    251.09521    -383.1926    216009.12   -18548.697    1460.2594   -20008.956   -1015.3399    579.73148    78.717211    22.672161    25.656302 
   96600    237.85615   -561.43708    216009.12   -18596.207    1383.2668   -19979.473   -1818.0576    579.61783    78.717115    22.673812    25.644301 
   96800    243.74846   -301.37322    216009.12   -18589.324    1417.5339   -20006.858   -738.30909    579.49501    78.717101    22.671935    25.659043 
   97000     229.6075   -452.08239    216009.12   -18606.259    1335.2963   -19941.555   -1299.6709    581.48389    78.716714    22.672674    25.658275 
   97200    239.79858   -239.46246    216009.12   -18587.459    1394.5631   -19982.023    -445.3815    579.84337     78.71704    22.672081     25.65666 
   97400    239.72082   -282.07797    216009.12    -18574.72    1394.1109   -19968.831   -626.49092    580.04864    78.718884    22.671201    25.689519 
   97600    242.96411   -253.78902    216009.12   -18502.218    1412.9725    -19915.19     -469.167    580.17416     78.72101    22.670667     25.69962 
   97800    242.59704   -338.02831    216009.12    -18522.77    1410.8377   -19933.608   -882.57525    583.28044    78.722069    22.670421    25.717926 
   98000    242.26939   -132.53916    216009.12   -18573.218    1408.9323   -19982.151    21.076674    583.66762    78.723185     22.67152    25.724709 
   98200    234.35748   -269.21379    216009.12   -18594.634    1362.9201   -19957.554   -553.33488    585.10693    78.725111     22.67378    25.728731 
   98400    236.29501   -347.11063    216009.12   -18553.261    1374.1879   -19927.449   -871.94989    584.24257    78.726085    22.672408    25.701483 
   98600    235.70377   -339.50056    216009.12   -18568.438    1370.7495   -19939.188   -784.49261    583.21211    78.728786    22.673173    25.689635 
   98800    246.44355   -289.24409    216009.12   -18539.261    1433.2073   -19972.469   -689.48535    585.73695    78.729104    22.672779    25.684467 
   99000    236.68068   -189.84078    216009.12   -18595.865    1376.4308   -19972.295   -217.91941     587.4933    78.729587    22.674055    25.681823 
   99200    238.88301   -178.98979    216009.12   -18601.088    1389.2386   -19990.327   -199.47417    587.98352    78.729966    22.672844    25.654189 
   99400    230.23103   -380.99665    216009.12    -18626.66    1338.9224   -19965.583   -1026.5202    590.44089    78.731534    22.671954    25.662207 
   99600    241.56853    -271.4787    216009.12   -18526.628    1404.8564   -19931.484   -565.12883    590.54061    78.731665    22.671003    25.661042 
   99800    244.14697   -248.40831    216009.12   -18567.659    1419.8515   -19987.511   -490.49407    591.22215    78.727845    22.670853    25.628389 
  100000    240.92806   -380.86062    216009.12   -18576.304    1401.1317   -19977.436   -1060.7687    592.64469    78.726909    22.668673    25.602325 
  100200    239.35108   -383.86227    216009.12   -18628.694    1391.9607   -20020.655   -1032.7795    593.63195    78.729269    22.667718    25.608581 
  100400    244.67279   -362.97221    216009.12   -18590.421    1422.9094   -20013.331   -955.56636    592.44686    78.729283    22.668148    25.613124 
  100600    245.27134    -210.5479    216009.12   -18607.176    1426.3903   -20033.566   -292.73529    594.77086    78.730254    22.667398    25.594274 
  100800    238.70545   -85.380316    216009.12    -18651.25     1388.206   -20039.456     212.3443    594.57158    78.729857    22.668506    25.599172 
[...]
 5175800    229.28096   -486.87139    216009.12   -20651.233    1333.3973    -21984.63   -1427.8773    8487.3081    77.601389    23.301258    25.476359 
 5176000    230.25406   -553.55515    216009.12   -20641.478    1339.0564   -21980.534   -1742.1415    8486.1561      77.6003    23.301993    25.472639 
 5176200    225.09998   -678.43035    216009.12    -20652.84    1309.0825   -21961.923   -2210.1293    8488.4546    77.598967    23.301356    25.472494 
 5176400    223.75669   -505.80686    216009.12   -20670.164    1301.2705   -21971.434   -1499.9237    8486.3301    77.598809    23.302284    25.472973 
 5176600    227.59286   -558.99896    216009.12   -20630.444      1323.58   -21954.024    -1724.514    8488.7126    77.597985    23.301968    25.470866 
 5176800    233.77079     -618.163    216009.12   -20604.767    1359.5082   -21964.275   -1959.4827    8489.7246    77.598735    23.303102    25.471566 
 5177000    230.17512   -543.51365    216009.12   -20601.834    1338.5973   -21940.431   -1679.9964    8486.6095    77.599012    23.302919    25.473597 
 5177200     228.1397   -589.50751    216009.12   -20622.923    1326.7602   -21949.683   -1839.3255    8487.5393    77.599589    23.304633    25.477563 
 5177400     223.9556   -626.23234    216009.12   -20649.125    1302.4273   -21951.552   -2071.0871    8487.7209    77.599382    23.305517     25.47549 
 5177600    232.85859   -455.79376    216009.12   -20596.935    1354.2032   -21951.138    -1289.126    8486.0136    77.599453    23.306165    25.475702 
 5177800    224.86985   -536.20537    216009.12   -20635.626    1307.7442   -21943.371   -1627.3077    8487.5003    77.598302    23.307033    25.481297 
 5178000    228.64643   -614.12658    216009.12   -20656.328    1329.7071   -21986.035   -1958.6431    8487.7288    77.597496    23.307638    25.482356 
 5178200    223.66536   -504.02979    216009.12   -20661.371    1300.7394    -21962.11   -1509.7415    8484.6624    77.597171    23.308611    25.478395 
 5178400    220.63851   -623.81525    216009.12   -20670.211    1283.1366   -21953.348   -2021.3907    8484.2563    77.596457    23.308821    25.480765 
 5178600    228.19433   -618.16117    216009.12   -20656.017    1327.0779   -21983.095   -2009.1634    8488.0204    77.596109    23.308001     25.47947 
 5178800    233.54163   -498.28767    216009.12   -20618.183    1358.1754   -21976.359   -1547.6488    8485.4255    77.596106    23.307838    25.484211 
 5179000    230.51574   -610.82383    216009.12   -20641.523    1340.5782   -21982.101   -2000.5441    8488.9661    77.595954    23.309815    25.484775 
 5179200    231.49105   -577.80824    216009.12    -20621.08    1346.2502    -21967.33   -1838.5529    8488.1749     77.59449    23.309653    25.482679 
 5179400    226.42753   -539.38898    216009.12   -20680.133     1316.803   -21996.936   -1654.3439    8484.9112    77.594339    23.309476    25.482983 
 5179600    234.44735   -653.70746    216009.12   -20575.056    1363.4427   -21938.498   -2147.0257    8487.0113    77.594272     23.30902     25.48203 
 5179800    226.67183   -592.31827    216009.12   -20626.159    1318.2237   -21944.383   -1867.5813    8485.2528    77.594209    23.308513    25.484291 
 5180000    224.18426   -608.39279    216009.12    -20648.64    1303.7571   -21952.397   -1961.4213    8487.6717    77.594568    23.309821    25.479962 
 5180200    221.48398   -640.00015    216009.12   -20711.392    1288.0534   -21999.445    -2063.919    8486.3058    77.594446     23.30959    25.483445 
 5180400     221.0534   -614.20088    216009.12   -20685.071    1285.5494   -21970.621   -2008.6669    8485.3871    77.593954    23.310158    25.474818 
 5180600    229.48164   -576.86235    216009.12   -20633.447    1334.5644   -21968.011   -1814.4937    8486.9195    77.594147    23.309633    25.476983 
 5180800     238.3366   -665.95447    216009.12   -20606.186    1386.0609   -21992.247   -2195.5154    8489.7144    77.593675    23.311777    25.484932 
 5181000     228.7393   -557.53962    216009.12   -20647.549    1330.2472   -21977.797   -1738.3695    8487.1331    77.593204    23.312155    25.479092 
 5181200    233.35479   -504.83419    216009.12   -20647.197    1357.0889   -22004.286   -1530.8909    8486.5005    77.593423    23.312149    25.486817 
 5181400    222.33844   -605.68472    216009.12   -20685.839    1293.0226   -21978.861   -1957.9507    8487.6377    77.593062    23.312579    25.486708 
 5181600    224.31381   -541.86616    216009.12   -20624.147    1304.5105   -21928.657   -1687.4466    8484.6612    77.592518    23.313203    25.486496 
 5181800    223.47671   -560.85791    216009.12   -20707.329    1299.6423   -22006.971   -1787.3687    8484.2877    77.593203    23.312931    25.484177 
 5182000    224.21667   -581.55512    216009.12   -20616.623    1303.9456   -21920.569   -1800.3038    8490.0358    77.593784    23.313443    25.479194 
 5182200    230.64135   -519.07912    216009.12   -20616.521    1341.3087   -21957.829   -1582.0268     8484.082    77.593335    23.314147     25.48571 
 5182400    231.87789   -590.78972    216009.12   -20606.667    1348.4999   -21955.167   -1853.8197    8487.6385    77.592347    23.313775    25.487214 
 5182600    225.77238   -690.73732    216009.12   -20697.833    1312.9929   -22010.826   -2279.0844     8487.263    77.591736    23.313398    25.487925 
 5182800    228.79813   -540.38358    216009.12   -20641.752    1330.5893   -21972.341   -1666.4685    8485.7342    77.590926    23.313622    25.484823 
 5183000    227.64768   -596.72894    216009.12   -20629.571    1323.8988    -21953.47   -1890.0091    8486.1692    77.590037    23.313413    25.477557 
 5183200    229.44196    -643.0361    216009.12   -20579.952    1334.3336   -21914.286   -2113.9833    8488.7628     77.58959    23.314643    25.480615 
 5183400    232.01535   -525.02935    216009.12   -20591.713    1349.2993   -21941.012   -1620.2558    8487.4399    77.588701    23.314936    25.482364 
 5183600    230.49576   -641.28412    216009.12   -20669.479     1340.462   -22009.942   -2092.4645    8485.6466    77.589241    23.314584    25.476568 
 5183800    222.37477   -690.21958    216009.12    -20702.87    1293.2339   -21996.104   -2297.4164    8487.4101     77.58735    23.314728    25.476194 
 5184000    224.45454   -533.21562    216009.12   -20706.763    1305.3289   -22012.092   -1630.8179    8486.5868    77.586144    23.316204    25.477363 
 5184200     227.5726   -662.44129    216009.12   -20581.458    1323.4622    -21904.92   -2182.8592    8488.5217    77.585313    23.317558    25.480319 
 5184400    221.83345   -608.83791    216009.12   -20649.984    1290.0858    -21940.07   -1969.2102    8487.8112    77.584483    23.317807    25.477172 
 5184600    227.19997   -555.40502    216009.12   -20592.782    1321.2952   -21914.078   -1725.4168    8486.6752    77.582735    23.318727    25.475749 
 5184800    222.18652   -622.39455    216009.12   -20644.963    1292.1391   -21937.102   -2042.5696    8485.8803    77.582415     23.32008    25.477295 
 5185000    229.98175   -583.72564    216009.12   -20662.618    1337.4728   -22000.091   -1858.8229     8486.677    77.580911    23.320832    25.483223 
 5185200    224.85133    -555.0456    216009.12   -20643.072    1307.6365   -21950.708   -1749.9969    8485.6752     77.58133    23.321544    25.485436 
 5185400    228.95274   -618.38386    216009.12   -20684.206    1331.4885   -22015.694   -1934.3136    8489.1766    77.580482    23.321946    25.482147 
 5185600    224.52426   -567.14871    216009.12   -20647.889    1305.7344   -21953.623   -1770.4442    8485.6253    77.579934    23.321692    25.479276 
 5185800     224.2859   -551.69438    216009.12   -20649.391    1304.3482   -21953.739   -1719.8245    8486.4606    77.579517    23.322291    25.482261 
 5186000     230.2951   -667.30146    216009.12   -20610.222    1339.2951   -21949.517   -2263.0645    8489.9459    77.579357     23.32308     25.48348 
 5186200    235.59324   -483.44806    216009.12   -20633.556    1370.1067   -22003.663   -1407.9038    8483.9272    77.578734    23.322697    25.485101 
 5186400    227.04743   -515.45919    216009.12   -20641.362     1320.408    -21961.77    -1551.957    8484.7018     77.57868     23.32327    25.482461 
 5186600    225.02033   -657.11359    216009.12   -20634.116    1308.6193   -21942.735   -2163.6069    8488.8738    77.578024    23.323963     25.48441 
 5186800    225.30188   -503.29205    216009.12   -20636.112    1310.2567   -21946.369   -1499.7366     8484.823    77.577526    23.323932    25.483488 
 5187000    231.61073   -536.94558    216009.12   -20654.478    1346.9462   -22001.424   -1656.0035    8485.6516    77.576079    23.324854    25.482743 
 5187200    227.20646   -740.39882    216009.12   -20610.862    1321.3329   -21932.195   -2504.1488    8492.5976    77.576381    23.325443    25.486218 
 5187400     228.1112    -555.3824    216009.12   -20627.446    1326.5945    -21954.04   -1724.1837    8483.8952    77.576042    23.325267    25.488616 
 5187600    223.41811     -588.646    216009.12     -20667.2    1299.3015   -21966.502    -1880.601    8485.7689    77.576354    23.325329    25.489706 
 5187800    230.33243   -687.09137    216009.12   -20619.672    1339.5121   -21959.184   -2309.0226    8488.9712    77.575774    23.324811    25.486112 
 5188000    226.82785    -608.4019    216009.12   -20637.525    1319.1311   -21956.656   -2019.5466    8485.1564    77.575597    23.325645    25.480207 
 5188200    232.66344   -564.30571    216009.12    -20594.72    1353.0683   -21947.788   -1793.9815    8483.9266    77.575015    23.325199    25.480111 
 5188400    228.99327   -658.46444    216009.12    -20622.47    1331.7242   -21954.194   -2203.0414    8487.6658     77.57496    23.325263    25.483009 
 5188600    222.03026   -520.79892    216009.12   -20635.753    1291.2304   -21926.983   -1632.4181    8484.5366    77.574694    23.325489    25.481959 
 5188800    221.49803   -540.67469    216009.12   -20686.725    1288.1352    -21974.86   -1676.5192    8486.3162    77.573561    23.325782     25.47963 
 5189000    230.75315   -620.37066    216009.12   -20678.657    1341.9589   -22020.616   -1994.0512     8485.593    77.573247    23.326265    25.484447 
 5189200    224.39118   -440.29128    216009.12   -20669.753    1304.9605   -21974.714    -1227.573    8482.8721    77.572646    23.327163    25.489019 
 5189400    217.13086   -586.43848    216009.12   -20717.335    1262.7376   -21980.072   -1859.6073    8486.9401    77.571246    23.326358    25.489633 
 5189600    223.66741   -660.43009    216009.12   -20667.249    1300.7514   -21968.001   -2222.7318    8486.7131    77.569977    23.326126    25.490735 
 5189800     228.7582   -505.29562    216009.12   -20619.918    1330.3572   -21950.275   -1533.1048     8485.318     77.56935    23.326234    25.494471 
 5190000    222.47789   -549.52543    216009.12   -20657.216    1293.8336    -21951.05   -1664.7584    8487.2671    77.568687    23.326218    25.490328 
 5190200    224.45068   -639.24237    216009.12   -20634.704    1305.3065   -21940.011   -2077.3957    8485.0648    77.567539    23.326129    25.489266 
 5190400    226.34804   -552.38004    216009.12   -20650.855    1316.3407   -21967.196   -1740.6631    8486.7711    77.567219    23.326749    25.489475 
 5190600    227.71104   -594.80624    216009.12    -20579.85    1324.2673   -21904.117   -1911.7358    8488.0646    77.567365    23.326801    25.490685 
 5190800    228.45818    -583.7964    216009.12   -20652.505    1328.6124   -21981.118   -1854.0248    8484.3756    77.566776    23.326415     25.49421 
 5191000      231.453   -524.88443    216009.12    -20623.85    1346.0289   -21969.879    -1596.653     8486.201    77.567454     23.32445     25.49182 
 5191200    232.23208    -608.5504    216009.12   -20615.796    1350.5597   -21966.356   -1973.6838     8488.044    77.566545    23.325371    25.498333 
 5191400    229.13142   -521.58666    216009.12   -20648.254    1332.5276   -21980.782   -1594.0498    8484.2081    77.565556     23.32492     25.50155 
 5191600    225.91107   -541.33341    216009.12   -20664.004    1313.7995   -21977.804    -1685.915    8485.8283    77.565339    23.324422    25.491153 
 5191800    229.04809   -626.68887    216009.12   -20656.063     1332.043   -21988.106   -2057.1061     8491.003    77.565002    23.324644    25.494692 
 5192000    226.64479   -522.59018    216009.12   -20603.614    1318.0665   -21921.681   -1612.9864    8485.6567    77.564169    23.324006    25.489183 
 5192200    229.32345   -598.67878    216009.12   -20563.092    1333.6444   -21896.736   -1929.0346    8488.0052    77.563886    23.324222    25.489353 
 5192400    222.22992    -612.0733    216009.12   -20645.143    1292.3915   -21937.534   -1975.5278    8490.2007    77.562882    23.324844    25.490631 
 5192600    228.93182   -453.57427    216009.12    -20633.22    1331.3668   -21964.587   -1273.5298    8484.4861    77.562427    23.324826    25.488183 
 5192800    231.23646   -563.50946    216009.12   -20645.162    1344.7696   -21989.931   -1750.1652    8487.1068    77.561611     23.32476    25.489329 
 5193000      226.754   -641.29961    216009.12   -20612.603    1318.7016   -21931.305   -2076.1191    8487.5838    77.561614    23.323773    25.480266 
 5193200    221.74479   -474.69543    216009.12    -20688.59    1289.5702    -21978.16   -1410.8384    8484.9597    77.561779     23.32336    25.483335 
 5193400    224.77723   -635.61202    216009.12   -20607.099    1307.2056   -21914.304    -2086.776    8489.4389    77.562068    23.322366    25.491127 
 5193600    227.21062   -635.38229    216009.12   -20631.258    1321.3571   -21952.615   -2045.4469    8488.8802    77.561443    23.322404    25.492852 
 5193800    229.79465   -513.14069    216009.12    -20626.36    1336.3846   -21962.744   -1577.8841    8485.2941    77.560681     23.32235    25.493333 
 5194000    223.94796    -616.3569    216009.12   -20603.315    1302.3829   -21905.697   -2013.0803    8489.3965    77.559419    23.322184    25.493664 
 5194200    222.67663   -594.87509    216009.12   -20684.139    1294.9894   -21979.128   -1896.1385    8486.6172    77.559306    23.322382    25.489812 
 5194400    224.15699   -450.95593    216009.12   -20660.687    1303.5985   -21964.285   -1262.0854    8486.1439     77.55896    23.322109    25.492051 
 5194600    230.91607   -627.79775    216009.12   -20625.554    1342.9064    -21968.46   -2024.5198    8488.7659    77.558301    23.322152    25.491893 
 5194800    228.20717   -625.35577    216009.12   -20578.483    1327.1526   -21905.636   -2037.8012    8487.4368    77.556483    23.322973    25.489373 
 5195000    227.47737   -556.51936    216009.12   -20640.143    1322.9084   -21963.051   -1797.7571     8486.105    77.556765     23.32148    25.488746 
 5195200    242.63697   -680.13938    216009.12   -20560.396      1411.07   -21971.466   -2277.1653    8490.2629    77.555964    23.321729    25.488146 
 5195400    223.16716   -615.58397    216009.12   -20629.737    1297.8421   -21927.579   -2025.2223    8485.5144    77.554552    23.321221    25.489353 
 5195600    230.11101   -560.40166    216009.12   -20577.346    1338.2245   -21915.571   -1735.2652    8487.6576    77.554026    23.320827    25.489627 
 5195800    222.02124   -679.67354    216009.12   -20647.161    1291.1779   -21938.339   -2276.1179     8489.337    77.553074    23.321335    25.489595 
 5196000    229.82034   -592.71452    216009.12   -20545.925     1336.534   -21882.459   -1928.7996     8485.702    77.553073    23.321525    25.492913 
 5196200    224.50063   -505.82884    216009.12   -20583.793     1305.597    -21889.39   -1528.7314     8485.032    77.553118    23.321599    25.487792 
 5196400    227.79777   -591.37622    216009.12   -20633.147    1324.7717   -21957.919   -1839.6104    8489.6447    77.554411    23.321752    25.487278 
 5196600    225.05641   -567.60324    216009.12   -20595.019    1308.8292   -21903.848    -1820.085    8485.6989    77.554477    23.321585    25.485533 
 5196800    226.01817   -576.19815    216009.12   -20616.684    1314.4223   -21931.106   -1873.3834    8485.2383    77.553802    23.321061    25.486187 
 5197000    227.04225   -640.13184    216009.12   -20602.834    1320.3779   -21923.212   -2098.6896    8490.4912    77.554166    23.322369    25.488202 
 5197200    234.51168   -521.58005    216009.12    -20590.48    1363.8168   -21954.297   -1580.7334    8485.7899    77.553987    23.323814    25.491404 
 5197400    228.35429   -549.77966    216009.12   -20651.442    1328.0082    -21979.45   -1708.6206    8484.0628    77.552645    23.323378    25.487667 
 5197600    222.47358   -525.18945    216009.12   -20642.466    1293.8085   -21936.275   -1579.1235    8489.3315    77.551411    23.323421    25.493401 
 5197800    225.74399   -506.09092    216009.12   -20656.825    1312.8278   -21969.653   -1514.8314    8488.4184    77.551657    23.324393    25.486596 
 5198000    222.62378   -510.09393    216009.12   -20709.587    1294.6821   -22004.269   -1520.3046    8483.3404    77.551124    23.325243    25.492265 
 5198200    230.59514   -604.81998    216009.12    -20621.61      1341.04    -21962.65   -1958.5017    8488.4409    77.551047    23.325973    25.488349 
 5198400    226.04594   -513.98547    216009.12    -20608.45    1314.5838   -21923.033   -1534.3163    8490.1621    77.549367    23.327334      25.4891 
 5198600    227.71218   -566.81627    216009.12   -20619.571    1324.2739   -21943.845   -1780.8939    8484.7965     77.54856    23.326679    25.493731 
 5198800    223.83221   -640.44405    216009.12    -20693.37    1301.7098   -21995.079   -2127.5416    8488.9389     77.54756    23.326608    25.491159 
 5199000    224.88098   -559.25414    216009.12   -20660.303    1307.8089   -21968.111   -1774.1823    8487.2273    77.546971    23.327386    25.492857 
 5199200    231.60264   -569.24655    216009.12   -20568.369    1346.8992   -21915.268   -1829.4377    8486.8511    77.546403    23.327729    25.492736 
 5199400    218.72723   -654.54152    216009.12   -20683.489    1272.0214    -21955.51   -2136.6787    8487.1437    77.545742    23.327208    25.497158 
 5199600     220.1041   -596.24437    216009.12   -20679.178    1280.0287   -21959.207   -1917.3887    8487.3889    77.544347    23.326766     25.49811 
 5199800    226.93815   -513.13828    216009.12    -20643.92    1319.7725   -21963.693   -1537.9293    8486.0165    77.544256      23.3269    25.494858 
 5200000    224.13624    -563.1351    216009.12   -20653.452    1303.4779    -21956.93    -1775.597    8486.9805    77.543556    23.326837    25.495446 
Loop time of 6898.54 on 160 procs for 5200000 steps with 9248 atoms

Performance: 651.268 ns/day, 0.037 hours/ns, 753.783 timesteps/s
97.8% CPU use with 160 MPI tasks x no OpenMP threads

MPI task timing breakdown:
Section |  min time  |  avg time  |  max time  |%varavg| %total
---------------------------------------------------------------
Pair    | 0.24155    | 1430.9     | 5383.7     |5103.4 | 20.74
Neigh   | 0.31772    | 89.886     | 355.54     |1229.8 |  1.30
Comm    | 11.271     | 1739.9     | 5544.9     |4544.2 | 25.22
Output  | 89.535     | 89.615     | 91.482     |   1.6 |  1.30
Modify  | 220.6      | 3449.3     | 6702.4     |4747.1 | 50.00
Other   |            | 98.92      |            |       |  1.43

Nlocal:    57.8 ave 196 max 0 min
Histogram: 72 23 25 0 0 0 0 0 13 27
Nghost:    535.306 ave 914 max 0 min
Histogram: 20 4 0 8 8 32 36 13 26 13
Neighs:    0 ave 0 max 0 min
Histogram: 160 0 0 0 0 0 0 0 0 0
FullNghs:  5859.9 ave 23556 max 0 min
Histogram: 113 7 0 0 0 0 0 1 20 19

Total # of neighbors = 937584
Ave neighs/atom = 101.382
Neighbor list builds = 543795
Dangerous builds = 0
write_data 		${DIR}/data.${NAME}_run
write_data 		run_11/data.${NAME}_run
write_data 		run_11/data.ibeam_cooling_11_run
Total wall time: 1:55:13
