

### IMPORT ATOMS ###
read_data ../Box_Setup/data.Ibeam_240K
  orthogonal box = (0 0 0) to (157.504 40.4305 33.9212)
  10 by 4 by 4 MPI processor grid
  reading atoms ...
  9248 atoms
  reading velocities ...
  9248 velocities
group water type 2
1952 atoms in group water
group graphite type 1
7296 atoms in group graphite


# Define potential
#
pair_style          sw
pair_coeff * * MLC_e.sw C mW

# Add velocity/set timestep
#

fix		1 graphite setforce 0.0 0.0 0.0
velocity 	graphite set 0.0 0.0 0.0
velocity            water create ${START_TEMP} ${SEED} rot yes dist gaussian
velocity            water create 240 ${SEED} rot yes dist gaussian
velocity            water create 240 15659 rot yes dist gaussian
timestep            5.0

# Define output
#
compute 1 water msd
compute 2 water temp


thermo	            100
thermo_style custom step c_2 press vol etotal ke pe c_1[4] density

# Neighbor lists
#
neigh_modify        delay 0 every 1 check yes


# Set fixes
#
fix                 2 water momentum 10 linear 1 1 1 rescale
fix                 3 all nve
fix                 4 water temp/csvr ${START_TEMP} ${START_TEMP} 500.0 928347
fix                 4 water temp/csvr 240 ${START_TEMP} 500.0 928347
fix                 4 water temp/csvr 240 240 500.0 928347

# Run 0.05 ns equilibration
#
dump                1 all custom 100 ${DIR}/eq.${NAME}.dump id type x y z vx vy vz
dump                1 all custom 100 run_11/eq.${NAME}.dump id type x y z vx vy vz
dump                1 all custom 100 run_11/eq.ibeam_cooling_11.dump id type x y z vx vy vz
run                 10000
Neighbor list info ...
  update every 1 steps, delay 0 steps, check yes
  max neighbors/atom: 2000, page size: 100000
  master list distance cutoff = 6.67472
  ghost atom cutoff = 6.67472
  binsize = 3.33736, bins = 48 13 11
  1 neighbor lists, perpetual/occasional/extra = 1 0 0
  (1) pair sw, perpetual
      attributes: full, newton on
      pair build: full/bin/atomonly
      stencil: full/bin/3d
      bin: standard
Per MPI rank memory allocation (min/avg/max) = 0.4647 | 3.681 | 4.743 Mbytes
Step c_2 Press Volume TotEng KinEng PotEng c_1[4] Density 
       0          240   -299.33439    216009.12   -18704.344    1395.7345   -20100.079            0   0.94393226 
     100    238.30508   -241.32845    216009.12   -18704.701    1385.8776   -20090.579   0.81705565   0.94393226 
     200    237.23318   -296.22207    216009.12    -18744.63    1379.6439   -20124.274    1.2185679   0.94393226 
     300    233.81973   -387.36048    216009.12   -18730.512    1359.7928   -20090.305    1.5144973   0.94393226 
     400    241.30125   -386.44035    216009.12   -18745.852     1403.302   -20149.154    1.8276543   0.94393226 
     500    239.22823   -275.92343    216009.12   -18726.722    1391.2462   -20117.968    2.2408978   0.94393226 
     600    237.02622   -266.99482    216009.12   -18649.325    1378.4403   -20027.766     2.576803   0.94393226 
     700    242.58248   -190.14375    216009.12   -18646.543    1410.7531   -20057.296    2.9707969   0.94393226 
     800    248.03888   -280.17667    216009.12   -18635.579    1442.4851   -20078.064     3.403813   0.94393226 
     900    246.13663   -412.63418    216009.12   -18666.217    1431.4224   -20097.639    4.0127318   0.94393226 
    1000    230.69554   -377.00859    216009.12   -18702.329    1341.6239   -20043.953    4.4226252   0.94393226 
    1100    239.35781   -323.64759    216009.12   -18684.903    1391.9998   -20076.902    4.8593534   0.94393226 
    1200    242.21944   -90.902651    216009.12   -18680.929    1408.6418   -20089.571    5.2587007   0.94393226 
    1300    246.45835   -240.16201    216009.12   -18650.681    1433.2934   -20083.975    5.6109789   0.94393226 
    1400    239.92614   -287.07983    216009.12   -18684.209     1395.305   -20079.514    6.0567241   0.94393226 
    1500    242.09651   -153.73468    216009.12    -18699.08    1407.9269   -20107.007    6.3636517   0.94393226 
    1600    238.40407   -345.23737    216009.12   -18675.903    1386.4533   -20062.356    6.8853705   0.94393226 
    1700    238.72786   -299.19202    216009.12   -18667.877    1388.3363   -20056.213    7.2530046   0.94393226 
    1800     247.8484   -380.86034    216009.12    -18637.57    1441.3774   -20078.948    7.4730339   0.94393226 
    1900    249.15237   -136.29266    216009.12   -18610.044    1448.9607   -20059.004    7.7628091   0.94393226 
    2000    244.86859   -195.42268    216009.12   -18593.015     1424.048   -20017.063    8.2139252   0.94393226 
    2100     240.0598   -311.71695    216009.12   -18688.811    1396.0823   -20084.893     8.596869   0.94393226 
    2200    239.15031   -343.71783    216009.12   -18666.813    1390.7931   -20057.606    8.9532551   0.94393226 
    2300    244.97922   -377.28234    216009.12   -18635.942    1424.6915   -20060.634    9.2685776   0.94393226 
    2400    246.39755   -193.47653    216009.12   -18634.195    1432.9398   -20067.135    9.6877141   0.94393226 
    2500    240.01463   -192.92527    216009.12   -18662.198    1395.8196   -20058.018    10.021537   0.94393226 
    2600     234.1929   -346.79455    216009.12   -18642.489    1361.9629   -20004.452    10.172891   0.94393226 
    2700    251.26263   -308.64307    216009.12   -18650.318     1461.233   -20111.551    10.285718   0.94393226 
    2800    241.26177   -496.02259    216009.12    -18609.91    1403.0724   -20012.983    10.606943   0.94393226 
    2900    240.80834   -360.22779    216009.12   -18616.649    1400.4354   -20017.085    10.899292   0.94393226 
    3000     241.8481    -230.3574    216009.12   -18619.246    1406.4822   -20025.729    11.131434   0.94393226 
    3100    249.97121   -39.649801    216009.12   -18621.424    1453.7227   -20075.147    11.296522   0.94393226 
    3200    234.92342   -330.07992    216009.12   -18674.857    1366.2113   -20041.069    11.403681   0.94393226 
    3300    234.78342   -295.69875    216009.12   -18744.862    1365.3972   -20110.259    11.721862   0.94393226 
    3400     242.9929   -142.64831    216009.12   -18694.889    1413.1399   -20108.029     11.74277   0.94393226 
    3500    240.50197   -265.81074    216009.12   -18696.783    1398.6537   -20095.437    11.987243   0.94393226 
    3600    240.84565    -347.7377    216009.12   -18692.332    1400.6524   -20092.984    12.500924   0.94393226 
    3700    244.54669   -194.83268    216009.12   -18676.522     1422.176   -20098.699    12.849838   0.94393226 
    3800    233.67366   -429.88719    216009.12   -18645.931    1358.9433   -20004.875    13.355522   0.94393226 
    3900    244.23439    -319.8787    216009.12    -18628.07    1420.3599    -20048.43    13.600105   0.94393226 
    4000    242.30506   -256.24121    216009.12   -18667.243    1409.1397   -20076.383    13.728437   0.94393226 
    4100    240.81645   -143.25067    216009.12   -18660.101    1400.4826   -20060.584    13.856773   0.94393226 
    4200      241.447   -139.38802    216009.12   -18640.272    1404.1496   -20044.422    14.159552   0.94393226 
    4300     236.0883   -351.10542    216009.12   -18675.984    1372.9858   -20048.969    14.498011   0.94393226 
    4400     240.8104   -221.77452    216009.12   -18647.798    1400.4474   -20048.245    14.799712   0.94393226 
    4500    236.01414    -341.6875    216009.12   -18676.701    1372.5545   -20049.255    15.288285   0.94393226 
    4600     237.6043   -372.26923    216009.12   -18727.564    1381.8022   -20109.367    15.614333   0.94393226 
    4700    243.99676   -308.78619    216009.12   -18657.967    1418.9779   -20076.945    15.791255   0.94393226 
    4800    247.38296   -222.80525    216009.12   -18633.592    1438.6705   -20072.263    16.023285   0.94393226 
    4900    245.10502   -307.44787    216009.12    -18604.28    1425.4231   -20029.703    16.419135   0.94393226 
    5000    238.45857   -334.50748    216009.12   -18650.916    1386.7702   -20037.686    16.966729   0.94393226 
    5100    245.84047   -326.13431    216009.12   -18632.023    1429.7001   -20061.723    17.381906   0.94393226 
    5200    237.56825   -224.16305    216009.12    -18652.25    1381.5925   -20033.843    17.683074   0.94393226 
    5300    231.63946   -355.59454    216009.12   -18717.601    1347.1133   -20064.714    17.870106   0.94393226 
    5400    234.67979   -337.79118    216009.12    -18710.84    1364.7945   -20075.635    18.145527   0.94393226 
    5500    232.94646   -319.14682    216009.12   -18703.379    1354.7142   -20058.093    18.339718   0.94393226 
    5600    238.15121   -243.23623    216009.12   -18731.536    1384.9828   -20116.519    18.704936   0.94393226 
    5700    237.95189   -338.19081    216009.12   -18691.106    1383.8236    -20074.93    19.213153   0.94393226 
    5800    238.66503   -270.68383    216009.12   -18677.989    1387.9709    -20065.96    19.497101   0.94393226 
    5900    239.67416   -329.44332    216009.12   -18701.777    1393.8396   -20095.616    19.781246   0.94393226 
    6000     235.2356   -357.48737    216009.12   -18712.666    1368.0269   -20080.693     19.83408   0.94393226 
    6100    236.08354   -452.32632    216009.12   -18732.085    1372.9581   -20105.043    19.987713   0.94393226 
    6200    236.12003   -210.82362    216009.12   -18709.881    1373.1703   -20083.052    20.239065   0.94393226 
    6300    243.51988   -317.26914    216009.12   -18658.345    1416.2046    -20074.55    20.832396   0.94393226 
    6400    235.73578   -411.16382    216009.12   -18682.477    1370.9357   -20053.413    21.354356   0.94393226 
    6500    241.34915    -193.8389    216009.12    -18698.56    1403.5805   -20102.141    21.481133   0.94393226 
    6600    235.51648   -485.76929    216009.12   -18728.409    1369.6603   -20098.069    21.713685   0.94393226 
    6700    238.13259   -346.95575    216009.12   -18744.603    1384.8744   -20129.477    21.569567   0.94393226 
    6800     238.6902   -204.02106    216009.12   -18738.808    1388.1173   -20126.926     21.76048   0.94393226 
    6900    242.72334    -226.1261    216009.12   -18730.243    1411.5722   -20141.816    21.867124   0.94393226 
    7000    243.02654   -69.494801    216009.12   -18737.142    1413.3355   -20150.478    22.102145   0.94393226 
    7100    246.93308   -354.01473    216009.12    -18756.33    1436.0543   -20192.384     22.31461   0.94393226 
    7200    235.17446    -298.1263    216009.12   -18798.639    1367.6713    -20166.31    22.477075   0.94393226 
    7300    232.18775   -351.08761    216009.12   -18816.801    1350.3019   -20167.103    22.693815   0.94393226 
    7400    236.59381   -385.02303    216009.12   -18788.452    1375.9256   -20164.377    23.061952   0.94393226 
    7500    241.53096   -343.58741    216009.12   -18764.054    1404.6379   -20168.692    23.474662   0.94393226 
    7600    247.03949    -110.0885    216009.12   -18726.424    1436.6731   -20163.098    23.746436   0.94393226 
    7700    238.30905    -332.7945    216009.12   -18739.337    1385.9007   -20125.237    24.123025   0.94393226 
    7800    238.54947   -245.32981    216009.12   -18805.338    1387.2988   -20192.637    24.234668   0.94393226 
    7900    239.02641   -360.77137    216009.12   -18786.157    1390.0726   -20176.229    24.418011   0.94393226 
    8000    245.23904   -341.42282    216009.12   -18727.659    1426.2025   -20153.862    24.832004   0.94393226 
    8100    244.39346   -319.29948    216009.12    -18713.45    1421.2849   -20134.735    25.160152   0.94393226 
    8200      238.553   -290.01472    216009.12   -18722.055    1387.3194   -20109.374    25.471423   0.94393226 
    8300    245.62104   -206.05138    216009.12   -18691.831     1428.424   -20120.255    25.811224   0.94393226 
    8400    248.83074   -203.12902    216009.12   -18672.049    1447.0902   -20119.139    26.149451   0.94393226 
    8500    240.40553   -272.83446    216009.12   -18717.965    1398.0929   -20116.058    26.444656   0.94393226 
    8600    236.88788   -480.91599    216009.12   -18724.785    1377.6358   -20102.421    26.626801   0.94393226 
    8700    239.50574   -546.09023    216009.12   -18736.363    1392.8601   -20129.224    26.999488   0.94393226 
    8800    240.82978   -456.61906    216009.12   -18731.374    1400.5601   -20131.935    27.595707   0.94393226 
    8900    232.17577   -201.42732    216009.12   -18755.332    1350.2322   -20105.564    27.838386   0.94393226 
    9000    244.64573   -308.03934    216009.12   -18722.149     1422.752   -20144.901    28.175758   0.94393226 
    9100    238.94649   -204.23899    216009.12   -18732.326    1389.6077   -20121.934    28.061254   0.94393226 
    9200    239.87483   -414.37689    216009.12   -18685.563    1395.0066    -20080.57    28.176498   0.94393226 
    9300    238.28584   -470.84374    216009.12   -18742.645    1385.7657   -20128.411    28.237837   0.94393226 
    9400    242.86742   -375.50357    216009.12   -18721.991    1412.4102   -20134.401    28.358196   0.94393226 
    9500     229.4805   -357.34104    216009.12   -18748.792    1334.5577   -20083.349    28.994677   0.94393226 
    9600    239.56666    -225.7245    216009.12   -18764.483    1393.2144   -20157.698     29.05119   0.94393226 
    9700    238.71079   -184.40169    216009.12   -18723.248     1388.237   -20111.485    29.275968   0.94393226 
    9800    239.78336   -390.53327    216009.12   -18675.012    1394.4746   -20069.486    29.369082   0.94393226 
    9900    244.40317   -411.00499    216009.12    -18694.32    1421.3414   -20115.661    29.450655   0.94393226 
   10000    233.94516   -422.08689    216009.12   -18702.567    1360.5222   -20063.089    29.563737   0.94393226 
Loop time of 14.5101 on 160 procs for 10000 steps with 9248 atoms

Performance: 297.724 ns/day, 0.081 hours/ns, 689.175 timesteps/s
97.7% CPU use with 160 MPI tasks x no OpenMP threads

MPI task timing breakdown:
Section |  min time  |  avg time  |  max time  |%varavg| %total
---------------------------------------------------------------
Pair    | 0.00045395 | 2.9522     | 12.005     | 236.3 | 20.35
Neigh   | 0.00034189 | 0.094857   | 0.35997    |  39.2 |  0.65
Comm    | 0.014196   | 3.5502     | 11.639     | 220.3 | 24.47
Output  | 0.17512    | 0.17535    | 0.18218    |   0.1 |  1.21
Modify  | 0.40928    | 7.5675     | 14.165     | 220.4 | 52.15
Other   |            | 0.1699     |            |       |  1.17

Nlocal:    57.8 ave 196 max 0 min
Histogram: 72 22 26 0 0 0 0 0 13 27
Nghost:    535.581 ave 934 max 0 min
Histogram: 24 0 0 8 8 47 25 16 24 8
Neighs:    0 ave 0 max 0 min
Histogram: 160 0 0 0 0 0 0 0 0 0
FullNghs:  5911.85 ave 23659 max 0 min
Histogram: 104 16 0 0 0 0 0 2 19 19

Total # of neighbors = 945896
Ave neighs/atom = 102.281
Neighbor list builds = 567
Dangerous builds = 0
write_data 	    ${DIR}/data.${NAME}_eq
write_data 	    run_11/data.${NAME}_eq
write_data 	    run_11/data.ibeam_cooling_11_eq

undump              1
unfix               4



################################################
#######         Run Simulation         #########
################################################

reset_timestep      0
timestep	    10.0
log                 ${DIR}/log.run_${NAME}
log                 run_11/log.run_${NAME}
log                 run_11/log.run_ibeam_cooling_11
