

### IMPORT ATOMS ###
read_data ../Box_Setup/data.Ibeam_240K
  orthogonal box = (0 0 0) to (157.504 42.9242 26.8557)
  14 by 3 by 3 MPI processor grid
  reading atoms ...
  9253 atoms
  reading velocities ...
  9253 velocities
group water type 2
1381 atoms in group water
group graphite type 1
7872 atoms in group graphite


# Define potential
#
pair_style          sw
pair_coeff * * MLC_e.sw C mW

# Add velocity/set timestep
#

fix		1 graphite setforce 0.0 0.0 0.0
velocity 	graphite set 0.0 0.0 0.0
velocity            water create ${START_TEMP} ${SEED} rot yes dist gaussian
velocity            water create 240 ${SEED} rot yes dist gaussian
velocity            water create 240 278 rot yes dist gaussian
timestep            5.0

# Define output
#
compute 1 water msd
compute 2 water temp


thermo	            100
thermo_style custom step c_2 press vol etotal ke pe c_1[4] density

# Neighbor lists
#
neigh_modify        delay 0 every 1 check yes


# Set fixes
#
fix                 2 water momentum 10 linear 1 1 1 rescale
fix                 3 all nve
fix                 4 water temp/csvr ${START_TEMP} ${START_TEMP} 500.0 928347
fix                 4 water temp/csvr 240 ${START_TEMP} 500.0 928347
fix                 4 water temp/csvr 240 240 500.0 928347

# Run 0.05 ns equilibration
#
dump                1 all custom 100 ${DIR}/eq.${NAME}.dump id type x y z vx vy vz
dump                1 all custom 100 run_4/eq.${NAME}.dump id type x y z vx vy vz
dump                1 all custom 100 run_4/eq.ibeam_cooling_4.dump id type x y z vx vy vz
run                 10000
Neighbor list info ...
  update every 1 steps, delay 0 steps, check yes
  max neighbors/atom: 2000, page size: 100000
  master list distance cutoff = 6.67472
  ghost atom cutoff = 6.67472
  binsize = 3.33736, bins = 48 13 9
  1 neighbor lists, perpetual/occasional/extra = 1 0 0
  (1) pair sw, perpetual
      attributes: full, newton on
      pair build: full/bin/atomonly
      stencil: full/bin/3d
      bin: standard
Per MPI rank memory allocation (min/avg/max) = 3.369 | 4.112 | 4.742 Mbytes
Step c_2 Press Volume TotEng KinEng PotEng c_1[4] Density 
       0          240   -344.39513    181563.75    -13284.54    987.24429   -14271.784            0    1.0922001 
     100    243.05725    -228.4436    181563.75   -13249.604    999.82034   -14249.425   0.89667863    1.0922001 
     200    232.53828   -376.92252    181563.75   -13287.351    956.55036   -14243.901    1.4006593    1.0922001 
     300    230.27974   -389.69853    181563.75   -13265.235    947.25983   -14212.495    1.8891301    1.0922001 
     400    224.30306   -369.90424    181563.75   -13272.359    922.67464   -14195.033    2.3402535    1.0922001 
     500    228.33319   -265.77701    181563.75   -13264.661    939.25266   -14203.913    2.7381084    1.0922001 
     600    235.44914   -247.11728    181563.75   -13331.478    968.52425   -14300.002    3.0469967    1.0922001 
     700     228.5129   -368.67163    181563.75   -13315.918    939.99191    -14255.91    3.5049075    1.0922001 
     800    227.21706   -292.25036    181563.75   -13350.498    934.66144   -14285.159     4.021255    1.0922001 
     900    239.79437   -327.60823    181563.75   -13317.205    986.39841   -14303.603    4.3804062    1.0922001 
    1000    230.67209    -405.3629    181563.75   -13275.046    948.87376    -14223.92    4.7756319    1.0922001 
    1100    241.49715   -301.42966    181563.75   -13286.916    993.40283   -14280.319    5.0572497    1.0922001 
    1200    234.16274   -416.50232    181563.75   -13334.405     963.2326   -14297.638    5.4068039    1.0922001 
    1300    237.79645    -402.7035    181563.75   -13298.957    978.17994   -14277.137    5.7451356    1.0922001 
    1400    244.59549   -168.62514    181563.75    -13255.28    1006.1479   -14261.428    6.0068663    1.0922001 
    1500    240.40549   -151.80407    181563.75   -13275.879    988.91226   -14264.791    6.2458957    1.0922001 
    1600     241.9987   -253.42444    181563.75   -13265.546    995.46597   -14261.012     6.505244    1.0922001 
    1700    236.63769   -392.74494    181563.75   -13280.592    973.41335   -14254.005     6.810814    1.0922001 
    1800    240.50737   -486.40059    181563.75   -13269.335    989.33137   -14258.666    7.2415569    1.0922001 
    1900    245.75816   -420.84603    181563.75   -13195.934    1010.9306   -14206.865    7.7837306    1.0922001 
    2000    250.12599   -398.76006    181563.75   -13164.937    1028.8977   -14193.834    8.2099651    1.0922001 
    2100    254.28202   -428.92309    181563.75   -13170.436    1045.9936    -14216.43    8.5701452    1.0922001 
    2200    255.31932   -384.07371    181563.75   -13169.366    1050.2606   -14219.627    8.9102841    1.0922001 
    2300    249.19986   -425.47983    181563.75   -13223.915    1025.0881   -14249.003    9.3688795    1.0922001 
    2400    244.04799   -527.62032    181563.75    -13225.47    1003.8958   -14229.365    9.9495748    1.0922001 
    2500    242.72138   -450.25677    181563.75   -13216.321    998.43872    -14214.76    10.316132    1.0922001 
    2600    237.41744   -190.85888    181563.75   -13236.631    976.62089   -14213.252    10.466108    1.0922001 
    2700     237.5027   -454.09917    181563.75   -13212.617    976.97159   -14189.588    10.888143    1.0922001 
    2800    243.59175   -465.35737    181563.75    -13230.46     1002.019   -14232.479    11.261875    1.0922001 
    2900     236.0205   -361.22849    181563.75   -13291.339    970.87455   -14262.214     11.94836    1.0922001 
    3000    239.13619   -303.15652    181563.75   -13313.593    983.69097   -14297.284    12.282596    1.0922001 
    3100    237.29627   -310.64475    181563.75   -13307.165    976.12243   -14283.288     12.85422    1.0922001 
    3200    224.94763   -377.88451    181563.75   -13313.119    925.32608   -14238.445    13.292049    1.0922001 
    3300    240.96595   -548.82606    181563.75   -13266.177    991.21775   -14257.394    13.509996    1.0922001 
    3400    238.80965   -265.13141    181563.75   -13289.799    982.34775   -14272.147    13.738303    1.0922001 
    3500    237.66675   -167.38329    181563.75   -13298.398    977.64643   -14276.044    13.889631    1.0922001 
    3600      240.118   -419.54285    181563.75    -13275.02     987.7297   -14262.749    14.255273    1.0922001 
    3700     237.4679   -266.50832    181563.75    -13319.38    976.82844   -14296.209    14.671342    1.0922001 
    3800    235.52377   -300.61534    181563.75   -13306.539    968.83122    -14275.37    15.512152    1.0922001 
    3900    233.48848   -373.01874    181563.75   -13314.351    960.45902    -14274.81    16.057549    1.0922001 
    4000    239.43627   -298.11355    181563.75   -13313.057    984.92539   -14297.983    16.295794    1.0922001 
    4100      247.066   -436.10122    181563.75   -13290.396    1016.3104   -14306.706    16.869707    1.0922001 
    4200    250.43308   -461.08723    181563.75    -13261.82    1030.1609   -14291.981     17.37719    1.0922001 
    4300      248.121   -565.00587    181563.75   -13209.162    1020.6502   -14229.812    17.473632    1.0922001 
    4400     251.4673   -494.35645    181563.75   -13223.079    1034.4152   -14257.494    17.627124    1.0922001 
    4500    241.76053   -481.90703    181563.75   -13272.811    994.48627   -14267.297    18.241555    1.0922001 
    4600    235.13875   -452.07877    181563.75   -13290.261    967.24746   -14257.508    18.737525    1.0922001 
    4700    237.09395   -398.45211    181563.75   -13286.651    975.29022   -14261.941    19.095096    1.0922001 
    4800    239.97715   -233.94683    181563.75   -13269.965    987.15031   -14257.115    19.472791    1.0922001 
    4900    231.70811   -406.21443    181563.75   -13282.607    953.13547   -14235.742    20.035815    1.0922001 
    5000     235.4903   -288.73974    181563.75   -13290.756    968.69355    -14259.45    20.467978    1.0922001 
    5100    237.11578   -341.77972    181563.75   -13293.295    975.38001   -14268.675    21.210188    1.0922001 
    5200    236.65969    -411.3363    181563.75   -13278.688    973.50386   -14252.192    21.666506    1.0922001 
    5300    232.99214   -507.29914    181563.75   -13320.039    958.41732   -14278.456    22.418843    1.0922001 
    5400    239.21474   -327.79687    181563.75   -13278.209    984.01413   -14262.223     22.98082    1.0922001 
    5500    230.48597    -285.8295    181563.75   -13309.336    948.10816   -14257.445    23.162509    1.0922001 
    5600    234.95385   -395.59826    181563.75   -13326.053    966.48687    -14292.54    23.078802    1.0922001 
    5700    234.55807   -346.09451    181563.75   -13281.681    964.85883    -14246.54    23.544468    1.0922001 
    5800    244.25694   -388.81594    181563.75   -13218.109    1004.7553   -14222.865    24.118496    1.0922001 
    5900    244.44134   -484.13943    181563.75    -13263.73    1005.5138   -14269.244    24.647983    1.0922001 
    6000    237.94344   -617.32799    181563.75   -13335.334    978.78458   -14314.119    24.733706    1.0922001 
    6100    237.96254   -357.47744    181563.75   -13334.962    978.86314   -14313.825    24.726366    1.0922001 
    6200    231.87376   -478.33221    181563.75   -13319.751    953.81687   -14273.568    24.744989    1.0922001 
    6300    238.46327    -314.9751    181563.75   -13293.475    980.92293   -14274.398    25.077796    1.0922001 
    6400    247.55733   -368.05915    181563.75    -13293.82    1018.3315   -14312.151    25.260802    1.0922001 
    6500    238.80244   -434.53191    181563.75   -13303.916    982.31812   -14286.234    25.004489    1.0922001 
    6600    237.64621   -548.43637    181563.75   -13342.418    977.56194    -14319.98    25.455268    1.0922001 
    6700    235.57097   -364.54408    181563.75   -13367.861    969.02541   -14336.886    25.717247    1.0922001 
    6800    238.42223   -428.09886    181563.75    -13363.25    980.75412   -14344.005    25.768251    1.0922001 
    6900    224.50386   -396.68725    181563.75   -13397.982    923.50063   -14321.483    25.774412    1.0922001 
    7000    230.30583   -217.24359    181563.75   -13384.477    947.36714   -14331.844    25.922141    1.0922001 
    7100    239.98216   -229.28276    181563.75   -13309.638    987.17092   -14296.809    26.306838    1.0922001 
    7200    238.15867   -314.15953    181563.75    -13317.39    979.66996    -14297.06    26.446928    1.0922001 
    7300    240.93634   -500.02033    181563.75   -13377.699    991.09595   -14368.795    26.890252    1.0922001 
    7400    230.30158    -439.7847    181563.75   -13375.937    947.34968   -14323.287    27.690919    1.0922001 
    7500    232.16243   -385.57848    181563.75   -13390.058    955.00429   -14345.063    28.131759    1.0922001 
    7600     229.8278   -427.71868    181563.75   -13391.521    945.40075   -14336.922    28.607404    1.0922001 
    7700     231.1932   -361.61418    181563.75   -13373.512    951.01734   -14324.529    28.676055    1.0922001 
    7800    241.85336   -417.09881    181563.75   -13323.153    994.86814   -14318.021    28.974081    1.0922001 
    7900    236.94497    -347.3555    181563.75   -13324.677    974.67736   -14299.354    29.161735    1.0922001 
    8000    223.95819   -414.18774    181563.75   -13304.921    921.25603   -14226.177    28.927568    1.0922001 
    8100    238.14709   -307.50612    181563.75   -13309.304    979.62232   -14288.926    29.039987    1.0922001 
    8200    248.75689   -185.23074    181563.75   -13327.125    1023.2659   -14350.391     29.08909    1.0922001 
    8300    233.62482   -122.48325    181563.75   -13354.508    961.01986   -14315.528    29.556208    1.0922001 
    8400    232.38568   -531.78039    181563.75   -13354.021    955.92263   -14309.943     30.25115    1.0922001 
    8500    234.45248   -285.79979    181563.75   -13334.244    964.42445   -14298.669    30.768969    1.0922001 
    8600    236.82405   -363.67551    181563.75    -13302.98    974.17997    -14277.16    31.187371    1.0922001 
    8700    235.37118   -477.98367    181563.75   -13358.017    968.20357   -14326.221    31.383984    1.0922001 
    8800    242.17693   -427.99298    181563.75   -13317.502    996.19913   -14313.701    31.998678    1.0922001 
    8900      237.418   -246.37826    181563.75   -13340.095    976.62319   -14316.718    32.345529    1.0922001 
    9000    246.51677   -287.03797    181563.75   -13311.605    1014.0512   -14325.656    32.707401    1.0922001 
    9100    239.45897    -320.7747    181563.75   -13301.305    985.01876   -14286.323    33.208229    1.0922001 
    9200    231.00406   -511.00331    181563.75   -13332.177    950.23934   -14282.416    33.557969    1.0922001 
    9300    230.22574   -346.14585    181563.75   -13341.948     947.0377   -14288.986    33.430255    1.0922001 
    9400    240.92196   -268.47686    181563.75   -13364.234    991.03679   -14355.271    33.701034    1.0922001 
    9500    234.54441    -277.9849    181563.75   -13346.051    964.80261   -14310.854    34.317954    1.0922001 
    9600    237.97553   -408.64057    181563.75   -13407.854    978.91658   -14386.771    34.423332    1.0922001 
    9700     234.4798   -323.55814    181563.75   -13346.662    964.53685   -14311.199    34.953135    1.0922001 
    9800     240.2393   -363.45433    181563.75    -13364.88    988.22865   -14353.109     35.04142    1.0922001 
    9900    241.12352    -478.8553    181563.75   -13309.513    991.86589   -14301.379    35.620983    1.0922001 
   10000    242.24796   -374.73037    181563.75   -13261.819     996.4913    -14258.31    35.653887    1.0922001 
Loop time of 15.5796 on 126 procs for 10000 steps with 9253 atoms

Performance: 277.286 ns/day, 0.087 hours/ns, 641.866 timesteps/s
97.7% CPU use with 126 MPI tasks x no OpenMP threads

MPI task timing breakdown:
Section |  min time  |  avg time  |  max time  |%varavg| %total
---------------------------------------------------------------
Pair    | 0.00076151 | 3.4895     | 13.12      | 239.2 | 22.40
Neigh   | 0.0035436  | 0.12163    | 0.38954    |  38.6 |  0.78
Comm    | 0.1709     | 3.4506     | 12.068     | 212.0 | 22.15
Output  | 0.15547    | 0.15564    | 0.16225    |   0.2 |  1.00
Modify  | 0.28152    | 8.2283     | 15.13      | 230.8 | 52.81
Other   |            | 0.1338     |            |       |  0.86

Nlocal:    73.4365 ave 210 max 0 min
Histogram: 52 10 22 0 0 0 0 0 28 14
Nghost:    650.802 ave 931 max 497 min
Histogram: 48 6 13 14 3 4 8 16 10 4
Neighs:    0 ave 0 max 0 min
Histogram: 126 0 0 0 0 0 0 0 0 0
FullNghs:  7926.6 ave 25590 max 0 min
Histogram: 64 20 0 0 0 0 0 7 27 8

Total # of neighbors = 998752
Ave neighs/atom = 107.938
Neighbor list builds = 557
Dangerous builds = 0
write_data 	    ${DIR}/data.${NAME}_eq
write_data 	    run_4/data.${NAME}_eq
write_data 	    run_4/data.ibeam_cooling_4_eq

undump              1
unfix               4



################################################
#######         Run Simulation         #########
################################################

reset_timestep      0
timestep	    10.0
log                 ${DIR}/log.run_${NAME}
log                 run_4/log.run_${NAME}
log                 run_4/log.run_ibeam_cooling_4
