
### Dimensions ###


### IMPORT ATOMS ###
read_data ../Box_Setup/data.Ibeam_240K
  orthogonal box = (0 0 0) to (157.504 36.4877 39.8503)
  10 by 4 by 4 MPI processor grid
  reading atoms ...
  8943 atoms
  reading velocities ...
  8943 velocities
group water type 2
2223 atoms in group water
group graphite type 1
6720 atoms in group graphite


# Define potential
#
pair_style          sw
pair_coeff * * MLC_e.sw C mW

# Add velocity/set timestep
#

fix		1 graphite setforce 0.0 0.0 0.0
velocity 	graphite set 0.0 0.0 0.0
velocity            water create ${START_TEMP} ${SEED} rot yes dist gaussian
velocity            water create 240 ${SEED} rot yes dist gaussian
velocity            water create 240 14838 rot yes dist gaussian
timestep            5.0

# Define output
#
compute 1 water msd
compute 2 water temp


thermo	            100
thermo_style custom step c_2 press vol etotal ke pe c_1[4] density

# Neighbor lists
#
neigh_modify        delay 0 every 1 check yes


# Set fixes
#
fix                 2 water momentum 10 linear 1 1 1 rescale
fix                 3 all nve
fix                 4 water temp/csvr ${START_TEMP} ${START_TEMP} 500.0 928347
fix                 4 water temp/csvr 240 ${START_TEMP} 500.0 928347
fix                 4 water temp/csvr 240 240 500.0 928347

# Run 0.05 ns equilibration
#
dump                1 all custom 100 ${DIR}/eq.${NAME}.dump id type x y z vx vy vz
dump                1 all custom 100 run_23/eq.${NAME}.dump id type x y z vx vy vz
dump                1 all custom 100 run_23/eq.ibeam_cooling_23.dump id type x y z vx vy vz
run                 10000
Neighbor list info ...
  update every 1 steps, delay 0 steps, check yes
  max neighbors/atom: 2000, page size: 100000
  master list distance cutoff = 6.67472
  ghost atom cutoff = 6.67472
  binsize = 3.33736, bins = 48 11 12
  1 neighbor lists, perpetual/occasional/extra = 1 0 0
  (1) pair sw, perpetual
      attributes: full, newton on
      pair build: full/bin/atomonly
      stencil: full/bin/3d
      bin: standard
Per MPI rank memory allocation (min/avg/max) = 0.463 | 3.758 | 4.742 Mbytes
Step c_2 Press Volume TotEng KinEng PotEng c_1[4] Density 
       0          240   -163.35224    229018.04   -21211.582    1589.6064   -22801.188            0   0.87555383 
     100     247.7366   -253.27012    229018.04   -21166.651    1640.8487   -22807.499   0.84045173   0.87555383 
     200    240.13825    -364.4764    229018.04   -21207.398    1590.5221    -22797.92    1.2971997   0.87555383 
     300    237.94618   -377.53289    229018.04   -21183.279    1576.0032   -22759.282    1.6467378   0.87555383 
     400    240.06014   -303.04673    229018.04   -21182.615    1590.0047   -22772.619    2.0191025   0.87555383 
     500    239.10638    -215.1483    229018.04   -21188.008    1583.6876   -22771.696    2.3516452   0.87555383 
     600    233.75252   -214.30731    229018.04   -21289.277    1548.2271   -22837.504    2.8176985   0.87555383 
     700    238.76958   -139.75525    229018.04    -21268.22    1581.4569   -22849.677    3.1801128   0.87555383 
     800     227.7011    -407.7316    229018.04   -21306.224    1508.1464    -22814.37    3.5270055   0.87555383 
     900    235.41942   -404.49405    229018.04   -21260.808    1559.2676   -22820.075    3.9345124   0.87555383 
    1000    241.49379   -261.68657    229018.04   -21200.435    1599.5003   -22799.935    4.1984772   0.87555383 
    1100    234.46655   -280.21374    229018.04   -21222.487    1552.9563   -22775.443    4.5247469   0.87555383 
    1200    237.58372   -199.74875    229018.04    -21268.35    1573.6025   -22841.952    4.9111605   0.87555383 
    1300    240.61464   -529.74881    229018.04   -21219.567    1593.6774   -22813.244    5.3061029   0.87555383 
    1400    240.16727   -522.53266    229018.04   -21148.244    1590.7143   -22738.959    5.6361679   0.87555383 
    1500    242.66802   -386.84743    229018.04   -21154.637    1607.2776   -22761.914    6.1103213   0.87555383 
    1600    242.04784   -343.95871    229018.04    -21155.22      1603.17    -22758.39    6.4168645   0.87555383 
    1700    242.75374   -243.06152    229018.04   -21165.967    1607.8454   -22773.812    6.7685871   0.87555383 
    1800    241.74378   -311.42385    229018.04   -21184.884    1601.1561    -22786.04    7.2619829   0.87555383 
    1900    246.86505   -301.14175    229018.04   -21108.962    1635.0761   -22744.038    7.5072456   0.87555383 
    2000     243.1585   -236.01358    229018.04    -21080.99    1610.5263   -22691.516     7.706714   0.87555383 
    2100    243.47356   -360.29987    229018.04   -21100.877     1612.613    -22713.49    8.1823987   0.87555383 
    2200    247.63678   -303.17976    229018.04   -21112.921    1640.1876   -22753.108    8.5840617   0.87555383 
    2300    244.62315   -214.87471    229018.04   -21160.635    1620.2272   -22780.862    8.9776435   0.87555383 
    2400    244.62365   -178.33426    229018.04   -21178.541    1620.2305   -22798.771    9.5254614   0.87555383 
    2500    243.22309   -201.60581    229018.04   -21168.088    1610.9541   -22779.042    9.7542067   0.87555383 
    2600    242.40378   -483.87966    229018.04   -21215.901    1605.5275   -22821.429    10.079615   0.87555383 
    2700    245.55193   -346.87018    229018.04   -21202.723    1626.3788   -22829.102    10.267918   0.87555383 
    2800    241.27035   -395.34064    229018.04   -21190.184    1598.0204   -22788.204    10.619946   0.87555383 
    2900    235.20106   -312.16223    229018.04     -21257.4    1557.8213   -22815.221    10.755653   0.87555383 
    3000    237.29629   -311.97993    229018.04   -21278.383    1571.6988   -22850.082     11.16126   0.87555383 
    3100    234.15753   -253.64377    229018.04    -21264.96    1550.9096   -22815.869    11.447402   0.87555383 
    3200    238.87312   -253.92059    229018.04     -21286.3    1582.1427   -22868.443    11.612057   0.87555383 
    3300      243.412    -228.8494    229018.04   -21254.553    1612.2053   -22866.758    11.784863   0.87555383 
    3400    238.24172   -259.77673    229018.04   -21263.416    1577.9607   -22841.377    12.313247   0.87555383 
    3500    232.98317   -228.73417    229018.04   -21268.729    1543.1314   -22811.861    12.646693   0.87555383 
    3600    240.98037   -291.49845    229018.04   -21259.874    1596.0997   -22855.974     12.81567   0.87555383 
    3700    230.09268   -427.11767    229018.04   -21292.419    1523.9866   -22816.405    13.048791   0.87555383 
    3800    230.37932   -537.38467    229018.04   -21282.504    1525.8852   -22808.389    13.521442   0.87555383 
    3900    239.25326   -304.91049    229018.04   -21278.308    1584.6604   -22862.969    13.770518   0.87555383 
    4000    233.88733   -183.55102    229018.04   -21301.493      1549.12   -22850.613    13.843372   0.87555383 
    4100    235.41082   -329.68998    229018.04   -21257.594    1559.2106   -22816.805    13.952051   0.87555383 
    4200    245.00193   -241.35515    229018.04   -21221.499     1622.736   -22844.235    14.149545   0.87555383 
    4300    252.72565    -104.9487    229018.04   -21138.737    1673.8929    -22812.63    14.619738   0.87555383 
    4400    242.12827   -227.29734    229018.04   -21152.716    1603.7027   -22756.419    15.239313   0.87555383 
    4500    241.00112   -392.23894    229018.04   -21188.704    1596.2372   -22784.942    15.580383   0.87555383 
    4600    246.17613   -296.52034    229018.04   -21219.163    1630.5131   -22849.676    16.065224   0.87555383 
    4700    233.68562   -256.20794    229018.04   -21254.124    1547.7839   -22801.908    16.439081   0.87555383 
    4800    240.16893   -240.90755    229018.04   -21206.799    1590.7252   -22797.524    16.626537   0.87555383 
    4900    240.34597   -268.23228    229018.04   -21219.529    1591.8978   -22811.427    16.881751   0.87555383 
    5000     241.3819   -87.861228    229018.04   -21248.412    1598.7592   -22847.171     17.12802   0.87555383 
    5100    233.66268   -324.02918    229018.04   -21253.917    1547.6321   -22801.549    17.537891   0.87555383 
    5200    236.09889   -318.75089    229018.04   -21218.158    1563.7679   -22781.926    18.253556   0.87555383 
    5300    230.73457   -288.21295    229018.04   -21262.972    1528.2381   -22791.211    18.838836   0.87555383 
    5400    240.87287   -274.48872    229018.04   -21222.653    1595.3877    -22818.04    19.340598   0.87555383 
    5500    236.95285   -245.43574    229018.04   -21252.388     1569.424   -22821.812    19.737423   0.87555383 
    5600    229.25584   -340.72266    229018.04   -21278.267    1518.4439   -22796.711    20.267669   0.87555383 
    5700    237.44175   -315.74239    229018.04   -21248.651    1572.6622   -22821.313    20.528212   0.87555383 
    5800    244.95823   -301.26209    229018.04   -21161.891    1622.4465   -22784.337    20.543235   0.87555383 
    5900    246.15731   -311.37676    229018.04   -21180.019    1630.3885   -22810.408    20.900111   0.87555383 
    6000    232.15407   -335.91036    229018.04   -21263.311      1537.64   -22800.951    21.502862   0.87555383 
    6100    234.58158   -261.59141    229018.04   -21244.206    1553.7182   -22797.924    22.041766   0.87555383 
    6200    235.07469   -324.63764    229018.04   -21225.124    1556.9843   -22782.108    22.495367   0.87555383 
    6300    238.16604   -244.33385    229018.04   -21181.392    1577.4594   -22758.852    22.815784   0.87555383 
    6400    241.20545   -352.40955    229018.04   -21186.762    1597.5905   -22784.353    23.154661   0.87555383 
    6500    243.88016    -314.4962    229018.04   -21206.836    1615.3061   -22822.142    23.829138   0.87555383 
    6600    234.69237   -370.36675    229018.04   -21254.308    1554.4521    -22808.76    23.947722   0.87555383 
    6700    231.92479   -317.56992    229018.04    -21290.25    1536.1214   -22826.372    24.113292   0.87555383 
    6800    243.21907   -397.29862    229018.04   -21243.691    1610.9274   -22854.618    24.365128   0.87555383 
    6900    234.46253   -201.71351    229018.04   -21282.401    1552.9297   -22835.331    24.800315   0.87555383 
    7000    236.83437    -244.9941    229018.04    -21289.66    1568.6392   -22858.299     24.99212   0.87555383 
    7100    239.74326   -204.20765    229018.04   -21202.587    1587.9059   -22790.493    25.498764   0.87555383 
    7200    241.34679   -222.40852    229018.04   -21213.977    1598.5267   -22812.504    25.706331   0.87555383 
    7300    236.68874   -283.34749    229018.04   -21298.915    1567.6747    -22866.59    25.762166   0.87555383 
    7400    234.44433   -392.05247    229018.04   -21303.672    1552.8092   -22856.482    26.038439   0.87555383 
    7500     235.6887   -323.07697    229018.04   -21323.891    1561.0511   -22884.942    26.369903   0.87555383 
    7600    228.96461   -382.45608    229018.04   -21336.196     1516.515   -22852.711    26.609804   0.87555383 
    7700    235.91127   -266.34819    229018.04   -21293.464    1562.5253   -22855.989    26.934612   0.87555383 
    7800    241.16045   -164.05026    229018.04   -21240.755    1597.2925   -22838.047     27.37231   0.87555383 
    7900    238.11901   -200.93687    229018.04   -21214.372    1577.1479    -22791.52     27.82392   0.87555383 
    8000    242.03985   -315.34899    229018.04   -21214.482     1603.117   -22817.599    28.678933   0.87555383 
    8100    242.17383   -397.96063    229018.04   -21240.286    1604.0045   -22844.291    29.009946   0.87555383 
    8200    239.91959      -173.18    229018.04   -21263.832    1589.0738   -22852.906    29.561995   0.87555383 
    8300    234.61853   -188.82607    229018.04   -21278.728     1553.963   -22832.691    30.156684   0.87555383 
    8400    234.24435   -227.75817    229018.04     -21283.6    1551.4846   -22835.085    30.441134   0.87555383 
    8500    235.10731   -226.49528    229018.04   -21284.998    1557.2004   -22842.198    30.538457   0.87555383 
    8600    237.30435    -261.8683    229018.04   -21228.214    1571.7521   -22799.966    30.821664   0.87555383 
    8700    236.28052   -250.30927    229018.04   -21295.993     1564.971   -22860.964    31.142275   0.87555383 
    8800    242.67398    -182.2582    229018.04   -21232.537    1607.3171   -22839.854    31.351328   0.87555383 
    8900    242.29064   -309.96692    229018.04   -21264.995    1604.7781   -22869.773      31.7457   0.87555383 
    9000    234.82529   -168.82411    229018.04   -21215.384    1555.3324   -22770.716    31.634686   0.87555383 
    9100    242.27346   -249.25939    229018.04   -21201.461    1604.6644   -22806.125    31.591155   0.87555383 
    9200    233.97896   -298.80455    229018.04    -21248.66    1549.7269   -22798.387    31.596403   0.87555383 
    9300    234.81581   -362.92963    229018.04   -21275.452    1555.2697   -22830.722    31.586576   0.87555383 
    9400     234.9638   -224.97054    229018.04   -21299.292    1556.2498   -22855.541    31.087571   0.87555383 
    9500    238.41946   -331.73872    229018.04   -21257.463    1579.1379   -22836.601    31.714546   0.87555383 
    9600    235.34313   -330.13191    229018.04   -21325.511    1558.7622   -22884.274    32.367203   0.87555383 
    9700    238.85617   -337.97259    229018.04   -21281.165    1582.0304   -22863.195    32.486262   0.87555383 
    9800    232.24692    -230.9506    229018.04   -21289.018     1538.255   -22827.273    32.840586   0.87555383 
    9900     242.3827   -229.50118    229018.04   -21224.945    1605.3879   -22830.333    33.424912   0.87555383 
   10000    241.74713   -362.55627    229018.04   -21134.454    1601.1783   -22735.632    33.748565   0.87555383 
Loop time of 14.7957 on 160 procs for 10000 steps with 8943 atoms

Performance: 291.977 ns/day, 0.082 hours/ns, 675.872 timesteps/s
97.8% CPU use with 160 MPI tasks x no OpenMP threads

MPI task timing breakdown:
Section |  min time  |  avg time  |  max time  |%varavg| %total
---------------------------------------------------------------
Pair    | 0.00047946 | 3.0582     | 12.181     | 238.2 | 20.67
Neigh   | 0.0003984  | 0.10173    | 0.3901     |  39.2 |  0.69
Comm    | 0.014398   | 4.0179     | 12.006     | 216.9 | 27.16
Output  | 0.17391    | 0.17408    | 0.18079    |   0.1 |  1.18
Modify  | 0.39579    | 7.2755     | 14.456     | 225.4 | 49.17
Other   |            | 0.1683     |            |       |  1.14

Nlocal:    55.8937 ave 177 max 0 min
Histogram: 72 5 42 1 0 0 0 0 4 36
Nghost:    541.094 ave 963 max 0 min
Histogram: 24 0 0 8 5 52 21 18 21 11
Neighs:    0 ave 0 max 0 min
Histogram: 160 0 0 0 0 0 0 0 0 0
FullNghs:  5636.32 ave 22210 max 0 min
Histogram: 88 32 0 0 0 0 0 2 19 19

Total # of neighbors = 901812
Ave neighs/atom = 100.84
Neighbor list builds = 577
Dangerous builds = 0
write_data 	    ${DIR}/data.${NAME}_eq
write_data 	    run_23/data.${NAME}_eq
write_data 	    run_23/data.ibeam_cooling_23_eq

undump              1
unfix               4



################################################
#######         Run Simulation         #########
################################################

reset_timestep      0
timestep	    10.0
log                 ${DIR}/log.run_${NAME}
log                 run_23/log.run_${NAME}
log                 run_23/log.run_ibeam_cooling_23
