
# Set production fixes - Nose/Hoover
#
fix                 4 water temp/csvr ${START_TEMP} ${END_TEMP} 500.0 928347
fix                 4 water temp/csvr 240 ${END_TEMP} 500.0 928347
fix                 4 water temp/csvr 240 227 500.0 928347


## divide "droplet" into core and surface
#region		core_reg cylinder z 135 135 44.6 20 INF units box
#region		surface_reg cylinder z 135 135 44.6 20 INF units box side out
#group		core dynamic all region core_reg
#group		surface dynamic all region surface_reg

## compute pressure core
#compute        peratom_core core stress/atom NULL
#compute        p_core core reduce sum c_peratom_core[1] c_peratom_core[2] c_peratom_core[3]
#variable       press_core equal -(c_p_core[1]+c_p_core[2]+c_p_core[3])/(3*1249982.5)


## compute pressure surface
#compute        peratom_surf surface stress/atom NULL
#compute        p_surf surface reduce sum c_peratom_surf[1] c_peratom_surf[2] #c_peratom_surf[3]
#variable       press_surf equal -(c_p_surf[1]+c_p_surf[2]+c_p_surf[3])/(3*42395)

## compute total pressure of drop
compute        peratom water stress/atom NULL
compute        p water reduce sum c_peratom[1] c_peratom[2] c_peratom[3]
variable       press equal -(c_p[1]+c_p[2]+c_p[3])/(3*58301)


# compute order parameter
compute        3 all orientorder/atom nnn NULL cutoff 3.5

# compute center of mass of bridge
compute 	4 water com

# Run simulation
thermo_style        custom step c_2 press vol etotal ke pe v_press c_1[4] c_4[*]
thermo              200
dump		     1 water custom 400 ${DIR}/prod.${NAME}.dump id type x y z vx vy vz c_3[*] c_peratom[*]
dump		     1 water custom 400 run_6/prod.${NAME}.dump id type x y z vx vy vz c_3[*] c_peratom[*]
dump		     1 water custom 400 run_6/prod.ibeam_cooling_6.dump id type x y z vx vy vz c_3[*] c_peratom[*]
run                 ${STEPS}
run                 5200000
Neighbor list info ...
  update every 1 steps, delay 0 steps, check yes
  max neighbors/atom: 2000, page size: 100000
  master list distance cutoff = 6.6747184
  ghost atom cutoff = 6.6747184
  binsize = 3.3373592, bins = 48 11 14
  2 neighbor lists, perpetual/occasional/extra = 1 1 0
  (1) pair sw, perpetual
      attributes: full, newton on
      pair build: full/bin/atomonly
      stencil: full/bin/3d
      bin: standard
  (2) compute orientorder/atom, occasional, copy from (1)
      attributes: full, newton on
      pair build: copy
      stencil: none
      bin: none
Per MPI rank memory allocation (min/avg/max) = 6.105 | 6.802 | 7.324 Mbytes
Step c_2 Press Volume TotEng KinEng PotEng v_press c_1[4] c_4[1] c_4[2] c_4[3] 
       0    243.68066   -251.25902    263624.46     -25728.8     1972.083   -27700.883   -600.53142    38.181493    78.605305     18.38729    27.393998 
     200    244.03746   -304.08013    263624.46   -25735.914    1974.9706   -27710.885   -828.21337    40.366686    78.605438    18.385886    27.400168 
     400    240.18891   -450.01955    263624.46   -25712.684    1943.8247   -27656.508    -1497.459    42.911425    78.605323    18.383765    27.399262 
     600    240.24741   -251.51917    263624.46   -25630.607    1944.2981   -27574.905   -595.94553    44.223417    78.604448    18.381804    27.389408 
     800     242.8906   -277.21195    263624.46    -25628.74    1965.6891    -27594.43   -738.66025    45.831045    78.602788    18.380334    27.408824 
    1000    240.39692   -310.66688    263624.46   -25698.302    1945.5081    -27643.81   -885.02179     46.97944    78.601837    18.379823    27.427064 
    1200    237.56401   -354.55149    263624.46   -25680.102    1922.5816   -27602.684   -1088.5125    48.041679    78.600868    18.378491    27.446631 
    1400    240.97749   -244.48448    263624.46   -25664.732    1950.2066   -27614.939   -564.14952    49.539043    78.601739    18.378247    27.461813 
    1600    243.43682   -83.290895    263624.46   -25665.984    1970.1097   -27636.094    174.87561    51.157889    78.602472    18.377514    27.467585 
    1800    239.50496   -354.86204    263624.46   -25659.697    1938.2895   -27597.987   -1065.6287    53.345155    78.601049    18.376957    27.467093 
    2000    248.19593   -388.26761    263624.46   -25613.235    2008.6247    -27621.86   -1215.4963    55.131496    78.601058    18.376228    27.461193 
    2200    239.86629   -443.03342    263624.46    -25693.32    1941.2137   -27634.534   -1457.5564    56.730398    78.600068    18.375451    27.467366 
    2400    242.94477   -361.99699    263624.46   -25666.592    1966.1275   -27632.719   -1091.6614    57.811735    78.601204    18.375754    27.480875 
    2600    236.19398   -321.62659    263624.46   -25685.223    1911.4941   -27596.717   -913.46155    60.097069    78.601238    18.376496    27.475972 
    2800    243.04199    -299.5137    263624.46    -25605.36    1966.9144   -27572.274    -803.4497    61.614823    78.601453    18.375308    27.493931 
    3000    245.95175   -184.46731    263624.46    -25637.98    1990.4628   -27628.442   -299.38465    63.096338    78.600024    18.375823    27.485382 
    3200    241.75029   -253.83545    263624.46    -25734.39    1956.4608   -27690.851    -614.8732    64.491428    78.599255    18.374257    27.492033 
    3400    240.22517    -335.3544    263624.46   -25728.849    1944.1181   -27672.968   -969.36187    66.255134    78.597997    18.373864    27.490416 
    3600    237.98293   -164.39666    263624.46   -25743.953    1925.9719   -27669.925   -230.44594    67.133708    78.598105    18.374191    27.506112 
    3800    241.84137   -240.65726    263624.46   -25700.812    1957.1978    -27658.01   -553.74079    68.445364    78.598731    18.376599    27.517037 
    4000    240.96212   -365.75683    263624.46   -25757.348    1950.0821    -27707.43   -1082.6231    69.547704    78.598721    18.375626    27.515112 
    4200    236.85703     -267.815    263624.46   -25694.739    1916.8601   -27611.599   -655.37831    70.525489    78.599688    18.374449    27.508274 
    4400     239.0318   -187.33756    263624.46   -25732.222    1934.4602   -27666.682   -337.06404    71.972673    78.600638    18.374613     27.51682 
    4600    237.41581   -263.55027    263624.46   -25820.557    1921.3822   -27741.939   -674.95572    73.899446    78.600356    18.376149    27.510706 
    4800    242.64171   -317.54791    263624.46   -25688.665    1963.6749    -27652.34   -888.73084    75.200183    78.599469     18.37707    27.516659 
    5000    237.61656   -315.11456    263624.46   -25735.552    1923.0069   -27658.559   -906.11344    76.664463    78.598328    18.380022    27.529875 
    5200    241.10646   -304.78131    263624.46   -25701.223    1951.2503   -27652.473   -871.77447    77.958062    78.597967    18.379774    27.564017 
    5400     239.0359    -407.9862    263624.46   -25720.281    1934.4934   -27654.774   -1305.8706    79.461083    78.598171    18.381297    27.568011 
    5600    240.33333   -224.83011    263624.46   -25729.467    1944.9934   -27674.461   -470.00816    81.980067    78.598627    18.381733    27.564341 
    5800    245.23488   -305.78901    263624.46   -25683.311    1984.6612   -27667.972   -868.67084    83.317357    78.596757     18.38327     27.56529 
    6000    242.92867   -221.93646    263624.46   -25723.058    1965.9973   -27689.055   -471.97642    84.841399    78.594692    18.384893    27.587666 
    6200    237.80031   -332.06766    263624.46   -25755.104    1924.4939   -27679.598   -1015.0618    86.155332    78.593123    18.384482    27.594539 
    6400    234.17586   -170.88436    263624.46   -25746.746    1895.1617   -27641.908   -236.00515    86.841092    78.590494     18.38502    27.611693 
    6600    236.76435   -156.44929    263624.46   -25783.635      1916.11   -27699.745    -126.7738    87.931762    78.589496    18.382907    27.624644 
    6800    238.45542   -465.28961    263624.46   -25760.946    1929.7957   -27690.742   -1552.0625    89.732343    78.588567    18.382958     27.63235 
    7000    239.40801    -170.9558    263624.46    -25729.79    1937.5049   -27667.295     -214.253    89.924782    78.588137    18.380243    27.613216 
    7200    228.42912   -338.44229    263624.46   -25801.168    1848.6539   -27649.822     -1020.67    91.943385    78.587856    18.380214    27.623241 
    7400    239.65351   -312.57986    263624.46   -25730.757    1939.4917   -27670.249   -891.36102    93.810457    78.590573    18.381733    27.619226 
    7600    242.35552   -247.79436    263624.46   -25624.356    1961.3588   -27585.715   -608.77041    95.517709    78.590404    18.383582    27.610899 
    7800    231.06064   -149.84203    263624.46   -25770.171    1869.9505   -27640.122   -162.61084    95.864042    78.589131    18.381998    27.599898 
    8000    240.45844   -257.14856    263624.46   -25641.295    1946.0059   -27587.301   -623.85551     97.05697    78.588168     18.38155    27.627369 
    8200    242.03891   -202.63859    263624.46   -25623.078    1958.7965   -27581.875   -316.59799    99.233864    78.588099    18.380442    27.630588 
    8400    238.90847   -187.21649    263624.46   -25580.934    1933.4622   -27514.396   -317.82574    99.599791    78.588727    18.380726    27.615597 
    8600    244.63735   -132.56317    263624.46   -25609.819    1979.8255   -27589.644   -63.325756    102.13617     78.58732    18.380499    27.592417 
    8800    242.21506   -252.62095    263624.46   -25643.421    1960.2221   -27603.643   -614.17167    104.69628    78.586689    18.378941    27.586921 
    9000    239.81423    -281.0007    263624.46   -25661.042    1940.7924   -27601.834   -780.01661    106.76791    78.587573    18.378595    27.582721 
    9200    245.24396   -188.34015    263624.46   -25642.172    1984.7346   -27626.907   -318.29187    108.20445    78.588061    18.378461    27.589597 
    9400    235.86318   -331.04678    263624.46   -25670.666     1908.817   -27579.483   -961.75574    109.65147     78.58705      18.3761    27.591415 
    9600    241.80517   -195.47213    263624.46   -25724.052    1956.9049   -27680.957   -360.18067    110.96563    78.587828    18.374214    27.576152 
    9800    244.01625    -282.5116    263624.46   -25610.137     1974.799   -27584.936   -755.14746    111.60487    78.587357    18.374483    27.590782 
   10000    241.07513     -355.059    263624.46   -25693.535    1950.9967   -27644.532   -1091.8228    112.97939    78.587334    18.375115    27.591956 
   10200    237.23409   -286.30608    263624.46   -25611.209    1919.9116    -27531.12   -754.23747    114.13088    78.587108    18.375589    27.598486 
   10400    243.34383   -233.44182    263624.46    -25643.82    1969.3571   -27613.177    -607.0571    116.49932    78.588287    18.376053    27.587087 
   10600    237.71801   -443.73026    263624.46    -25693.77    1923.8279   -27617.598   -1492.7733    117.89348    78.589322    18.374757    27.590174 
   10800    234.71664    -352.4043    263624.46   -25760.907    1899.5381   -27660.445   -1006.7381    119.11511    78.590593    18.374371    27.564211 
   11000    238.67041    -222.1602    263624.46   -25746.821    1931.5356   -27678.357   -509.14556    119.78985    78.591327    18.374992    27.549196 
   11200    236.12446   -288.23028    263624.46   -25728.388    1910.9315    -27639.32   -739.87612    121.78675    78.590964    18.376772    27.564932 
   11400    235.28085   -180.81954    263624.46   -25711.582    1904.1043   -27615.687   -309.25724    122.26795    78.591007    18.378253    27.579295 
   11600    245.37565   -165.53888    263624.46   -25654.907    1985.8004   -27640.707   -218.28566     123.9674    78.590295    18.378498    27.572912 
   11800    242.54564   -239.92294    263624.46   -25655.145    1962.8974   -27618.042   -570.68331    125.30998    78.590387    18.379314    27.577551 
   12000    241.02333   -249.24949    263624.46   -25625.363    1950.5775   -27575.941   -616.16126    125.67583    78.589697    18.381247    27.565337 
   12200    243.32021   -298.00187    263624.46    -25650.28     1969.166   -27619.446   -827.66772    126.48865    78.590222    18.382176    27.562473 
   12400    240.93217   -298.02904    263624.46   -25716.877    1949.8398   -27666.717   -853.08136    128.48834    78.589823    18.383509    27.562268 
   12600    239.84503   -195.76445    263624.46   -25653.187    1941.0416   -27594.228   -350.82813    130.46579    78.589259    18.385532     27.56662 
   12800    242.19661   -99.819262    263624.46   -25675.622    1960.0727   -27635.695    69.314005    132.21928    78.587604    18.386815    27.547131 
   13000    239.36398   -373.47829    263624.46   -25728.633    1937.1486   -27665.782   -1123.0018    134.64011    78.586687    18.386674    27.563032 
   13200    238.32693   -257.37906    263624.46       -25735    1928.7558   -27663.756   -655.66457    136.83044    78.586947    18.385577    27.555824 
   13400    233.24399   -240.63739    263624.46   -25794.773    1887.6201   -27682.394   -579.16533    139.66936    78.588498    18.385405    27.554325 
   13600    239.49384   -401.12918    263624.46   -25752.727    1938.1995   -27690.927   -1277.6829    141.66618    78.586004    18.388024    27.545124 
   13800    241.72434   -178.11073    263624.46   -25641.025    1956.2508   -27597.276   -294.19538    142.81154    78.585408    18.388449    27.548556 
   14000    237.80338   -173.17385    263624.46   -25599.226    1924.5188   -27523.744   -255.17623     144.7377    78.586503    18.388983    27.556824 
   14200    238.26962   -99.717109    263624.46   -25691.181     1928.292   -27619.473    40.890037     145.8395    78.586589     18.38925    27.544819 
   14400    239.07941   -267.90033    263624.46   -25702.476    1934.8456   -27637.322   -720.81749    146.89556    78.586792     18.38923    27.551431 
   14600    243.27419   -260.23559    263624.46   -25719.235    1968.7935   -27688.028   -648.96398    148.38946    78.586831    18.392683    27.540381 
   14800    240.20916   -311.35443    263624.46   -25696.962    1943.9886    -27640.95   -880.59268     149.7936    78.586216    18.394304    27.546657 
   15000    239.55274   -59.666509    263624.46   -25739.646    1938.6762   -27678.322    238.11746    150.56614    78.584409     18.39919    27.525448 
   15200    242.57298   -175.56235    263624.46   -25725.022    1963.1187   -27688.141   -275.96485    151.92323    78.583145    18.400218    27.511523 
   15400    238.64676   -194.06715    263624.46   -25806.321    1931.3442   -27737.665   -327.56387    154.90831    78.583401    18.400594    27.519294 
   15600    245.09372    -405.0424    263624.46   -25653.286    1983.5188   -27636.805   -1296.4412    156.33251    78.583452     18.40099    27.526102 
   15800    240.16927   -249.22085    263624.46   -25690.016    1943.6657   -27633.681    -633.6339    157.62123    78.584337    18.401547    27.534513 
   16000    240.03286   -313.93778    263624.46   -25753.313    1942.5618   -27695.874   -902.68703    160.34598    78.584014    18.400808    27.537599 
   16200    235.69588   -291.13729    263624.46   -25724.508     1907.463   -27631.971   -803.42467    162.10319    78.583631    18.402755    27.543151 
   16400    236.69472   -198.75357    263624.46   -25717.362    1915.5465   -27632.909   -356.84455     163.8868    78.583927    18.405225    27.546098 
   16600    238.34093   -382.03934    263624.46   -25632.018    1928.8691   -27560.888   -1189.3136     165.8117     78.58408    18.403734    27.534737 
   16800     242.7979   -206.90701    263624.46   -25679.119     1964.939   -27644.058    -407.1497    167.52156    78.583616     18.40247    27.538166 
   17000    237.06055    -272.8508    263624.46   -25765.637    1918.5072   -27684.144   -713.38894    169.61836    78.585066    18.402685    27.549609 
   17200    238.94715   -272.72841    263624.46   -25773.834    1933.7752    -27707.61   -682.06125    170.58131     78.58507     18.40216    27.556521 
   17400    234.10293   -149.48639    263624.46   -25815.855    1894.5715   -27710.426   -132.68645    172.27749    78.584747    18.401585    27.569646 
   17600    243.49919   -267.36302    263624.46   -25744.322    1970.6144   -27714.937   -660.43836    172.10564    78.584817    18.402741    27.568611 
   17800    234.97367   -340.50045    263624.46   -25729.043    1901.6182   -27630.661   -996.08386    172.88044    78.586156     18.40413    27.582228 
   18000    241.56736   -175.29032    263624.46   -25718.256    1954.9803   -27673.237   -281.95886    174.94486    78.585328    18.404271    27.597845 
   18200    239.27442   -254.45607    263624.46   -25743.975    1936.4237   -27680.399     -608.624    177.74645    78.585686    18.404599    27.575022 
   18400    238.00523   -271.77215    263624.46   -25728.645    1926.1523   -27654.798   -727.04271    179.46749    78.586913    18.406294    27.569188 
   18600    238.16428   -387.21946    263624.46   -25728.275    1927.4395   -27655.715   -1203.9385      179.502    78.588198    18.405694    27.575622 
   18800    240.00794   -270.71312    263624.46    -25769.36    1942.3601    -27711.72   -711.15919    182.23246    78.589577    18.405348    27.598394 
   19000    244.08738   -283.81869    263624.46   -25681.598    1975.3746   -27656.973   -757.86306    184.09526     78.58823     18.40271    27.596364 
   19200    240.34165   -299.37437    263624.46   -25725.643    1945.0608   -27670.704   -845.66592    185.92729    78.590161    18.400484    27.609402 
   19400    241.86021   -192.02792    263624.46   -25643.611    1957.3503   -27600.961   -365.27141    187.73871    78.590476    18.399906    27.614435 
   19600    238.66996   -559.04344    263624.46   -25647.041    1931.5319   -27578.573   -1977.4212    190.55088    78.589882    18.398808    27.628084 
   19800    235.02064    -97.46534    263624.46   -25637.789    1901.9983   -27539.787    100.32847    191.43665    78.592534    18.398223    27.622122 
   20000     239.0585   -295.53466    263624.46   -25653.935    1934.6764   -27588.612   -824.82811    192.64056    78.595208     18.39566    27.615286 
   20200    234.76762   -382.74612    263624.46   -25694.096    1899.9507   -27594.047   -1179.5115     194.1014     78.59475    18.396145    27.597684 
   20400    239.98597   -162.15192    263624.46   -25621.923    1942.1823   -27564.106   -220.03436    194.08602    78.594603    18.396113       27.614 
   20600    233.74178   -279.50665    263624.46    -25675.09    1891.6487   -27566.738   -738.68558    195.80306    78.593966    18.395516    27.628081 
   20800    246.00121   -205.04865    263624.46   -25602.134     1990.863   -27592.998   -421.15679    197.44536    78.594059    18.396868    27.644844 
   21000    238.72686   -187.74767    263624.46   -25664.804    1931.9924   -27596.796   -331.84378    198.85446    78.593005    18.399291    27.654991 
   21200    243.92909   -397.31103    263624.46   -25643.824    1974.0936   -27617.917   -1286.4478     201.4353    78.593198    18.398636    27.649941 
   21400    240.62146   -118.50586    263624.46   -25665.887    1947.3253   -27613.212    2.5682088    202.06178    78.592777    18.397292    27.669242 
   21600    242.42655   -169.16071    263624.46   -25566.978    1961.9337   -27528.911   -247.98489    204.10286    78.593238    18.397798    27.672527 
   21800    243.04854   -329.26477    263624.46    -25711.81    1966.9673   -27678.778   -952.06549    207.33056    78.593281     18.39737    27.671911 
   22000    235.47211   -157.38116    263624.46   -25811.748    1905.6521     -27717.4   -218.66508    209.96513    78.593596    18.398598    27.648107 
   22200    237.39709   -194.92559    263624.46   -25905.777    1921.2307   -27827.007   -336.79904    213.38071    78.592492    18.398131    27.633129 
   22400    239.93928   -279.08524    263624.46   -25706.269    1941.8045   -27648.073   -720.77531    214.91014    78.592486    18.396847    27.635545 
   22600    236.47613   -142.72364    263624.46   -25720.825    1913.7775   -27634.602   -156.92858    215.35909    78.591877    18.397056    27.627387 
   22800    239.16332   -246.34685    263624.46   -25698.862    1935.5246   -27634.387   -595.18696    216.18407    78.590886    18.398738    27.627302 
   23000    240.65181   -181.22964    263624.46   -25763.634    1947.5709   -27711.205   -270.69225    217.19721    78.589682    18.398844    27.618941 
   23200    243.74977   -203.51278    263624.46    -25718.73    1972.6424   -27691.372   -389.65324    218.61411    78.590018    18.399704    27.606585 
   23400    243.74693   -164.43457    263624.46   -25708.592    1972.6194   -27681.211   -241.11914    219.82652    78.589312    18.399809    27.596875 
   23600    240.63602   -257.32706    263624.46   -25627.479    1947.4431   -27574.922   -668.82056    221.00884    78.588386    18.399384    27.584861 
   23800    243.54341   -191.51047    263624.46   -25654.843    1970.9723   -27625.816   -357.27638    223.11106    78.586953    18.399727    27.586518 
   24000     239.8249   -366.53007    263624.46   -25695.737    1940.8788   -27636.615   -1148.7393    224.51666    78.585746    18.400009    27.599081 
   24200    235.92879   -264.70926    263624.46    -25737.67    1909.3479   -27647.018   -679.58528    225.43861    78.585032    18.400714    27.594687 
   24400    239.89442   -176.58156    263624.46   -25735.572    1941.4414   -27677.013   -255.69588    226.59913    78.583839     18.40451    27.603292 
   24600    237.45777   -185.53465    263624.46   -25753.952    1921.7218   -27675.674   -328.35714    228.61765    78.582517    18.407771    27.598816 
   24800    239.93894   -190.72441    263624.46   -25738.429    1941.8017    -27680.23   -297.90984    230.24943    78.581404    18.410276    27.603558 
   25000    238.98478   -164.50783    263624.46   -25731.956    1934.0798   -27666.036   -246.93221    230.77064    78.582322     18.41014    27.622889 
   25200    232.09787   -236.26869    263624.46   -25840.043    1878.3447   -27718.388   -545.10285    234.27106    78.582025    18.409931    27.643964 
   25400    238.46585   -260.98726    263624.46   -25743.061    1929.8801   -27672.941   -654.18369    236.86966    78.582131    18.410481    27.650652 
   25600    242.49592   -216.15973    263624.46   -25563.686    1962.4951   -27526.181   -500.16979    239.10304    78.582964    18.409905    27.637956 
   25800    244.17152   -302.26621    263624.46   -25572.494    1976.0555   -27548.549   -865.07854     240.8252    78.581354    18.408429    27.629401 
   26000    244.78211   -331.13079    263624.46   -25592.516     1980.997   -27573.513   -1015.6663    243.75027    78.579145    18.406608    27.625033 
   26200    244.08562   -335.76747    263624.46   -25656.831    1975.3603   -27632.191   -952.79773    244.26421     78.57863    18.406735    27.624362 
   26400     242.1873   -454.70351    263624.46    -25738.78    1959.9974   -27698.777   -1532.3445    246.68426    78.578255    18.407411    27.627753 
   26600     241.2578   -151.56534    263624.46    -25673.45    1952.4751   -27625.925   -154.64072    250.29062     78.57787    18.406652    27.633812 
   26800    234.81465   -318.58999    263624.46   -25702.922    1900.3313   -27603.254    -953.6554     252.9653    78.577553    18.404923    27.623669 
   27000    242.03491   -426.43021    263624.46   -25697.155    1958.7641   -27655.919   -1349.9495    256.37758    78.577639    18.405111    27.617965 
   27200    239.67628   -199.77962    263624.46   -25700.538     1939.676   -27640.214   -334.11395    255.62695    78.576837    18.404315    27.606896 
   27400    242.69871   -212.15249    263624.46   -25678.462    1964.1362   -27642.598   -456.38459     256.2235    78.576325    18.406129    27.612273 
   27600    235.56564   -225.07738    263624.46   -25794.609     1906.409   -27701.018     -482.001    257.57095     78.57681    18.405585    27.597417 
   27800    242.43426   -230.46738    263624.46   -25633.254    1961.9961   -27595.251   -517.85988    258.54275    78.577838    18.406143    27.609343 
   28000    238.07392   -228.90429    263624.46   -25728.921    1926.7082    -27655.63   -505.27321    260.64728    78.576753    18.404841    27.609912 
   28200    240.39286   -322.40124    263624.46   -25683.408    1945.4752   -27628.884   -937.86282    260.28244    78.575049    18.403479    27.604198 
   28400    244.08024   -197.91854    263624.46   -25682.669    1975.3168   -27657.986   -365.98189    261.76359    78.576392    18.404638    27.614292 
   28600    241.82771   -239.67773    263624.46   -25747.569    1957.0873   -27704.657   -554.55406    262.73409     78.57723    18.407042    27.615358 
   28800    238.39259    -332.9874    263624.46     -25763.9    1929.2872   -27693.187   -1014.3134    263.89923    78.578561    18.407229    27.602849 
   29000    244.57965   -310.48786    263624.46   -25708.424    1979.3585   -27687.782   -853.17285    266.15966    78.580828    18.406508     27.59605 
   29200    245.55072    -332.8417    263624.46   -25664.812    1987.2173   -27652.029   -996.43603    268.13563    78.581368    18.404842    27.602006 
   29400    242.77113   -232.80603    263624.46   -25689.345    1964.7223   -27654.067   -514.41952    268.30763    78.582202    18.405311    27.610341 
   29600    238.87871   -263.66671    263624.46   -25630.615    1933.2213   -27563.836   -657.30102    270.13373    78.581079    18.405879    27.595221 
   29800      235.891   -327.90606    263624.46   -25750.936    1909.0421   -27659.978   -957.81735    272.52218    78.581458    18.406533    27.605059 
   30000    233.82879   -277.99381    263624.46   -25808.259    1892.3529   -27700.612   -742.26625    274.20627    78.584176    18.405441    27.582738 
   30200    236.14083   -249.45237    263624.46    -25765.33     1911.064   -27676.394   -585.80157    274.05686    78.586245    18.405385    27.594827 
   30400    243.26034   -152.82845    263624.46   -25735.567    1968.6814   -27704.249   -184.82791    274.43133    78.587593    18.402709    27.602341 
   30600    236.01294    -182.5874    263624.46   -25794.975    1910.0289   -27705.004   -296.42324    274.06472    78.586951    18.401992    27.598263 
   30800    235.46006   -182.26272    263624.46   -25812.303    1905.5546   -27717.857   -305.34735    275.45955    78.588486    18.400656    27.614173 
   31000    242.02315   -195.25726    263624.46     -25776.7     1958.669   -27735.369    -345.4591    276.68428    78.590872    18.401798      27.6175 
   31200    237.67886   -314.63877    263624.46   -25733.355    1923.5111   -27656.866   -881.34947    277.82517    78.591965    18.401197     27.61564 
   31400    234.89737    -195.2125    263624.46   -25724.502    1901.0007   -27625.503   -383.36369    280.36298    78.591516    18.402809    27.619447 
   31600    242.94606   -225.43154    263624.46   -25726.796     1966.138   -27692.934   -480.49275    282.11186    78.591801    18.401708     27.61598 
   31800    245.43395    -260.9964    263624.46   -25703.992    1986.2722   -27690.264   -634.28557    283.95824    78.590888    18.399977    27.617001 
   32000    237.22393   -229.43105    263624.46   -25775.796    1919.8294   -27695.625    -504.6331    283.78172    78.587635    18.401265    27.631792 
   32200    231.05409   -274.20382    263624.46   -25828.195    1869.8975   -27698.092   -721.79916    284.94579    78.587701    18.400028    27.651089 
   32400    236.76477   -174.36703    263624.46   -25775.892    1916.1134   -27692.006   -250.48151     286.3485      78.5867    18.398506    27.635678 
   32600    241.58475   -257.76577    263624.46   -25663.375     1955.121   -27618.496   -650.72752    285.85843    78.587456    18.397749    27.637943 
   32800    239.35332   -313.64972    263624.46   -25624.499    1937.0623   -27561.561    -862.1236    287.46909    78.586445    18.398175    27.612583 
   33000    234.63411   -369.51096    263624.46   -25647.323    1898.8702   -27546.193   -1120.8301    289.43022    78.587267    18.396148    27.606037 
   33200    240.03245   -420.35137    263624.46   -25681.612    1942.5584   -27624.171    -1331.269     291.3091     78.58628    18.393666    27.605439 
   33400    241.11944   -451.12299    263624.46   -25680.801    1951.3554   -27632.156   -1484.5385    293.10521    78.586496    18.392065    27.585322 
   33600    244.92916   -309.40326    263624.46   -25767.262     1982.187   -27749.449   -872.10175    292.77913    78.585364    18.390675    27.583482 
   33800    241.45999   -188.96219    263624.46    -25645.56    1954.1114   -27599.671   -324.33473    292.95735    78.585192    18.389807    27.574673 
   34000    240.17365   -191.10542    263624.46   -25739.829    1943.7011    -27683.53   -322.95766    292.05579    78.584371    18.389791    27.592043 
   34200    238.16763   -424.27778    263624.46   -25703.892    1927.4666   -27631.359   -1353.8002    294.37232    78.584357    18.387086     27.59414 
   34400    232.24797   -351.20812    263624.46   -25701.155    1879.5595   -27580.714    -1062.237    294.44333    78.582645    18.387454    27.586112 
   34600    240.84018   -233.69355    263624.46   -25596.811    1949.0953   -27545.906   -514.61145    293.59713    78.579761     18.38707    27.586398 
   34800     241.0394   -168.05732    263624.46   -25702.296    1950.7076   -27653.003   -268.83924    295.60852    78.579372    18.387205    27.591189 
   35000    242.34655   -188.83217    263624.46   -25709.624    1961.2862    -27670.91   -370.80571    296.40941    78.578089     18.38716    27.592431 
   35200    242.18663   -454.82902    263624.46   -25654.571     1959.992   -27614.563   -1515.8739    298.41777    78.578289    18.386763    27.621784 
   35400     235.8284   -213.84594    263624.46   -25683.271    1908.5355   -27591.807   -419.74697    300.60948    78.579551    18.386628    27.608576 
   35600    235.70693   -355.75199    263624.46   -25673.813    1907.5524   -27581.366     -1075.12    303.95449    78.578411    18.386964    27.605312 
   35800     245.5212   -192.58513    263624.46   -25533.349    1986.9783   -27520.327   -353.34203    304.17464    78.576602    18.388356    27.611403 
   36000    240.11188   -168.14287    263624.46   -25693.689    1943.2012    -27636.89   -238.62587    305.01866    78.575758    18.388579    27.643226 
   36200    234.74258   -232.25978    263624.46    -25673.83    1899.7481   -27573.578    -545.7785    304.43335    78.575724    18.387277    27.644663 
   36400    237.01876   -77.427901    263624.46   -25677.383     1918.169   -27595.552    112.87595    305.26148    78.576514    18.386876    27.629095 
   36600    239.88847    -310.6898    263624.46   -25635.383    1941.3933   -27576.776   -892.21629      306.978    78.578902    18.386376     27.62767 
   36800    239.00982   -261.26645    263624.46   -25718.902    1934.2824   -27653.184    -667.9241    308.52763    78.578115    18.387479    27.640155 
   37000    239.82224   -395.80571    263624.46    -25666.61    1940.8573   -27607.467    -1238.264    309.63689    78.577331    18.387926    27.643533 
   37200    241.59403   -143.30326    263624.46   -25748.368    1955.1961   -27703.564   -138.65632    309.57659    78.578416     18.38933    27.646756 
   37400      235.147   -201.02585    263624.46   -25759.425     1903.021   -27662.445   -395.24774    308.88125    78.578411    18.389945    27.628195 
   37600    241.47197   -315.28393    263624.46   -25751.005    1954.2083   -27705.213   -921.89056    310.13593    78.578241    18.389535    27.638304 
   37800    237.83974   -158.84468    263624.46   -25849.647    1924.8131    -27774.46   -215.78058    310.41034    78.580149    18.392009    27.624333 
   38000    238.09688    -159.8481    263624.46   -25684.361    1926.8941   -27611.256   -217.20218    311.57658    78.579728    18.393612    27.628811 
   38200    244.08048   -267.93681    263624.46   -25685.542    1975.3187    -27660.86    -694.8136    314.01327    78.578616    18.392743    27.626149 
   38400    240.64709   -248.74824    263624.46   -25657.974    1947.5326   -27605.507   -598.25891    316.77333    78.579434    18.390658    27.637754 
   38600     238.5407   -153.22002    263624.46   -25694.904    1930.4859    -27625.39   -176.71601    318.51422    78.581732    18.387235    27.638768 
   38800    236.20869   -306.48506    263624.46   -25740.824    1911.6131   -27652.437   -818.85367    320.11467    78.583594    18.386282    27.633587 
   39000    239.53594   -166.32264    263624.46   -25648.964    1938.5402   -27587.504   -277.45096    321.54446    78.583284    18.385981    27.624085 
   39200    238.12988   -414.45974    263624.46    -25730.48    1927.1612   -27657.641   -1335.6767    322.96735    78.584003     18.38538    27.594894 
   39400    245.49426   -205.01487    263624.46   -25668.201    1986.7603   -27654.961   -393.44938    324.58518    78.584064       18.386      27.5926 
   39600    247.64094   -403.98676    263624.46   -25668.598    2004.1332   -27672.732   -1303.7379    326.77213    78.585489    18.386961    27.596184 
   39800    243.37867   -250.57695    263624.46    -25758.03     1969.639   -27727.669   -596.75048    327.75409     78.58644    18.386022    27.593734 
   40000    235.97489   -346.66956    263624.46   -25730.141    1909.7211   -27639.862   -1049.1498    329.10477    78.586703     18.38398    27.592571 
   40200    243.81957   -302.01505    263624.46   -25721.134    1973.2072   -27694.341   -805.32608    329.93914    78.586319     18.38312    27.606672 
   40400     231.1254   -311.66888    263624.46   -25795.378    1870.4746   -27665.853   -875.09329    331.34024    78.588206    18.382894    27.600482 
   40600    239.84415   -404.60112    263624.46   -25708.917    1941.0346   -27649.951   -1282.4717    332.90692    78.587606    18.382847    27.620752 
   40800    238.52516   -247.04961    263624.46   -25710.099    1930.3601   -27640.459   -576.06686    335.21747    78.586284    18.383983    27.630025 
   41000    240.29255   -172.20023    263624.46   -25753.299    1944.6634   -27697.962   -254.63459     335.7436     78.58765    18.385167    27.632036 
   41200    248.35884   -334.04858    263624.46   -25689.295    2009.9431   -27699.238   -958.31084    337.81665    78.589331    18.385331    27.617696 
   41400    239.65503    -323.9126    263624.46   -25766.272     1939.504   -27705.776    -946.9698    337.99513    78.590459    18.384221    27.627239 
   41600    240.51215   -291.38704    263624.46   -25753.696    1946.4406   -27700.137   -778.61677    338.42501    78.590635    18.382156    27.630879 
   41800    240.86894   -222.00891    263624.46    -25746.94    1949.3281   -27696.269    -438.9067    340.52418    78.591747    18.383654    27.607553 
   42000    235.29293      -312.29    263624.46   -25789.407     1904.202   -27693.609    -905.2751    340.74792    78.592314    18.385214    27.586304 
   42200    234.28529   -433.40321    263624.46    -25822.96    1896.0472   -27719.007   -1435.5069    341.83816    78.592817    18.386612    27.599129 
   42400    238.55238   -280.91124    263624.46   -25817.009    1930.5804   -27747.589   -732.56205    344.06479    78.594114    18.384733    27.587323 
   42600    236.13082   -317.20495    263624.46   -25768.773     1910.983   -27679.756   -892.64719    345.38646    78.593255    18.384077    27.586287 
   42800    240.66199   -294.46329    263624.46   -25754.417    1947.6532    -27702.07   -816.88159     347.3174    78.593824     18.38602    27.578863 
   43000    235.55371   -354.14749    263624.46   -25710.064    1906.3124   -27616.376   -1080.9791    349.33948    78.591494    18.384798    27.562229 
   43200    245.50896   -209.36234    263624.46   -25739.588    1986.8793   -27726.467   -399.39823    350.90599     78.58995    18.383758    27.562468 
   43400    241.80185   -315.49046    263624.46   -25779.333     1956.878   -27736.211   -868.16988    352.61345    78.588739     18.38252     27.56076 
   43600    237.14443   -269.39381    263624.46   -25787.287     1919.186   -27706.473   -675.10988    354.01639    78.587371    18.380628    27.575858 
   43800    237.97669   -318.34599    263624.46   -25823.015    1925.9214   -27748.936   -932.22183     355.8173    78.586753    18.379657    27.570508 
   44000    236.04508   -286.73625    263624.46   -25894.623     1910.289   -27804.912   -755.66109    355.09449    78.587407     18.37895    27.569802 
   44200    241.23428   -370.53591    263624.46   -25790.981    1952.2847   -27743.266   -1116.0179    354.79501    78.587879    18.378177    27.573167 
   44400    241.37983    -198.1477    263624.46   -25806.636    1953.4627   -27760.098   -394.31773    355.12825    78.589057    18.378941    27.546218 
   44600    236.29137   -267.03965    263624.46   -25812.861    1912.2822   -27725.143   -714.19083    357.46013    78.589095    18.379831    27.553056 
   44800    240.62825   -238.80819    263624.46   -25768.678    1947.3802   -27716.058   -552.16285    358.33194    78.590045    18.379081    27.559063 
   45000    240.72121   -329.39716    263624.46   -25758.641    1948.1325   -27706.774   -968.41037    361.45632    78.589517    18.378928    27.556326 
   45200    243.95087   -238.11468    263624.46   -25718.077    1974.2698   -27692.347   -542.50212    360.91969    78.590063     18.37817    27.553303 
   45400    231.99903   -132.47229    263624.46   -25757.279    1877.5448   -27634.824   -54.395655    362.41315    78.590396    18.377193    27.539116 
   45600    242.58028   -338.08238    263624.46   -25723.584    1963.1778   -27686.762   -998.94588    367.19607    78.590802    18.378673    27.554872 
   45800     245.6228   -249.67789    263624.46   -25754.477    1987.8005   -27742.278   -586.82537    368.46466    78.591337     18.38042     27.54479 
   46000    242.56884   -296.08288    263624.46   -25726.794    1963.0852   -27689.879   -785.22719    368.13188    78.591382    18.382652    27.551275 
   46200    240.46843   -382.38848    263624.46   -25663.928    1946.0868   -27610.015    -1184.728    370.64692    78.590995    18.382754     27.55695 
   46400    240.11474   -520.71911    263624.46   -25736.499    1943.2244   -27679.723   -1819.0942    373.11556    78.590303    18.383596     27.53907 
   46600    237.32108   -303.71379    263624.46   -25730.833    1920.6156   -27651.448   -799.85042    373.97919     78.59196    18.384475    27.543444 
   46800    240.65138   -354.46636    263624.46   -25666.803    1947.5674    -27614.37   -1017.8537    375.91891    78.590946    18.382259    27.550808 
   47000    241.05828   -362.53424    263624.46    -25691.23    1950.8604    -27642.09   -1114.0855    374.73768    78.589875    18.382463    27.550195 
   47200     239.5068   -305.86975    263624.46   -25711.602    1938.3044   -27649.906   -841.33298    378.28685    78.589418    18.381033    27.553848 
   47400    241.89494   -273.05018    263624.46   -25680.313    1957.6314   -27637.945   -720.70373    378.51542    78.589917     18.38186    27.543767 
   47600     233.1791    -313.1914    263624.46   -25677.759    1887.0949   -27564.854   -879.83861    381.20773    78.590671    18.381317    27.553436 
   47800    242.53476   -202.07491    263624.46   -25717.099    1962.8094   -27679.908   -397.88568     383.8777     78.59013    18.379183    27.563736 
   48000    240.33961   -165.78921    263624.46   -25761.424    1945.0443   -27706.468   -255.49816    384.94302    78.590139    18.376031    27.576909 
   48200    235.96862   -387.93168    263624.46   -25778.107    1909.6703   -27687.777   -1233.7003     384.8409    78.590101    18.377446    27.572737 
   48400    237.91673    -280.4406    263624.46   -25770.314    1925.4361    -27695.75    -762.9186     386.5149    78.589176    18.375611    27.553555 
   48600    234.11822   -117.69853    263624.46   -25843.356    1894.6951   -27738.051   -39.864026      387.527    78.587869    18.375366    27.549631 
   48800    237.24716   -422.44371    263624.46   -25777.823    1920.0174    -27697.84   -1409.6418    388.52544    78.588297    18.374822    27.549122 
   49000    239.32608   -191.44016    263624.46   -25781.348    1936.8419    -27718.19   -361.33883    391.10632    78.587806    18.372808    27.538024 
   49200    238.87027   -265.00331    263624.46   -25725.133     1933.153   -27658.286    -685.5144     394.4205    78.587572    18.372727    27.534347 
   49400    237.78522   -453.19035    263624.46   -25811.029    1924.3718   -27735.401   -1508.5813    397.94444    78.587704    18.371607    27.540961 
   49600     239.0048   -377.41656    263624.46   -25806.411    1934.2417   -27740.653   -1169.0116     398.7286    78.587144    18.369761     27.54172 
   49800    239.89339   -372.59682    263624.46   -25811.635    1941.4331   -27753.069   -1144.7585    399.96458    78.587798    18.369955    27.542777 
   50000    238.89202   -400.30927    263624.46   -25754.635     1933.329   -27687.964   -1322.5942    400.70849    78.587783    18.371287    27.554332 
   50200    237.38994   -357.28815    263624.46   -25709.321    1921.1729   -27630.494   -1105.6971    404.47726    78.587077    18.368431    27.567023 
   50400    243.14171     -177.801    263624.46   -25724.018    1967.7214   -27691.739   -279.67759    407.60954    78.587282    18.367592    27.561092 
   50600    240.25964   -409.68693    263624.46   -25586.501    1944.3971   -27530.898   -1320.4088    409.41594    78.586231    18.365798    27.576325 
   50800    241.97266   -402.34782    263624.46   -25757.154    1958.2604   -27715.415   -1363.9208    411.59034    78.584954    18.364254    27.581188 
   51000    236.44559   -186.92776    263624.46   -25729.412    1913.5303   -27642.942   -305.58766    413.65981    78.584567    18.362325     27.58381 
   51200    232.46539   -425.41279    263624.46   -25786.333     1881.319   -27667.652   -1374.8794    413.39547    78.584117    18.362819     27.58702 
   51400    240.49178   -211.94078    263624.46   -25728.337    1946.2757   -27674.613   -402.33572    411.91697      78.5859    18.363433    27.609601 
   51600     238.5851    -275.0733    263624.46   -25650.854    1930.8452   -27581.699   -680.94044    412.87708    78.586261     18.36483    27.619174 
   51800    242.63988   -349.47481    263624.46    -25673.29    1963.6601    -27636.95   -1029.2979    415.33422    78.586227     18.36475    27.630267 
   52000    234.53516   -296.91926    263624.46   -25726.867    1898.0694   -27624.936   -812.21921    417.19938    78.585797    18.364533     27.62664 
   52200    235.07338   -309.61786    263624.46   -25768.259    1902.4252   -27670.684    -871.2767    421.32077    78.586345    18.363135     27.63264 
   52400    231.53517     -338.956    263624.46    -25814.39    1873.7908    -27688.18   -1004.0961     424.1526    78.587294     18.36219    27.627737 
   52600    240.64794   -292.31509    263624.46   -25660.777    1947.5395   -27608.317   -799.52395    424.51922    78.590017    18.363657    27.642826 
   52800    242.31445   -205.15846    263624.46   -25602.956    1961.0264   -27563.982   -389.55345     425.0987    78.590405    18.364787    27.648524 
   53000    240.75672   -158.95164    263624.46   -25645.277    1948.4199   -27593.697   -193.92225    425.09811    78.591589    18.365517    27.653168 
   53200    237.75541   -147.60123    263624.46   -25744.532    1924.1306   -27668.663   -153.49788     427.1855    78.591654    18.365963    27.660786 
   53400    243.60929   -383.77016    263624.46   -25717.739    1971.5054   -27689.244   -1200.5193    427.84466    78.591576    18.365138    27.655359 
   53600    236.61195    -224.2198    263624.46   -25813.456    1914.8767   -27728.333   -459.57055    428.78204    78.591186    18.365782    27.644245 
   53800    241.65374   -280.86335    263624.46   -25752.411    1955.6794   -27708.091   -733.95463    431.62218    78.591814    18.366886    27.625006 
   54000    236.55427   -354.32701    263624.46   -25789.046    1914.4099   -27703.456   -1070.6221    431.97237    78.593483    18.366568     27.61286 
   54200    245.67889   -356.13669    263624.46   -25696.764    1988.2545   -27685.018    -1091.739     433.3672    78.593394    18.367945    27.609353 
   54400    242.56662    -307.9618    263624.46   -25709.112    1963.0672   -27672.179   -812.22832    434.06358    78.592255    18.365587    27.609427 
   54600    238.54983   -348.18773    263624.46   -25685.807    1930.5598   -27616.366    -1075.162     435.0885    78.590441    18.367794     27.60036 
   54800    244.17463    -267.8348    263624.46   -25686.188    1976.0807   -27662.268   -677.82042    435.95835    78.588565    18.366357    27.590072 
   55000     245.0122   -315.52122    263624.46   -25665.979     1982.859   -27648.838   -899.91607    436.43142    78.588135    18.366717    27.594736 
   55200    229.65397   -158.54171    263624.46   -25766.537    1858.5665   -27625.104   -173.66033    437.78299    78.587838    18.365678    27.609396 
   55400    234.59938   -250.98027    263624.46   -25700.846    1898.5891   -27599.435   -586.22142    438.24869    78.587521    18.361255    27.610199 
   55600    240.96783   -92.710685    263624.46   -25618.054    1950.1283   -27568.182    91.541401    439.79859    78.588113    18.359222    27.607735 
   55800    237.59356   -286.39604    263624.46   -25618.796    1922.8208   -27541.617   -742.06404    441.04495    78.585687    18.360646    27.616764 
   56000    240.28311   -257.20747    263624.46   -25627.539     1944.587   -27572.126   -630.71282    441.07115    78.584916    18.362853    27.628746 
   56200     243.2189   -250.63249    263624.46    -25630.65     1968.346   -27598.996   -599.60683    443.03933    78.583676    18.363671    27.645819 
   56400    234.05403    -345.8128    263624.46     -25738.8    1894.1757   -27632.976   -999.44373    444.39116    78.583343    18.363865    27.656185 
   56600    236.52289   -274.11377    263624.46   -25792.517    1914.1559   -27706.673   -687.91585    445.50958    78.583315    18.364855    27.671114 
   56800    244.16534   -364.03581    263624.46   -25695.204    1976.0055    -27671.21   -1091.2416    446.36588    78.583191    18.365161    27.662483 
   57000    237.09347   -382.57425    263624.46   -25773.661    1918.7736   -27692.435   -1192.4416    448.20023    78.582059    18.365141    27.678365 
   57200    244.13781   -258.54926    263624.46   -25685.204    1975.7827   -27660.987   -672.84517    450.88517    78.583323    18.365357    27.643566 
   57400    234.82815   -316.87508    263624.46   -25745.797    1900.4406   -27646.238   -891.79326    453.47745    78.584646    18.363987    27.650363 
   57600    238.16759   -252.29032    263624.46   -25805.826    1927.4663   -27733.292   -583.45353    455.74704    78.584723     18.36493    27.639124 
   57800    242.70574   -247.48938    263624.46   -25665.891    1964.1931   -27630.084   -575.46216    454.59262    78.584832    18.363602    27.645424 
   58000    245.02768   -355.54928    263624.46   -25688.131    1982.9843   -27671.115   -1066.1378    455.79032    78.584429    18.363539    27.655709 
   58200    243.05715   -272.73921    263624.46   -25695.422     1967.037   -27662.459   -703.98904    457.05954    78.586446     18.36273     27.63938 
   58400    237.09226    -144.9318    263624.46    -25778.95    1918.7638   -27697.713   -105.70227    455.43353    78.587701    18.362297    27.629891 
   58600    241.78108   -241.25074    263624.46    -25765.95    1956.7099    -27722.66   -554.27142    455.77252    78.587858    18.359729     27.61721 
   58800    241.93198   -268.09612    263624.46    -25801.27    1957.9312   -27759.201   -657.59285    455.35594     78.58779    18.358607    27.623104 
   59000    248.58236   -396.08164    263624.46   -25690.018     2011.752    -27701.77   -1233.9247    454.89159    78.589077    18.357273    27.631848 
   59200    239.42885   -219.50195    263624.46   -25697.706    1937.6735   -27635.379   -429.60714    456.73769    78.589352    18.358508     27.63628 
   59400    237.12648   -263.78165    263624.46   -25691.149    1919.0407    -27610.19   -646.63795    458.78571    78.589463    18.358993    27.641962 
   59600    237.42594   -309.67411    263624.46   -25756.461    1921.4642   -27677.925   -884.19651    459.31848     78.59011    18.359656    27.646517 
   59800    233.08871   -341.87822    263624.46   -25839.619    1886.3634   -27725.983   -1054.8691     459.7567    78.590565    18.357737    27.656122 
   60000    231.94917   -332.85146    263624.46   -25747.069    1877.1412    -27624.21   -964.66175    459.45716    78.590786    18.355879    27.648761 
   60200    237.89115   -146.66938    263624.46   -25730.957    1925.2291   -27656.186   -130.12114    460.24723    78.590679    18.355376    27.646213 
   60400    246.40351   -240.97461    263624.46   -25673.465    1994.1188   -27667.584   -555.15518    462.24193     78.59103    18.354833    27.629556 
   60600    242.70438    -239.3547    263624.46   -25753.117    1964.1821     -27717.3   -566.98489    462.31711    78.590117    18.352466    27.626803 
   60800    240.70026   -302.01949    263624.46   -25648.962     1947.963   -27596.925   -854.80904    462.90794    78.590432    18.352829    27.628226 
   61000    240.45218     -298.136    263624.46   -25727.237    1945.9553   -27673.192   -823.11212    463.28597    78.590954    18.351321    27.617118 
   61200    238.46801   -150.41922    263624.46   -25682.199    1929.8976   -27612.096   -180.79101    464.77897    78.592184    18.351116    27.617029 
   61400    237.09799   -255.06469    263624.46    -25698.23    1918.8102    -27617.04   -655.52364     466.8455    78.592058    18.352405    27.632024 
   61600    239.40496    -177.3515    263624.46   -25708.374    1937.4802   -27645.854   -264.23804    465.62789    78.590207    18.355386    27.627884 
   61800    241.57473   -361.61241    263624.46   -25753.057    1955.0399   -27708.096   -1102.1975    468.18925    78.591105    18.353639    27.625109 
   62000    241.29659   -261.49972    263624.46   -25718.227     1952.789   -27671.016   -632.74014    467.59613     78.58926    18.354059    27.623329 
   62200    238.00434   -212.30362    263624.46   -25726.494    1926.1452   -27652.639   -413.50673    471.77409    78.591075    18.353527    27.605634 
   62400    230.39146    -312.1829    263624.46   -25738.564    1864.5349   -27603.099   -867.27005    474.37715    78.589531    18.351591    27.602603 
   62600    243.73861   -111.90944    263624.46    -25768.61     1972.552   -27741.162     48.19161    475.43994    78.589277    18.350927    27.605705 
   62800    242.80445     -208.096    263624.46    -25803.58     1964.992   -27768.572   -418.39502    476.94001    78.589981    18.349791    27.600256 
   63000    237.06576   -149.60014    263624.46    -25840.82    1918.5493   -27759.369    -182.6946    477.68273    78.589728    18.351402    27.603028 
   63200    243.87433   -240.20027    263624.46   -25732.873    1973.6504   -27706.523    -570.5009    477.59183    78.588229    18.350401    27.598764 
   63400    237.55494   -207.65262    263624.46   -25819.949    1922.5082   -27742.457   -433.32747    480.04876    78.587966    18.351261     27.61962 
   63600    235.44556   -242.99284    263624.46   -25799.803    1905.4372    -27705.24   -596.79823    482.74812    78.587028      18.3516    27.653824 
   63800    231.08493   -201.87227    263624.46   -25860.804    1870.1471   -27730.951    -425.9436    483.92964     78.58744     18.34971    27.647803 
   64000    246.52058   -350.72062    263624.46   -25739.463    1995.0662   -27734.529   -1030.5556    485.50756    78.588231     18.35024    27.656822 
   64200    238.42407   -296.48815    263624.46     -25756.4     1929.542   -27685.942   -850.19315     487.8391    78.587658    18.350027    27.650286 
   64400    238.48562   -368.33939    263624.46   -25800.598    1930.0401   -27730.638   -1128.6038    490.65556    78.587434    18.350661     27.64761 
   64600    237.22821   -273.46849    263624.46   -25846.134     1919.864   -27765.998   -708.22753    495.48054    78.585045    18.349698    27.659135 
   64800    241.12019   -264.29303    263624.46    -25791.66    1951.3614   -27743.022   -634.55175    497.12923    78.583742      18.3477     27.66861 
   65000    237.62313   -354.41988    263624.46   -25692.131    1923.0601   -27615.191   -1082.7086    496.95097    78.583757     18.34752    27.673669 
   65200    241.44566   -290.30269    263624.46   -25766.557    1953.9954   -27720.552   -808.72258    496.63846    78.582939    18.347788     27.65525 
   65400    244.99012   -310.78592    263624.46   -25722.224    1982.6804   -27704.904   -870.39934    499.46208    78.583165    18.349396    27.631174 
   65600    238.11212   -298.67592    263624.46    -25661.27    1927.0174   -27588.288   -815.99909    502.34012    78.581026    18.352085    27.641592 
   65800    240.09798   -240.38184    263624.46   -25680.118    1943.0888   -27623.207   -550.00399     502.8722    78.579618    18.353064    27.626614 
   66000    232.61236   -184.69934    263624.46   -25665.171    1882.5084   -27547.679   -268.25636    503.57665    78.579957    18.352519    27.628841 
   66200    236.10143   -239.35645    263624.46   -25690.122    1910.7451   -27600.867    -551.7606    502.32423    78.580845     18.35289     27.60538 
   66400    242.78105   -376.38958    263624.46   -25714.887    1964.8026    -27679.69   -1131.0328    502.43324    78.579876    18.352823    27.578832 
   66600    240.11939   -222.61059    263624.46   -25726.456    1943.2621   -27669.718   -481.72403    502.93058    78.579927    18.354959    27.570844 
   66800     236.6243   -328.72274    263624.46   -25756.904    1914.9766   -27671.881   -941.44656    505.04881    78.579734    18.357536     27.56363 
   67000    233.34994   -278.79374    263624.46   -25824.973    1888.4776   -27713.451   -721.67975      507.867    78.579731    18.356637    27.540389 
   67200     235.3082   -266.53613    263624.46   -25758.395    1904.3256   -27662.721   -723.67546    508.91353     78.58044    18.355641    27.538592 
   67400    246.05746   -307.98311    263624.46   -25705.733    1991.3183   -27697.051   -850.31712    508.90484    78.579398    18.356148    27.539234 
   67600     244.5017   -383.03775    263624.46   -25623.311    1978.7276   -27602.039   -1225.7095    509.62625    78.578291    18.354577    27.521995 
   67800    237.99818   -71.403288    263624.46   -25718.162    1926.0953   -27644.258    143.27562    509.66647    78.579928    18.354211    27.520112 
   68000    237.36002   -280.95276    263624.46   -25755.246    1920.9308   -27676.177   -724.79939     512.9072    78.580643    18.353929    27.524161 
   68200    240.66264    -254.6341    263624.46    -25773.87    1947.6585   -27721.529   -620.02319    513.24953    78.582956    18.353655    27.515037 
   68400    242.71989   -221.69421    263624.46   -25698.622    1964.3076   -27662.929   -484.76057    512.25671    78.583303    18.353588    27.525855 
   68600     231.4648   -438.25268    263624.46   -25697.092    1873.2213   -27570.314   -1417.9614    513.32005    78.580486    18.352419    27.524701 
   68800    243.85027   -174.95722    263624.46   -25674.497    1973.4557   -27647.953   -255.71296    512.55755    78.580312    18.352819    27.519902 
   69000    246.86274   -261.90499    263624.46   -25726.633    1997.8353   -27724.468   -665.91739    514.43499     78.58061    18.352304    27.520427 
   69200     240.5076   -249.52666    263624.46   -25732.754    1946.4038   -27679.158   -536.66753    515.46639     78.58088    18.354093    27.528315 
   69400    236.15318   -249.45028    263624.46   -25804.996    1911.1639    -27716.16   -607.60864    516.68234    78.580383    18.353249    27.520753 
   69600    249.68329   -194.05302    263624.46   -25604.765    2020.6617   -27625.427   -383.33431    517.18647    78.580469    18.354299     27.51135 
   69800    241.16902   -566.06946    263624.46   -25723.856    1951.7566   -27675.613     -2040.88    518.60064    78.579179    18.356223    27.499349 
   70000    241.58322   -226.02411    263624.46   -25729.966    1955.1086   -27685.075   -466.80196    520.45928    78.580612    18.355965     27.49744 
   70200    244.45553   -150.09506    263624.46   -25722.318    1978.3539   -27700.672   -124.15295    521.36454    78.582369    18.354464    27.486619 
   70400    243.08228   -329.44169    263624.46   -25691.224    1967.2404   -27658.465   -959.46246    523.86573    78.581025    18.353583    27.464836 
   70600    242.49596   -307.73539    263624.46   -25768.049    1962.4953   -27730.545   -846.58236    524.19988    78.580408     18.35367    27.470428 
   70800     243.3736   -246.07123    263624.46   -25761.616     1969.598   -27731.214   -575.69981    526.72439    78.581836    18.353325    27.460471 
   71000    241.10846   -286.91537    263624.46   -25804.458    1951.2665   -27755.725   -750.24126    528.94916     78.58403    18.351957    27.455392 
   71200    237.79879   -300.75949    263624.46   -25777.935    1924.4817   -27702.417   -824.38649    529.89919    78.585612    18.351697    27.451116 
   71400     239.9463   -214.31875    263624.46   -25792.391    1941.8612   -27734.252   -449.74494    531.16152    78.585824    18.349274    27.449662 
   71600    237.13974   -204.34498    263624.46   -25742.617     1919.148   -27661.765   -376.20895    532.06062    78.586762    18.348585    27.442215 
   71800    234.04907   -275.40915    263624.46   -25831.364    1894.1356   -27725.499   -695.24939    529.57141    78.587303    18.349188    27.438255 
   72000    242.10108    -357.8078    263624.46   -25783.546    1959.2997   -27742.846   -1111.6159    532.43239    78.589551    18.350754    27.441947 
   72200     240.9511   -57.942644    263624.46   -25586.993     1949.993   -27536.986    284.37485    531.24709    78.591534    18.351013    27.433488 
   72400    244.01155   -326.59243    263624.46    -25742.23    1974.7609   -27716.991   -944.12573    532.99019    78.590679    18.351637    27.440646 
   72600    247.59718   -357.47865    263624.46   -25645.384     2003.779   -27649.163   -1095.8373     536.2439    78.590116    18.351257    27.406305 
   72800    241.40195   -237.44206    263624.46   -25727.556    1953.6416   -27681.198   -523.41086     537.5682    78.590262    18.353273    27.401559 
   73000    242.96382   -280.58809    263624.46   -25724.734    1966.2818   -27691.016   -733.29172    538.56254    78.591263    18.354812    27.396818 
   73200    244.04456   -253.92533    263624.46   -25628.586     1975.028   -27603.614   -607.80967    540.08064    78.590679    18.355183    27.386072 
   73400    242.49149   -312.29101    263624.46   -25655.892    1962.4592   -27618.351   -889.90573    540.12962      78.5892    18.357448    27.400706 
   73600    239.51046    -331.5952    263624.46   -25640.194    1938.3341   -27578.528   -977.87525    541.89961     78.58866    18.358339    27.404938 
   73800    240.74286   -290.10095    263624.46   -25816.542    1948.3077    -27764.85   -754.00396    543.75207    78.591327    18.356767    27.407719 
   74000    235.45027   -384.24507    263624.46    -25837.27    1905.4753   -27742.745   -1199.5827    545.40065    78.592581    18.355213    27.393057 
   74200    238.98092   -297.05872    263624.46   -25766.177    1934.0485   -27700.226   -831.55189    546.66514    78.592664    18.355851    27.391266 
   74400    250.33305   -318.39397    263624.46   -25693.288    2025.9202   -27719.208   -932.09036    548.85683    78.591999    18.355774    27.387559 
   74600    243.53329   -221.70866    263624.46   -25815.517    1970.8904   -27786.407   -486.59746     548.5977    78.591193    18.357178    27.374403 
   74800    236.86847   -393.22112    263624.46    -25805.62    1916.9526   -27722.573   -1240.7021    550.19332    78.592624    18.356102     27.37556 
   75000    237.62461   -353.49191    263624.46   -25814.806     1923.072   -27737.878   -1075.2606    551.37051    78.591186    18.354827    27.371643 
   75200    238.04662   -295.63149    263624.46   -25742.016    1926.4873   -27668.503   -805.79788    551.77553    78.590755     18.35497    27.363218 
   75400    238.05486   -345.77904    263624.46   -25793.926     1926.554    -27720.48   -1072.9945    551.31461    78.590026     18.35433    27.341446 
   75600    238.79924   -375.55009    263624.46   -25733.071    1932.5782    -27665.65   -1199.3866    553.07808    78.589115    18.355475    27.320174 
   75800    244.59954   -235.02653    263624.46    -25692.63    1979.5195   -27672.149   -524.77772    554.03726    78.589047    18.354905    27.320867 
   76000    240.36925   -359.50932    263624.46   -25720.094    1945.2842   -27665.379   -1116.9878    556.09345    78.588631    18.352765    27.328199 
   76200    235.67327   -237.89799    263624.46   -25805.404      1907.28   -27712.684   -543.74411    556.14336    78.585676    18.351558    27.330798 
   76400    239.10335   -197.95857    263624.46   -25766.104    1935.0394   -27701.143   -368.47272    556.67164    78.584164    18.350447    27.333711 
   76600    238.47845    -217.8198    263624.46   -25721.401     1929.982   -27651.383   -470.12424    558.33372    78.585052      18.3514     27.33841 
   76800    233.14381   -298.33299    263624.46   -25727.806    1886.8094   -27614.615   -825.72275    561.59747    78.585191    18.352525    27.345596 
   77000    241.31041   -209.53341    263624.46   -25651.107    1952.9009   -27604.008   -403.74855    562.73682    78.583523    18.355267    27.345295 
   77200    239.00447   -279.44597    263624.46   -25699.157    1934.2391   -27633.396   -750.64772    564.01267    78.583033    18.357253    27.305259 
   77400    244.12854   -265.50949    263624.46   -25718.003    1975.7077   -27693.711   -668.91672    568.23061    78.583365    18.358723     27.27997 
   77600    235.41333   -248.75146    263624.46   -25806.496    1905.1763   -27711.672   -566.53289    571.33554     78.58291    18.357873    27.273237 
   77800    236.22573   -328.90512    263624.46   -25766.849     1911.751     -27678.6   -955.84686    573.03476    78.582806    18.356539    27.267778 
   78000    238.86943   -288.75355    263624.46   -25767.333    1933.1463    -27700.48   -752.59655    573.89111    78.582855    18.354469    27.270283 
   78200    238.17852   -381.24585    263624.46   -25794.961    1927.5548   -27722.515   -1179.8742    576.80422    78.581327    18.354955    27.275245 
   78400     242.7339   -258.86173    263624.46   -25758.425     1964.421   -27722.846   -626.75578    576.68406    78.581653    18.355621    27.270407 
   78600    240.98821   -270.56315    263624.46   -25690.981    1950.2933   -27641.274   -675.28219    579.01142    78.583236    18.354929    27.271946 
   78800    240.24292   -371.26495    263624.46   -25697.959    1944.2617    -27642.22   -1150.0443    580.60271    78.582264     18.35368    27.271255 
   79000    241.18708   -227.84036    263624.46   -25720.011    1951.9028   -27671.914   -533.38575      583.828     78.58429    18.353398     27.25061 
   79200    244.64979   -322.02898    263624.46   -25708.224    1979.9261    -27688.15   -967.92603    583.99967    78.585053    18.354976     27.23324 
   79400    242.43265   -242.59738    263624.46   -25692.338    1961.9831   -27654.321   -561.05024    585.04325    78.586071    18.356432    27.230186 
   79600    234.30227   -334.27409    263624.46   -25782.681    1896.1847   -27678.866   -995.08722    586.29775    78.584571    18.357482    27.213858 
   79800     236.8364   -313.14603    263624.46   -25766.681    1916.6931   -27683.374    -878.9592     583.8374    78.584413    18.359976    27.223296 
   80000    235.85673   -128.19659    263624.46   -25766.815    1908.7647   -27675.579    -93.94457    585.54094    78.584361    18.361038    27.234666 
   80200    242.21085   -238.01283    263624.46   -25786.578     1960.188   -27746.767   -540.42421    586.91937    78.583999    18.362195    27.234788 
   80400    240.39773   -335.19182    263624.46   -25809.597    1945.5146   -27755.112   -957.71991    589.06833    78.584892    18.363071    27.214532 
   80600    236.73651   -236.81841    263624.46   -25744.629    1915.8847   -27660.514    -583.3751    587.13363    78.586162    18.363177    27.202132 
   80800    237.92043   -253.99407    263624.46   -25734.144     1925.466    -27659.61   -654.19183    587.53311    78.587131    18.365659    27.208316 
   81000    239.83716   -281.90465    263624.46   -25723.183     1940.978   -27664.161   -756.14467     588.5821    78.586373    18.361873    27.207539 
   81200     239.5662   -148.40856    263624.46   -25739.532    1938.7851   -27678.317   -144.20508    587.66988    78.586946    18.361409    27.213161 
   81400    242.94288   -284.84289    263624.46   -25723.789    1966.1122   -27689.901   -784.39022    588.84775    78.587302    18.361075     27.23194 
   81600    238.08639   -469.20218    263624.46   -25781.133    1926.8091   -27707.942   -1593.7579    588.36003    78.586111     18.36383    27.225065 
   81800    230.78759   -246.76716    263624.46   -25870.394    1867.7407   -27738.134   -600.25212    587.92724     78.58528    18.368409    27.240878 
   82000    237.91007   -302.32925    263624.46   -25758.189    1925.3822   -27683.571   -831.52702    589.30612    78.585291    18.369366    27.249999 
   82200    240.62299   -265.88449    263624.46   -25711.495    1947.3376   -27658.832   -687.34663    590.31717    78.586584     18.36731    27.248856 
   82400    242.91947   -223.05315    263624.46    -25696.33    1965.9228   -27662.253   -498.22193    589.58318    78.588365    18.365239    27.265764 
   82600    249.51565   -283.39399    263624.46   -25613.233     2019.305   -27632.538   -808.60051    590.50477     78.58866    18.364585    27.250142 
   82800    237.72984    -151.5832    263624.46   -25705.767    1923.9236   -27629.691   -187.79369      590.694    78.588166    18.363366     27.26591 
   83000    243.17939   -270.45217    263624.46   -25623.278    1968.0263   -27591.304    -716.0484     594.3235    78.588793    18.361091    27.270943 
   83200    235.12713   -371.29331    263624.46   -25696.097    1902.8601   -27598.958   -1144.0996    596.55003    78.588923    18.357996    27.282973 
   83400    245.63696   -162.88037    263624.46    -25714.07    1987.9152   -27701.985   -177.62983    595.62626    78.587839    18.356046    27.274229 
   83600    238.66961   -295.95535    263624.46    -25793.31    1931.5292   -27724.839   -768.68378      595.908    78.588632    18.353929    27.261931 
   83800    240.21966   -390.01542    263624.46   -25789.672    1944.0735   -27733.746    -1195.037    599.43717    78.589275    18.355489    27.270823 
   84000    241.30468   -300.46969    263624.46   -25763.317    1952.8545   -27716.171   -847.27271    599.96282    78.589838    18.356517    27.261481 
   84200    242.83495   -152.14301    263624.46    -25724.42    1965.2388   -27689.659   -200.20494    599.07304    78.587954    18.355594    27.281464 
   84400    235.83827   -410.12852    263624.46   -25780.813    1908.6153   -27689.428   -1357.1791    601.00133    78.587521     18.35738    27.264437 
   84600    242.14443   -234.12909    263624.46   -25707.644    1959.6505   -27667.294   -552.81142    597.84987     78.58729    18.357727    27.270027 
   84800    237.98259   -186.15728    263624.46   -25770.881    1925.9691   -27696.851   -346.78269    598.17951    78.588389    18.357128    27.254173 
   85000    239.01559   -147.07443    263624.46   -25776.225    1934.3291   -27710.554   -166.85985    599.32652    78.588768    18.357093    27.266466 
   85200    241.07154    -346.6969    263624.46   -25778.173    1950.9677    -27729.14   -1086.9874    602.59216    78.589606    18.358453    27.243341 
   85400    240.87782   -351.13414    263624.46   -25812.865    1949.3999   -27762.265   -1093.9188    605.34191    78.588891    18.358437    27.233514 
   85600    236.86338   -472.37627    263624.46    -25825.51    1916.9115   -27742.421   -1589.7446    605.80353    78.589756    18.357672    27.227797 
   85800     234.6549   -221.09809    263624.46   -25728.002    1899.0385   -27627.041   -552.37999    604.23368    78.588158    18.358504    27.228665 
   86000    240.28188   -200.45054    263624.46   -25701.396     1944.577   -27645.973   -375.70428    604.97398    78.587222    18.360314    27.212578 
   86200    240.60676   -334.68899    263624.46   -25688.586    1947.2063   -27635.792   -978.02056    605.73917    78.587378     18.36111    27.211341 
   86400    237.40783   -177.31173    263624.46   -25759.731    1921.3177   -27681.049   -278.60251    605.13468    78.585753    18.360641    27.224634 
   86600    242.93679   -127.26508    263624.46   -25678.892     1966.063   -27644.955   -32.649803     607.1264    78.584628     18.36078    27.223229 
   86800     236.6686   -278.73116    263624.46   -25816.596    1915.3351   -27731.931    -753.0589    608.04701    78.585673    18.361573    27.225164 
   87000    245.94392   -293.89854    263624.46   -25743.577    1990.3994   -27733.977   -800.26953    608.96251    78.584945    18.360464    27.231855 
   87200    240.73543   -278.86484    263624.46   -25727.965    1948.2476   -27676.212    -735.8336    609.85336    78.584761    18.361571    27.228982 
   87400    238.02616   -299.17767    263624.46    -25825.79    1926.3217   -27752.112   -878.60865    611.96704    78.585776    18.362753    27.223973 
   87600     238.2641   -188.06241    263624.46   -25762.319    1928.2474   -27690.567   -315.80765    615.10149    78.586071    18.363774    27.229196 
   87800    240.95052    -281.9189    263624.46   -25724.714    1949.9883   -27674.702   -706.31469    614.17675    78.587547    18.366348    27.251541 
   88000    241.89888   -410.58837    263624.46   -25707.767    1957.6633    -27665.43   -1336.5794    616.56946    78.588655    18.366857    27.233702 
   88200    233.67932   -148.48442    263624.46   -25744.883    1891.1432   -27636.027   -118.48299    615.96596    78.586649    18.366654     27.23555 
   88400    242.76002    -368.9729    263624.46   -25687.732    1964.6324   -27652.365    -1128.727    617.65246    78.586229    18.365882    27.236962 
   88600    244.01702   -70.408563    263624.46   -25726.622    1974.8051   -27701.427     189.2411    617.72002    78.585179     18.36435     27.22611 
   88800    235.27854    -426.3378    263624.46   -25746.104    1904.0855   -27650.189   -1375.0699    620.34738    78.585821     18.36278    27.237552 
   89000    243.00078   -246.48195    263624.46   -25698.461    1966.5808   -27665.042   -600.05445    619.50282    78.586439    18.362491    27.220546 
   89200    244.89221   -248.98682    263624.46   -25692.897     1981.888   -27674.785   -606.40438    622.24174    78.586307    18.360584    27.201997 
   89400    239.86603   -457.70693    263624.46   -25739.342    1941.2117   -27680.554    -1511.566    624.52198     78.58642    18.359932    27.211216 
   89600    229.39009   -271.59062    263624.46   -25907.093    1856.4309   -27763.524   -699.74829    625.41224    78.587683    18.359781    27.220538 
   89800    237.62566   -306.18661    263624.46   -25744.779    1923.0805    -27667.86   -851.59785    625.91997    78.589465    18.359773    27.225029 
   90000    244.33638    -316.4909    263624.46    -25727.81    1977.3897     -27705.2   -871.73342    627.31363    78.589489    18.360646    27.237015 
   90200    239.68553   -172.52573    263624.46   -25773.539    1939.7509    -27713.29   -268.64031    627.87258    78.587969    18.361663    27.238186 
   90400    242.63324   -316.17386    263624.46   -25733.738    1963.6064   -27697.345   -877.03525    630.54184    78.589301    18.362362    27.238886 
   90600    242.88491   -307.87792    263624.46   -25723.162    1965.6431   -27688.805   -852.29668    632.09888    78.587136    18.364021    27.234321 
   90800    241.88568   -205.11566    263624.46   -25759.285    1957.5564   -27716.841    -370.1369    632.37785    78.585297     18.36469    27.241458 
   91000    245.30595   -144.04373    263624.46     -25757.5    1985.2364   -27742.736   -130.98862     636.4911    78.587582    18.366336    27.255694 
   91200    232.38336    -250.8666    263624.46   -25870.646    1880.6551   -27751.301    -631.4714    637.99013    78.588929     18.36832    27.254201 
   91400    234.96607   -452.36362    263624.46   -25766.856    1901.5567   -27668.413   -1516.5431    638.22755    78.590853    18.367829    27.260949 
   91600    247.67881   -304.49975    263624.46    -25664.82    2004.4397   -27669.259   -804.32571    637.01143    78.590301    18.369338    27.257368 
   91800    242.57279   -263.02723    263624.46   -25694.491    1963.1172   -27657.609   -596.15245    638.40971    78.591189    18.367549    27.284188 
   92000    237.83524   -360.36887    263624.46   -25696.357    1924.7766   -27621.134    -1071.553    640.08925    78.591414    18.366266    27.289022 
   92200     240.1891    -267.1511    263624.46   -25754.403    1943.8262   -27698.229    -662.8686      641.005    78.592098    18.362901    27.289436 
   92400    236.15619   -401.73038    263624.46    -25708.59    1911.1882   -27619.779   -1260.1418     644.4793    78.593971    18.361331    27.288329 
   92600     245.2418    -194.2736    263624.46   -25580.481    1984.7172   -27565.198   -341.53648    646.55399    78.594182    18.361665    27.267522 
   92800    237.00579    -280.0387    263624.46   -25626.534     1918.064   -27544.598   -710.29196    649.50322    78.594037      18.3616    27.254628 
   93000    237.16474   -114.12244    263624.46   -25676.447    1919.3504   -27595.797  -0.21153459    650.00582    78.593957    18.361116     27.25596 
   93200    237.52563   -335.44815    263624.46   -25664.865     1922.271   -27587.137   -985.83026    651.44011     78.59565    18.363044    27.242762 
   93400     236.5628   -250.54844    263624.46   -25760.457    1914.4789   -27674.936   -600.31456    651.47737    78.596175    18.364305    27.236358 
   93600     238.1913   -292.78822    263624.46   -25689.573    1927.6582   -27617.231   -794.30588    653.29933    78.596728    18.365292    27.220655 
   93800    242.39449   -293.25387    263624.46   -25704.376    1961.6742    -27666.05   -784.21671    654.45587    78.596583     18.36579    27.219539 
   94000    240.52093   -409.79188    263624.46   -25756.404    1946.5116   -27702.915   -1326.7562    655.65636    78.597014    18.362825    27.219501 
   94200    236.79861   -206.64326    263624.46   -25687.872    1916.3873    -27604.26   -408.38297    655.80074    78.598806    18.363298    27.214408 
   94400    236.66469   -224.87361    263624.46   -25700.043    1915.3035   -27615.346   -491.39028    657.09896     78.59809    18.366663    27.232817 
   94600    231.92756   -373.35472    263624.46   -25711.255    1876.9664   -27588.221   -1152.6892    658.93269    78.598607    18.368327    27.232138 
   94800    237.56166   -233.06702    263624.46   -25714.462    1922.5626   -27637.025   -503.93044    658.24468    78.597269    18.368041    27.225556 
   95000    234.49029   -288.29234    263624.46   -25712.283    1897.7063   -27609.989   -761.60973    659.59298    78.597811    18.366557    27.223034 
   95200    243.23384   -343.76959    263624.46   -25708.279     1968.467   -27676.746   -990.71122    659.62839     78.59905    18.364794    27.221818 
   95400     241.2317   -221.70212    263624.46   -25740.752    1952.2639   -27693.016   -456.30316    660.24372    78.600024    18.362647    27.247113 
   95600     241.9271   -227.83747    263624.46     -25769.7    1957.8917   -27727.591   -490.58814     660.4982     78.59981    18.362857    27.259263 
   95800    236.93867    -300.1129    263624.46    -25732.88    1917.5208   -27650.401   -832.97735    661.76131    78.600193    18.363153    27.259415 
   96000    243.68458    -487.4974    263624.46   -25701.278    1972.1148   -27673.393   -1707.6486    663.39577    78.600558    18.364549     27.24245 
   96200    241.48091   -366.75528    263624.46   -25643.857    1954.2807   -27598.138   -1094.3611    664.93311    78.602474    18.363633    27.230047 
   96400     246.8686   -317.93681    263624.46   -25718.885    1997.8827   -27716.767   -918.27136    665.52191    78.602844    18.364009    27.245569 
   96600    241.38305     -317.647    263624.46   -25806.181    1953.4887    -27759.67   -922.47089    667.39196    78.602483    18.365099    27.248833 
   96800    238.36419   -258.96978    263624.46   -25764.516    1929.0574   -27693.573   -626.40537    668.91809    78.602094    18.365156    27.248769 
   97000    238.66663   -302.15575    263624.46   -25817.949     1931.505   -27749.454   -819.79859    668.87211    78.602032    18.365521    27.258337 
   97200    237.94759   -162.58264    263624.46   -25806.272    1925.6859   -27731.958    -222.0983    670.38407    78.601753    18.363528    27.253549 
   97400    242.95262   -113.02725    263624.46   -25775.444    1966.1911   -27741.635    30.633406     672.0406    78.601198    18.361853    27.235336 
   97600    239.54666   -359.71042    263624.46    -25741.44     1938.627   -27680.067   -1106.8864    672.24218    78.601261    18.359103    27.230515 
   97800     242.5052   -193.42373    263624.46    -25794.91    1962.5701   -27757.481   -320.30869    674.45761    78.598965    18.357881    27.234223 
   98000    237.44184   -181.39152    263624.46   -25815.766    1921.5929   -27737.359   -312.18817    673.76976     78.59785    18.357093    27.220788 
   98200    240.01764   -293.32263    263624.46   -25823.139    1942.4386   -27765.578   -832.71592    675.46782    78.596746    18.356513    27.232804 
   98400    236.66144   -236.76585    263624.46   -25796.079    1915.2772   -27711.357   -521.33895    673.95089    78.596483    18.357323    27.225006 
   98600    241.28771   -320.72971    263624.46   -25782.182    1952.7171     -27734.9    -899.2634     675.4296    78.595977    18.356013    27.225208 
   98800    232.70695   -226.67229    263624.46   -25767.577    1883.2739   -27650.851   -501.81355    675.37327    78.595432    18.357403    27.222914 
   99000    239.79211   -387.46361    263624.46   -25817.467    1940.6134    -27758.08   -1198.2255    678.03073    78.595928    18.358017    27.206865 
   99200    241.68267   -176.32759    263624.46   -25793.402    1955.9135   -27749.316   -273.33769    679.78871    78.596055    18.358202    27.191893 
   99400    233.46804    -310.2903    263624.46   -25856.042    1889.4333   -27745.475   -893.30719    681.03099    78.597186    18.360114    27.191563 
   99600    241.64205   -394.73581    263624.46    -25776.57    1955.5848   -27732.155   -1227.9834    678.53961     78.59837    18.360422    27.182623 
   99800    237.22264   -409.28776    263624.46   -25761.432     1919.819   -27681.251   -1287.2836    682.35655    78.598737    18.362696    27.183998 
  100000    239.60468   -158.41478    263624.46   -25723.186    1939.0966   -27662.282   -203.39081    680.51318    78.600903    18.361183    27.181949 
  100200    233.43195   -78.443745    263624.46   -25770.547    1889.1413   -27659.688    124.96832    681.54965    78.602429    18.361245    27.163137 
  100400    240.00036   -321.72344    263624.46   -25711.857    1942.2988   -27654.155   -909.75099    683.78053    78.602056    18.362509     27.17255 
  100600    242.13139   -218.09534    263624.46   -25734.578    1959.5449   -27694.123   -442.88811    684.61415    78.601121    18.364997    27.177291 
  100800    236.73136   -176.70786    263624.46   -25784.142     1915.843   -27699.985    -285.6635    687.77739    78.601748    18.364837    27.175277 
[...]
 5176000    221.41046   -981.62362    263624.46   -28520.152    1791.8526   -30312.004   -3708.3272     5155.312    78.695605    17.864827    28.486242 
 5176200    227.58294   -961.13409    263624.46   -28472.535    1841.8058   -30314.341   -3595.2857    5153.5442     78.69632    17.862804    28.492061 
 5176400    226.45024   -1055.6016    263624.46    -28485.55     1832.639   -30318.189   -3990.1905    5155.2325    78.694911    17.864278    28.486201 
 5176600    232.10806    -1003.001    263624.46   -28420.722    1878.4272   -30299.149   -3813.5508    5154.6411    78.694557    17.865128    28.491294 
 5176800    230.50585   -932.68137    263624.46   -28450.185    1865.4606   -30315.646   -3462.0299    5155.2041    78.693913    17.864605    28.489103 
 5177000    230.17629   -1064.6769    263624.46   -28447.377    1862.7935    -30310.17   -4071.5342    5154.7118    78.691796    17.864859    28.490101 
 5177200    230.09431   -1104.4379    263624.46   -28409.672    1862.1301   -30271.802   -4263.8126    5155.5281    78.691634    17.866421    28.493249 
 5177400    232.24691   -943.08755    263624.46    -28382.78    1879.5508   -30262.331   -3502.2979    5154.1225    78.690485    17.866376    28.488151 
 5177600    228.95367   -1088.7719    263624.46   -28374.838     1852.899   -30227.737   -4171.8791    5157.7627    78.688763    17.865912    28.486505 
 5177800    229.18895    -1039.836    263624.46   -28443.639    1854.8031   -30298.442   -3931.4081    5152.5389    78.688452    17.866865    28.496197 
 5178000     222.0053   -1065.9868    263624.46    -28473.15    1796.6665   -30269.816   -4065.5431    5156.0536    78.686954    17.867213    28.491652 
 5178200    220.44049   -1090.2441    263624.46    -28440.74    1784.0027   -30224.742   -4155.3456    5155.1791    78.686299     17.86644    28.490038 
 5178400    228.07177   -1002.2446    263624.46   -28433.602    1845.7619   -30279.364   -3771.0301    5153.5573    78.686043    17.867661    28.490944 
 5178600    226.79232   -1082.0385    263624.46   -28453.467    1835.4074   -30288.875    -4147.479    5154.9489    78.686645    17.869519    28.481174 
 5178800    223.28534   -1069.9522    263624.46   -28410.853    1807.0258   -30217.878   -4100.1005    5155.8828    78.686571    17.868194    28.484908 
 5179000    227.19097   -972.40969    263624.46    -28480.74    1838.6336   -30319.374   -3674.7056    5153.6994    78.684988    17.868924    28.492582 
 5179200    224.50755   -1146.5012    263624.46   -28499.763     1816.917    -30316.68   -4476.4868    5155.9366    78.685132    17.870741    28.489253 
 5179400    231.21596    -994.1154    263624.46    -28381.71    1871.2075   -30252.917   -3748.4126    5154.6208      78.6854    17.870521    28.492785 
 5179600    225.19574   -998.49573    263624.46   -28473.792    1822.4865   -30296.279   -3775.0691    5155.2489    78.684388    17.869903    28.483858 
 5179800    219.78355   -1064.7381    263624.46   -28509.797    1778.6861   -30288.483   -4053.8369    5155.3389    78.684321    17.871286     28.48722 
 5180000    215.15123   -970.23557    263624.46   -28577.811    1741.1972   -30319.008   -3625.1751    5154.7989    78.683984    17.870412    28.491226 
 5180200    222.54885   -1031.5523    263624.46   -28529.857    1801.0654   -30330.922   -3913.3188    5154.8345    78.683556    17.869311    28.485619 
 5180400    224.09195   -1072.7902    263624.46   -28419.291    1813.5536   -30232.844   -4073.8279    5156.1007    78.683265    17.869736    28.490155 
 5180600    223.90255   -953.75933    263624.46   -28449.414    1812.0208   -30261.435   -3549.4466    5153.4482    78.684602    17.869896    28.488402 
 5180800    224.34668   -1095.9017    263624.46   -28509.931    1815.6151   -30325.546   -4211.7392    5154.5506     78.68456    17.868767    28.482504 
 5181000    229.39775    -1152.346    263624.46   -28430.084    1856.4929   -30286.577   -4444.3387    5156.1016    78.683504    17.869223    28.484978 
 5181200    228.74724   -948.98434    263624.46   -28510.582    1851.2283   -30361.811   -3544.1881    5154.0776    78.684448    17.869258    28.488181 
 5181400    229.23795   -1079.7062    263624.46    -28464.23    1855.1996    -30319.43    -4131.886    5156.2348    78.682862    17.867471    28.483906 
 5181600     227.6995   -1073.7043    263624.46   -28503.766    1842.7491   -30346.515    -4125.812    5155.5628    78.683706    17.868719    28.487019 
 5181800    232.15696    -1063.547    263624.46   -28437.576    1878.8229   -30316.399   -4098.4943    5157.3241    78.683301    17.869072    28.482697 
 5182000    229.69775   -1051.3864    263624.46   -28439.001    1858.9208   -30297.921   -4009.9463    5155.0059    78.683711    17.867079     28.48484 
 5182200    226.67014   -935.07806    263624.46   -28414.273    1834.4186   -30248.691   -3519.8496    5155.1882    78.684245    17.867453    28.487726 
 5182400    228.68072   -965.56415    263624.46   -28487.224      1850.69   -30337.914   -3615.5416    5155.1455     78.68402    17.868612    28.485822 
 5182600    226.44234   -1049.3212    263624.46   -28476.067    1832.5751   -30308.642   -3956.4817    5157.0939    78.682782    17.867621    28.487212 
 5182800    223.69252   -972.16931    263624.46   -28447.826     1810.321   -30258.147   -3664.3578    5154.0488    78.682531    17.866797    28.488673 
 5183000    231.37601   -1027.1208    263624.46   -28389.154    1872.5028   -30261.657   -3879.6411    5155.1884    78.681579    17.867034    28.487463 
 5183200    225.26197   -1100.4048    263624.46   -28425.977    1823.0225   -30248.999   -4247.4037    5157.9354    78.680883     17.86639    28.492636 
 5183400    226.95622    -893.2907    263624.46   -28512.677    1836.7338   -30349.411   -3315.0661     5153.638     78.68119    17.863936    28.493892 
 5183600    224.83175    -1000.566    263624.46   -28483.275    1819.5407   -30302.816   -3794.3753     5154.612    78.680568    17.863844    28.489287 
 5183800    222.63663   -1029.8563    263624.46   -28458.272    1801.7759   -30260.048   -3921.3436    5156.1331    78.679943    17.862679     28.49539 
 5184000    226.24656   -952.90198    263624.46   -28426.518    1830.9906   -30257.509   -3572.1674    5155.3003    78.679294    17.860806    28.487587 
 5184200    228.23879   -1002.4928    263624.46   -28426.677    1847.1135    -30273.79   -3789.3636    5155.8136    78.678742    17.860655    28.489099 
 5184400    223.28375    -1014.713    263624.46   -28428.082    1807.0129   -30235.095   -3838.0029     5156.414    78.678843    17.858583    28.491361 
 5184600    227.13624   -1080.6286    263624.46   -28440.946    1838.1907   -30279.137    -4138.518    5155.6662    78.677019    17.858484    28.495188 
 5184800    222.69023   -1070.5437    263624.46   -28443.466    1802.2096   -30245.675   -4131.8043    5154.2165     78.67716    17.858835    28.495584 
 5185000    224.55552   -1009.5972    263624.46   -28442.965    1817.3052    -30260.27   -3820.3763    5153.4188    78.674553    17.859523    28.492563 
 5185200    228.58101   -1134.9351    263624.46   -28479.142    1849.8831   -30329.025   -4417.6222    5157.7318    78.675887    17.859917    28.491769 
 5185400    227.23697   -1071.6523    263624.46   -28450.627    1839.0059   -30289.633   -4153.7446    5155.5575    78.676538    17.860563    28.491849 
 5185600    224.24321   -1032.5856    263624.46   -28471.762    1814.7777    -30286.54    -3971.204    5156.1499    78.676758     17.86176    28.488399 
 5185800    227.59326   -1054.0071    263624.46   -28437.305    1841.8893   -30279.195   -4050.4874    5155.9414    78.677953    17.862379    28.491997 
 5186000    232.34499   -1038.1086    263624.46   -28405.725    1880.3446   -30286.069   -4000.8594    5155.0468    78.677795    17.860815    28.487352 
 5186200    230.50048   -1005.6315    263624.46   -28441.904    1865.4172   -30307.321   -3824.4407    5156.7032    78.677444     17.86149    28.488292 
 5186400    224.19537   -1048.3181    263624.46   -28452.223    1814.3905   -30266.613   -4025.4919      5154.89    78.677717    17.863839    28.491236 
 5186600    222.86813    -1043.686    263624.46   -28466.236    1803.6493   -30269.885   -4018.3242    5155.3689    78.677254    17.862916    28.484817 
 5186800    231.05297   -1071.0423    263624.46   -28369.978    1869.8884   -30239.866   -4112.4539    5156.5308    78.678746    17.861199     28.48803 
 5187000    232.26008   -927.96743    263624.46   -28381.339    1879.6574   -30260.996    -3462.276    5153.1666    78.677521    17.862035    28.488704 
 5187200    223.41175   -1014.9858    263624.46   -28533.751    1808.0488     -30341.8   -3846.2755    5155.6162    78.679036    17.863133    28.486221 
 5187400    220.99645    -1076.517    263624.46   -28537.714     1788.502   -30326.216   -4158.0899    5158.3457     78.67822    17.860023    28.484944 
 5187600    231.15698   -952.03324    263624.46   -28443.163    1870.7302   -30313.893   -3577.2046    5154.2889    78.678857    17.859944    28.484391 
 5187800    225.48344   -1049.3561    263624.46   -28471.773    1824.8148   -30296.588   -4043.5484    5155.3725    78.680377    17.860327    28.482119 
 5188000    228.90243   -1005.1904    263624.46   -28383.698    1852.4843   -30236.182   -3825.3287    5153.5597    78.680448    17.860825    28.481384 
 5188200    231.05424   -1077.9286    263624.46   -28415.887    1869.8987   -30285.786   -4153.9116    5156.9812    78.681534     17.85949    28.489273 
 5188400    229.25931   -1004.9806    263624.46   -28462.457    1855.3725   -30317.829   -3829.2353    5152.8196    78.679574    17.858549    28.481977 
 5188600     220.9188   -1058.3503    263624.46   -28502.849    1787.8736   -30290.722   -4044.0271     5156.439    78.681003    17.860726     28.49365 
 5188800    224.16171   -1039.1351    263624.46   -28477.785    1814.1182   -30291.903   -3962.8169    5153.9036    78.679516    17.859174    28.488052 
 5189000     225.1968   -1010.8032    263624.46   -28450.025     1822.495    -30272.52   -3831.5933    5155.8546    78.680161    17.859344    28.492316 
 5189200    215.21857   -1018.8647    263624.46   -28542.046    1741.7422   -30283.788   -3869.8053    5153.6838    78.680279    17.861842    28.494166 
 5189400    226.31001   -1047.1901    263624.46   -28477.164    1831.5041   -30308.668   -3996.4651    5156.8723    78.679994    17.860899    28.490626 
 5189600    227.56363   -1048.5382    263624.46   -28432.875    1841.6495   -30274.525   -3999.1362    5156.2418    78.679769    17.860392    28.487932 
 5189800    225.90747    -946.6108    263624.46   -28481.865    1828.2464   -30310.112   -3555.0519     5153.716    78.679287    17.858296    28.490541 
 5190000    226.61884   -1022.9721    263624.46   -28474.781    1834.0035   -30308.785   -3899.8967    5156.4949    78.679561    17.860013    28.491725 
 5190200    230.80019   -1081.5795    263624.46   -28498.176    1867.8427   -30366.019   -4155.9953    5155.3802     78.67966    17.859983    28.492681 
 5190400    236.01607   -1046.8159    263624.46   -28336.173    1910.0543   -30246.227   -3985.0711    5157.9148    78.679225    17.858309    28.489899 
 5190600    224.54537   -918.37834    263624.46   -28462.025    1817.2231   -30279.248   -3411.0662    5152.2983    78.680271    17.858892    28.491075 
 5190800     229.6546   -1123.7599    263624.46   -28447.343    1858.5716   -30305.914   -4331.9986    5158.8285    78.679824    17.859455    28.490479 
 5191000    224.61349   -997.66463    263624.46    -28485.49    1817.7743   -30303.264   -3768.0773    5154.8923    78.680184    17.859446    28.495802 
 5191200    231.37295   -944.54327    263624.46   -28444.804     1872.478   -30317.282   -3535.3718    5156.1803    78.680842    17.858941    28.494442 
 5191400    229.48039   -946.86141    263624.46   -28456.367    1857.1617   -30313.529   -3529.6787    5155.8745    78.682935    17.859338      28.4985 
 5191600    225.35188    -1124.973    263624.46   -28481.434      1823.75   -30305.184   -4317.7775    5157.5419    78.683702    17.860314    28.498626 
 5191800    227.14503   -969.47122    263624.46    -28384.08    1838.2619   -30222.342   -3660.6596    5155.5078    78.682768    17.858977    28.493385 
 5192000    234.26015   -1005.6142    263624.46   -28390.639    1895.8438   -30286.482   -3785.9081    5155.7034    78.684524    17.861669    28.499239 
 5192200    229.71306   -1066.5315    263624.46   -28455.149    1859.0446   -30314.193   -4071.1884    5156.4621     78.68399    17.863083    28.495318 
 5192400     232.3829   -1026.4043    263624.46   -28447.059    1880.6514    -30327.71   -3878.9027      5158.53     78.68719    17.860912     28.49931 
 5192600    224.78345   -975.76158    263624.46    -28509.29    1819.1499    -30328.44   -3665.4747    5152.6313    78.685873    17.862568    28.497812 
 5192800    229.95669   -1114.1839    263624.46    -28443.39    1861.0164   -30304.407    -4290.097     5157.906    78.686947    17.865288     28.49582 
 5193000    223.69864   -1109.0577    263624.46   -28483.235    1810.3706   -30293.606   -4274.5716    5154.7231    78.686026    17.864419    28.490865 
 5193200    229.66361   -1074.6297    263624.46   -28430.233    1858.6445   -30288.878   -4112.9918    5156.0669    78.683579    17.863625    28.497272 
 5193400    224.65632   -1032.8416    263624.46   -28499.487     1818.121   -30317.608   -3879.3799    5155.6399    78.684583     17.86546    28.498423 
 5193600    232.09432   -1036.5785    263624.46   -28412.203     1878.316   -30290.519   -3929.5047    5155.1899    78.683617    17.866024    28.495316 
 5193800    225.31038   -1120.4276    263624.46   -28501.495    1823.4142   -30324.909   -4331.2798    5159.3782    78.685397    17.865017    28.494475 
 5194000    224.40245   -992.48143    263624.46   -28573.037    1816.0665   -30389.104   -3773.2737    5153.1456    78.685404    17.866678    28.484806 
 5194200     224.3812   -1053.9304    263624.46   -28506.327    1815.8945   -30322.222   -4020.8799    5159.3108    78.685988    17.868624    28.487647 
 5194400    226.86832   -1034.4167    263624.46   -28416.906    1836.0225   -30252.929   -3963.2897    5155.5644    78.687086    17.869732    28.489766 
 5194600    234.41054   -1033.7532    263624.46   -28405.855    1897.0609   -30302.916   -3928.9149    5156.5707    78.686482    17.870803     28.48363 
 5194800    223.37373    -1036.344    263624.46   -28424.504    1807.7411   -30232.245   -3927.9803    5156.0311    78.689075    17.871455    28.492478 
 5195000    226.85795    -1065.979    263624.46    -28442.08    1835.9385   -30278.018   -4080.2541    5157.1758    78.687959    17.872918    28.492499 
 5195200    225.68885    -1064.654    263624.46   -28422.646    1826.4771   -30249.124   -4114.7105    5157.7708    78.688851    17.872998    28.489849 
 5195400    232.85661   -1003.3602    263624.46   -28409.709    1884.4851   -30294.194   -3825.7513    5154.9159    78.688353    17.874176    28.489834 
 5195600    223.96722   -1038.5838    263624.46   -28504.354    1812.5442   -30316.898   -3971.9661    5155.2518    78.687776    17.874884    28.484751 
 5195800    228.58385   -1072.4948    263624.46   -28355.184    1849.9061    -30205.09   -4130.4427     5156.549    78.688207     17.87471    28.488776 
 5196000    228.99342   -1035.2444    263624.46   -28447.986    1853.2207   -30301.206   -3962.5779    5154.0477    78.688446    17.875986    28.486483 
 5196200    230.10112   -1125.2796    263624.46   -28447.606    1862.1852   -30309.791   -4372.4402    5157.8091    78.688292    17.876485    28.488298 
 5196400    231.02705   -1061.2635    263624.46   -28427.367    1869.6787   -30297.045   -4068.1762    5155.0268    78.687689    17.875816    28.490981 
 5196600    226.85261   -1024.6284    263624.46   -28465.949    1835.8953   -30301.845   -3901.8581    5157.3317    78.687329    17.876096    28.489984 
 5196800    226.99433   -1031.9562    263624.46   -28439.154    1837.0422   -30276.196   -3915.6028     5155.775    78.687264    17.875914    28.478671 
 5197000    228.48765   -1038.7208    263624.46   -28380.572    1849.1276     -30229.7   -3979.6044    5156.9263    78.686795     17.87774    28.486606 
 5197200    225.42765   -1036.7123    263624.46   -28446.675    1824.3632   -30271.038   -3956.3738    5157.1369    78.686769    17.876689    28.484564 
 5197400    229.87784   -1029.7166    263624.46   -28423.828    1860.3782   -30284.206   -3895.8568    5155.6396      78.6865    17.876873    28.486193 
 5197600    222.61381   -1043.3784    263624.46   -28487.682    1801.5911   -30289.273   -3959.9181     5156.215    78.687737    17.876773    28.488417 
 5197800    219.91051   -1021.7856    263624.46   -28552.864    1779.7136   -30332.578   -3915.9426    5156.0439    78.687828    17.876489    28.487734 
 5198000    230.15337   -1065.8244    263624.46   -28431.562     1862.608    -30294.17   -4078.6684     5158.977    78.688473    17.876381    28.487031 
 5198200    231.86507    -1046.621    263624.46   -28423.615    1876.4606   -30300.075    -4008.159    5156.1853    78.688024    17.875992    28.491373 
 5198400    228.52616   -980.36404    263624.46    -28502.35    1849.4392   -30351.789   -3663.8544    5153.9006    78.686414    17.875256    28.488607 
 5198600    224.93906   -1050.8421    263624.46   -28535.803    1820.4092   -30356.212   -3985.5343    5155.8079    78.688334    17.875663    28.493028 
 5198800    224.02942   -1046.2544    263624.46   -28470.263    1813.0476    -30283.31   -3997.9917    5156.1567     78.68757     17.87661    28.487922 
 5199000    226.89525   -892.29304    263624.46   -28397.495    1836.2404   -30233.736   -3345.6258    5155.8109    78.688003    17.875952    28.487931 
 5199200    227.17294   -996.30173    263624.46   -28457.931    1838.4877   -30296.419   -3796.0012    5155.9782    78.687613    17.877158    28.489525 
 5199400     225.3838   -1126.1415    263624.46   -28477.189    1824.0084   -30301.197   -4359.5763    5157.8833    78.686181    17.878382     28.48973 
 5199600    226.87472   -998.81175    263624.46   -28457.971    1836.0743   -30294.045   -3775.2582    5154.2105    78.687592    17.876529    28.489013 
 5199800    232.14304   -955.84979    263624.46   -28446.674    1878.7103   -30325.385   -3586.6505    5154.7692     78.68645    17.875907    28.488867 
 5200000    227.91089   -1142.4204    263624.46   -28440.518    1844.4599   -30284.978   -4424.0112    5158.9248    78.689649    17.874701    28.489639 
Loop time of 14890.2 on 80 procs for 5200000 steps with 9436 atoms

Performance: 301.729 ns/day, 0.080 hours/ns, 349.224 timesteps/s
98.1% CPU use with 80 MPI tasks x no OpenMP threads

MPI task timing breakdown:
Section |  min time  |  avg time  |  max time  |%varavg| %total
---------------------------------------------------------------
Pair    | 0.25807    | 3690.4     | 12433      |7262.4 | 24.78
Neigh   | 0.46093    | 229.12     | 826.15     |1916.8 |  1.54
Comm    | 11.905     | 4772.5     | 12532      |6202.2 | 32.05
Output  | 171.32     | 171.42     | 173.4      |   1.7 |  1.15
Modify  | 381.66     | 5940.9     | 14648      |7644.9 | 39.90
Other   |            | 85.86      |            |       |  0.58

Nlocal:        117.950 ave         367 max           0 min
Histogram: 32 8 20 0 0 0 0 0 2 18
Nghost:        749.587 ave        1207 max           0 min
Histogram: 10 2 2 2 4 0 27 9 6 18
Neighs:         0.00000 ave           0 max           0 min
Histogram: 80 0 0 0 0 0 0 0 0 0
FullNghs:      11471.4 ave       44197 max           0 min
Histogram: 54 6 0 0 0 0 0 1 5 14

Total # of neighbors = 917708
Ave neighs/atom = 97.256041
Neighbor list builds = 551592
Dangerous builds = 0
write_data 		${DIR}/data.${NAME}_run
write_data 		run_6/data.${NAME}_run
write_data 		run_6/data.ibeam_cooling_6_run
System init for write_data ...
Total wall time: 4:08:44
