
# Set production fixes - Nose/Hoover
#
fix                 4 water temp/csvr ${START_TEMP} ${END_TEMP} 500.0 928347
fix                 4 water temp/csvr 240 ${END_TEMP} 500.0 928347
fix                 4 water temp/csvr 240 227 500.0 928347


## divide "droplet" into core and surface
#region		core_reg cylinder z 135 135 44.6 20 INF units box
#region		surface_reg cylinder z 135 135 44.6 20 INF units box side out
#group		core dynamic all region core_reg
#group		surface dynamic all region surface_reg

## compute pressure core
#compute        peratom_core core stress/atom NULL
#compute        p_core core reduce sum c_peratom_core[1] c_peratom_core[2] c_peratom_core[3]
#variable       press_core equal -(c_p_core[1]+c_p_core[2]+c_p_core[3])/(3*1249982.5)


## compute pressure surface
#compute        peratom_surf surface stress/atom NULL
#compute        p_surf surface reduce sum c_peratom_surf[1] c_peratom_surf[2] #c_peratom_surf[3]
#variable       press_surf equal -(c_p_surf[1]+c_p_surf[2]+c_p_surf[3])/(3*42395)

## compute total pressure of drop
compute        peratom water stress/atom NULL
compute        p water reduce sum c_peratom[1] c_peratom[2] c_peratom[3]
variable       press equal -(c_p[1]+c_p[2]+c_p[3])/(3*58301)


# compute order parameter
compute        3 all orientorder/atom nnn NULL cutoff 3.5

# compute center of mass of bridge
compute 	4 water com

# Run simulation
thermo_style        custom step c_2 press vol etotal ke pe v_press c_1[4] c_4[*]
thermo              200
dump		     1 water custom 400 ${DIR}/prod.${NAME}.dump id type x y z vx vy vz c_3[*] c_peratom[*]
dump		     1 water custom 400 run_20/prod.${NAME}.dump id type x y z vx vy vz c_3[*] c_peratom[*]
dump		     1 water custom 400 run_20/prod.ibeam_cooling_20.dump id type x y z vx vy vz c_3[*] c_peratom[*]
run                 ${STEPS}
run                 5200000
Neighbor list info ...
  update every 1 steps, delay 0 steps, check yes
  max neighbors/atom: 2000, page size: 100000
  master list distance cutoff = 6.67472
  ghost atom cutoff = 6.67472
  binsize = 3.33736, bins = 48 11 12
  2 neighbor lists, perpetual/occasional/extra = 1 1 0
  (1) pair sw, perpetual
      attributes: full, newton on
      pair build: full/bin/atomonly
      stencil: full/bin/3d
      bin: standard
  (2) compute orientorder/atom, occasional, copy from (1)
      attributes: full, newton on
      pair build: copy
      stencil: none
      bin: none
Per MPI rank memory allocation (min/avg/max) = 0.8538 | 6.017 | 7.264 Mbytes
Step c_2 Press Volume TotEng KinEng PotEng v_press c_1[4] c_4[1] c_4[2] c_4[3] 
       0    243.62635   -199.74018    229018.04   -21123.308     1613.625   -22736.934   -276.94521    30.854707    78.594329    15.914306    29.718355 
     200     240.3826   -199.67911    229018.04   -21183.821    1592.1405   -22775.962   -248.33897    31.577263    78.593519    15.915244    29.721552 
     400    234.63013   -345.03778    229018.04   -21171.857    1554.0398   -22725.896   -833.27957    32.864968    78.593054    15.913536    29.725853 
     600    232.47811   -328.23561    229018.04   -21259.483    1539.7862   -22799.269   -783.27944    34.232726    78.591686    15.908222    29.711243 
     800    236.26031   -172.63088    229018.04   -21237.761    1564.8371   -22802.598   -143.30279     35.47538    78.590345    15.906648    29.725496 
    1000    246.80145   -339.99756    229018.04   -21115.531    1634.6548   -22750.186   -794.84456    37.021836    78.592041    15.905058    29.724816 
    1200    239.36233   -310.00927    229018.04   -21229.883    1585.3829   -22815.265   -708.94683    38.650262    78.592069    15.904059     29.71721 
    1400    247.19746   -246.53077    229018.04   -21061.169    1637.2778   -22698.447   -465.98945    39.231885    78.590994    15.902476    29.698374 
    1600    240.16835   -329.37987    229018.04   -21095.866    1590.7214   -22686.588   -811.16735    40.891539    78.590173    15.902074    29.701166 
    1800    238.71951   -265.13699    229018.04   -21138.309    1581.1253   -22719.434   -554.38145    43.081977    78.590111    15.898879    29.713332 
    2000    246.21467   -417.09796    229018.04   -21009.998    1630.7684   -22640.767   -1145.2179    44.158352    78.591399    15.899374    29.698405 
    2200     240.7044   -319.02703    229018.04   -21048.463    1594.2719   -22642.735   -763.95445    45.206685    78.593239    15.897693    29.692766 
    2400    237.94342   -418.98044    229018.04   -21051.023    1575.9849   -22627.008   -1131.2076     46.88718    78.595058    15.899304    29.701263 
    2600    239.67703   -430.38779    229018.04   -21092.048    1587.4672   -22679.515   -1216.6241     47.60656     78.59343    15.900158     29.68709 
    2800    240.50964   -369.47849    229018.04    -21029.51    1592.9819   -22622.492   -885.22525     49.68786    78.591435    15.898822    29.690739 
    3000    239.34721   -144.04697    229018.04   -21144.457    1585.2828    -22729.74   -58.356415     51.09695    78.591159    15.896082    29.679667 
    3200    230.46785   -278.22051    229018.04   -21131.273    1526.4715   -22657.744   -603.73764    53.081605    78.592044    15.894332    29.664768 
    3400    237.35419   -438.35998    229018.04   -21070.724    1572.0822   -22642.806   -1203.8881    55.493181     78.59536     15.89434    29.661488 
    3600    239.38281   -126.30685    229018.04   -21070.449    1585.5185   -22655.967   -13.957284    57.343858    78.597495    15.892659    29.672142 
    3800    234.92719   -382.94897    229018.04   -21099.521    1556.0073   -22655.528   -1034.9905    58.709251    78.595971    15.895401    29.676169 
    4000    234.92978   -231.30651    229018.04   -21130.637    1556.0245   -22686.662   -431.55317    60.737427     78.59629     15.89785    29.667934 
    4200    242.89787   -396.91822    229018.04   -21047.073       1608.8   -22655.873   -1040.7677    62.592337    78.597446    15.901367    29.640859 
    4400    250.18451    -109.7511    229018.04   -20998.364    1657.0621   -22655.426    80.718218    64.840095    78.598037    15.900802       29.653 
    4600    235.07051   -398.77932    229018.04   -21075.579    1556.9566   -22632.536   -1034.9039    66.465669    78.597436    15.899303    29.668463 
    4800    241.59693   -214.06538    229018.04    -21049.15    1600.1834   -22649.333   -359.77718    68.228053    78.595624     15.89989    29.674889 
    5000    239.31678   -286.93051    229018.04   -21154.894    1585.0812   -22739.976    -625.9953    70.301408    78.594505    15.897387    29.663227 
    5200    234.54153   -388.78574    229018.04   -21104.079     1553.453   -22657.532   -1006.1245    71.910205    78.593622    15.897703    29.679765 
    5400    234.26968   -234.08494    229018.04   -21084.906    1551.6524   -22636.558   -431.03742     73.40931    78.591121    15.895634    29.696857 
    5600    232.68614   -249.59871    229018.04       -21158    1541.1641   -22699.164   -456.37852    76.133526    78.592339    15.894636    29.696148 
    5800    247.82073   -344.40194    229018.04   -21006.679    1641.4059   -22648.085   -864.38274    78.865589    78.593706    15.894197    29.699088 
    6000    236.16476    -327.6263    229018.04   -21216.068    1564.2042   -22780.273   -818.12712    79.738467    78.595051    15.893968    29.715448 
    6200    240.73973   -278.59302    229018.04   -21161.338    1594.5059   -22755.844   -583.56242    82.426055    78.593498    15.891326    29.723369 
    6400    239.79821   -325.72506    229018.04    -21110.67    1588.2699    -22698.94   -782.56925    83.685912    78.591053    15.892933    29.727501 
    6600    236.33081   -302.74064    229018.04   -21173.888     1565.304   -22739.192   -674.98695    83.787389    78.588896    15.893266    29.710118 
    6800    240.47486   -359.19764    229018.04   -21137.141    1592.7515   -22729.893   -920.66905    86.535523    78.589777    15.892956    29.737349 
    7000    235.27238   -297.45253    229018.04   -21208.986    1558.2937    -22767.28   -664.43001    88.301248    78.588539    15.895105    29.707753 
    7200    245.99744   -285.86152    229018.04   -21140.934    1629.3296   -22770.263   -625.67136    91.129966    78.587809    15.896334    29.718851 
    7400    240.10317   -108.52113    229018.04   -21217.844    1590.2897   -22808.134    90.648285    92.524663    78.587864    15.894417    29.715752 
    7600    233.66134   -325.85118    229018.04   -21210.464    1547.6232   -22758.087   -729.80044    94.322686    78.588947    15.894612    29.693422 
    7800    237.22968   -161.04883    229018.04   -21115.388    1571.2576   -22686.646   -133.59138     97.47626     78.58724     15.89374    29.718795 
    8000    237.58239   -300.40703    229018.04   -21100.148    1573.5937   -22673.741   -657.83165    98.856904    78.588836    15.891311    29.741813 
    8200    238.36433   -319.15434    229018.04   -21156.362    1578.7728   -22735.135   -752.86297     99.39252    78.588224    15.889267    29.740301 
    8400    239.53842   -197.26059    229018.04   -21151.808    1586.5492   -22738.357   -274.46962    100.63052    78.588596    15.886009    29.720443 
    8600    236.54455   -290.95905    229018.04   -21082.487    1566.7197   -22649.207   -627.82059    102.89102    78.587049    15.887935    29.718281 
    8800    237.16169   -274.82908    229018.04    -21096.85    1570.8073   -22667.658   -592.45484      103.972    78.588283    15.886342    29.708157 
    9000     240.6831   -291.35895    229018.04    -21098.31    1594.1308   -22692.441   -663.49218    105.13972    78.586971    15.885862    29.695874 
    9200    236.89658   -199.79209    229018.04   -21151.558    1569.0513   -22720.609   -287.92137    106.19107    78.587403    15.886209    29.694772 
    9400    231.68295    -356.8379    229018.04   -21178.255    1534.5195   -22712.775   -879.75957    107.34109    78.588058    15.885455    29.684678 
    9600    238.07471   -269.11683    229018.04   -21237.842    1576.8545   -22814.697   -606.52692    109.82207    78.588772    15.884601    29.683793 
    9800    234.16491   -257.79883    229018.04   -21181.587    1550.9585   -22732.546    -504.1862    111.11923    78.589718    15.884544    29.660659 
   10000    247.93018   -324.81098    229018.04   -21037.226    1642.1308   -22679.357   -788.29315    113.26091    78.590255    15.886556    29.659412 
   10200    251.66747   -314.71339    229018.04   -21064.921    1666.8842   -22731.805   -716.70386     114.4292    78.593193     15.88722    29.644857 
   10400    241.39488   -218.68993    229018.04   -21108.859    1598.8452   -22707.704   -378.85412    114.81037    78.593432    15.886762     29.64113 
   10600     241.3523   -225.93413    229018.04   -21069.349    1598.5632   -22667.912   -380.00321    116.92246    78.593293    15.886795    29.642122 
   10800    241.06061    -366.9664    229018.04   -21092.583    1596.6312   -22689.214    -967.5536    118.04923    78.592068    15.886814    29.631154 
   11000     238.0441   -280.77237    229018.04   -21103.055    1576.6517   -22679.707   -618.54527    118.36157    78.592993    15.884992    29.634398 
   11200    242.17019   -402.30796    229018.04    -21100.49    1603.9803   -22704.471   -1061.2268    119.54271    78.593706    15.886112    29.619915 
   11400    232.99034   -321.81417    229018.04   -21125.451    1543.1789    -22668.63    -747.8577    123.13277    78.595768    15.885547      29.6072 
   11600      236.211   -283.88408    229018.04   -21083.955    1564.5105   -22648.466   -621.29393    125.52691    78.599362    15.885416    29.595941 
   11800    241.17616    -173.4175    229018.04   -21085.364    1597.3965    -22682.76   -191.25148    127.44815    78.597343    15.885015    29.619685 
   12000    249.06755   -357.11478    229018.04   -21030.884    1649.6641   -22680.548   -897.23668    130.56554    78.596837    15.883363    29.620175 
   12200    239.11998   -255.24945    229018.04   -21132.622    1583.7777     -22716.4   -530.88364    133.04765    78.595478    15.884157    29.632346 
   12400    242.50345   -352.52465    229018.04   -21052.247    1606.1877   -22658.435   -882.09045    134.52152    78.596019    15.884439    29.646032 
   12600    240.35297   -275.63193    229018.04   -21007.195    1591.9442   -22599.139   -569.97352    133.34437    78.597048    15.883701    29.650446 
   12800      240.087   -236.50562    229018.04   -21107.455    1590.1826   -22697.638   -413.33413    135.11161    78.597432    15.885643    29.637236 
   13000    242.31972   -331.95558    229018.04   -21169.141    1604.9707   -22774.112   -829.86627    136.53129    78.596001    15.886523    29.638685 
   13200    240.96058   -413.48931    229018.04   -21126.118    1595.9686   -22722.086   -1102.9972    137.48272    78.594342    15.890754    29.634995 
   13400    242.20744   -178.46484    229018.04   -21075.213     1604.227    -22679.44   -216.82837    138.29492    78.594375    15.894813    29.622067 
   13600    238.95696   -196.99249    229018.04   -21116.487     1582.698   -22699.185   -312.93426    140.58369    78.593054    15.894061    29.613349 
   13800    237.34807   -369.74241    229018.04   -21164.293    1572.0417   -22736.335   -944.81865    142.92294    78.591044    15.894456    29.626032 
   14000    239.53461   -66.283186    229018.04   -21152.237    1586.5239   -22738.761    223.82513    141.72974    78.589487    15.895936    29.624866 
   14200    234.43536   -288.59266    229018.04   -21197.931    1552.7498   -22750.681   -613.57353    142.84425    78.586773    15.896982    29.631618 
   14400     236.3564   -314.66577    229018.04    -21206.81    1565.4735   -22772.284   -753.05989    145.39035    78.589163    15.898535    29.642979 
   14600    239.58075   -341.55039    229018.04   -21151.976    1586.8295   -22738.806   -839.75961    148.48762    78.586995    15.900867    29.637748 
   14800    240.33506   -100.16898    229018.04   -21120.897    1591.8256   -22712.722    121.75294    148.67557    78.586504    15.902107     29.63147 
   15000    237.36732   -478.45648    229018.04    -21105.25    1572.1692   -22677.419   -1362.9192    151.93981    78.586192    15.899508    29.647821 
   15200    235.12439   -63.228606    229018.04   -21181.415    1557.3135   -22738.729    256.11003    152.95568    78.585154    15.897707    29.646508 
   15400    242.06055   -352.43204    229018.04   -21105.679    1603.2542   -22708.933     -900.347    155.02709    78.583989    15.896397    29.644285 
   15600    236.99831   -241.26715    229018.04   -21185.564    1569.7251   -22755.289   -450.82388    155.29119     78.58217     15.89532    29.640878 
   15800    239.46838   -282.04862    229018.04   -21049.006    1586.0852   -22635.092   -598.50638    157.01701    78.582308    15.893887    29.640625 
   16000    236.21826   -311.30472    229018.04    -21096.31    1564.5586   -22660.869   -754.54258    157.57107     78.58232    15.895117    29.639654 
   16200    244.20391    -200.1435    229018.04   -20989.624    1617.4504   -22607.074   -303.68343    157.55815    78.583651    15.898653    29.649148 
   16400    249.82543    -185.3919    229018.04    -21019.84    1654.6837   -22674.524   -252.17855    156.96864    78.583391    15.900453    29.675148 
   16600    231.43096   -284.78066    229018.04   -21082.093    1532.8506   -22614.943   -653.14471    159.70691    78.581958     15.89854    29.671413 
   16800    247.23845   -355.92129    229018.04   -21076.142    1637.5492   -22713.692   -917.84795    161.71501    78.581417    15.897611    29.655827 
   17000    245.57011   -299.09971    229018.04   -21101.579    1626.4992   -22728.078   -664.00423    164.24826     78.58092     15.89998    29.651646 
   17200    239.52598   -451.43665    229018.04    -21123.31    1586.4668   -22709.777   -1222.3244    166.22143    78.581984    15.900607    29.628782 
   17400    242.08439   -373.81297    229018.04    -21061.69     1603.412   -22665.102   -949.20676    166.38378     78.58286    15.899498    29.635414 
   17600    241.39442   -184.84138    229018.04    -20965.74    1598.8421   -22564.582   -255.58659    168.42876    78.581852    15.899433    29.629871 
   17800    237.92676   -273.60781    229018.04   -21011.473    1575.8746   -22587.348   -582.49389    169.24781    78.582823    15.897853    29.644119 
   18000    244.43433   -242.29535    229018.04    -21025.72    1618.9766   -22644.697   -450.67437     170.6829    78.584148     15.89756    29.627798 
   18200    237.87304    -346.4091    229018.04   -21036.723    1575.5187   -22612.241   -884.53848    173.30479    78.584522     15.89712    29.634172 
   18400    239.77135   -242.07092    229018.04   -21093.045     1588.092   -22681.137   -443.04234    174.09102    78.584331    15.897618    29.653794 
   18600     242.9796   -249.68874    229018.04   -21058.166    1609.3414   -22667.507   -478.82163    175.56347    78.585502    15.897765    29.658499 
   18800    241.33163   -278.10659    229018.04   -21092.742    1598.4263   -22691.168   -611.74667    176.74449    78.585177    15.895303    29.668936 
   19000    235.79345   -458.03998    229018.04   -21084.821    1561.7449   -22646.566   -1266.7466    178.30025    78.586315    15.894477    29.673248 
   19200    241.00503   -181.71053    229018.04   -21071.876    1596.2631   -22668.139   -200.22878    179.04193    78.586794    15.895029    29.657114 
   19400    240.66159   -275.59231    229018.04   -21038.352    1593.9884   -22632.341   -557.07851    179.93844    78.589132    15.893415    29.657544 
   19600    237.51844   -254.55547    229018.04    -21061.12    1573.1701    -22634.29   -508.48618    181.83559    78.589934    15.892108    29.662061 
   19800    243.13366   -89.878251    229018.04   -21091.979    1610.3617   -22702.341    134.62827    180.87629    78.590547    15.894424    29.644007 
   20000    235.04636   -332.54767    229018.04   -21138.816    1556.7966   -22695.612   -830.04307    182.15915    78.589943    15.894732    29.643107 
   20200    234.91962   -490.24397    229018.04   -21087.336    1555.9572   -22643.293   -1404.0789    183.07961    78.589096     15.89396    29.629966 
   20400    231.52705    -306.0369    229018.04   -21195.439     1533.487   -22728.926   -698.68167    181.83994    78.587433    15.894961     29.62778 
   20600    236.87761   -61.379858    229018.04   -21141.568    1568.9257   -22710.494    269.98127    183.32591     78.58678    15.896043    29.631087 
   20800    236.24971    -436.8732    229018.04    -21115.67    1564.7669   -22680.437   -1208.6447    184.91749    78.587256    15.895067     29.64925 
   21000    236.08401   -353.23819    229018.04   -21112.373    1563.6694   -22676.042   -853.90894    186.36719    78.586862    15.893969    29.657486 
   21200    241.10411   -237.63156    229018.04   -21050.333    1596.9193   -22647.252   -431.02024    185.57617    78.589835    15.891923    29.641228 
   21400    244.17742   -235.38669    229018.04   -21159.742    1617.2749   -22777.017    -403.4744    186.96386    78.590299    15.891742    29.641138 
   21600    244.18121   -292.32337    229018.04   -21094.972    1617.3001   -22712.272   -632.92222    188.42429    78.590465    15.891887    29.643645 
   21800      241.324   -306.58625    229018.04     -21082.3    1598.3757   -22680.675   -697.71392    189.41534    78.591208    15.892268    29.627926 
   22000    238.49733   -428.95357    229018.04   -21094.312    1579.6537   -22673.965   -1173.3542    190.54642    78.593755    15.891428    29.626262 
   22200    242.23227   -256.14775    229018.04   -21086.775    1604.3915   -22691.166   -503.12101    190.85603    78.596566    15.891583    29.600734 
   22400    238.63764   -438.26649    229018.04   -21090.421     1580.583   -22671.004   -1235.8416    193.58923      78.5974    15.891097    29.593376 
   22600    236.98158   -258.07142    229018.04   -21090.688    1569.6143   -22660.303   -522.07991    195.90434    78.596289    15.892499    29.595313 
   22800    235.84462   -295.49067    229018.04   -21055.746    1562.0838   -22617.829   -665.43905    198.18379    78.595163    15.893803    29.610959 
   23000    232.36609   -157.59914    229018.04    -21120.29    1539.0442   -22659.335   -76.921659     200.4228    78.596153    15.896376    29.601083 
   23200    242.02953   -336.15869    229018.04   -21148.665    1603.0487   -22751.714   -787.72192    201.13172    78.595779    15.894777    29.616588 
   23400    240.91714   -380.87007    229018.04     -21075.4     1595.681   -22671.081   -986.59735    202.34458     78.59477    15.898783    29.605253 
   23600    232.45138   -297.70803    229018.04   -21203.366    1539.6091   -22742.975   -640.55768     203.3219    78.592756    15.899467    29.602856 
   23800    230.24958   -324.72598    229018.04   -21200.731    1525.0258   -22725.756   -770.64991    204.71007    78.591351    15.902823    29.626158 
   24000    242.67194   -330.06252    229018.04   -21086.879    1607.3036   -22694.183   -790.94658    205.14806    78.589621    15.905981    29.645263 
   24200    234.32474   -292.07016    229018.04   -21118.388    1552.0171   -22670.405    -610.7215    206.42139    78.590223    15.909187    29.661479 
   24400    239.80675   -141.20548    229018.04   -21063.683    1588.3264    -22652.01   -30.034687    208.61348    78.591576    15.911055    29.655995 
   24600    242.24666   -291.68665    229018.04   -21090.233    1604.4868    -22694.72   -637.30315      210.735    78.591834    15.911176    29.664602 
   24800    237.59324   -373.28755    229018.04   -21088.336    1573.6656   -22662.002   -969.63695    211.99711    78.592814     15.91049    29.663052 
   25000    240.89407    -287.1147    229018.04   -21089.737    1595.5281   -22685.265   -646.01945    211.55612    78.594224    15.912698    29.645206 
   25200    237.74897   -225.28571    229018.04   -21076.304     1574.697   -22651.001    -369.5323    213.47755    78.594234    15.917785    29.659415 
   25400    241.42989   -206.51859    229018.04   -21100.448    1599.0771   -22699.525   -305.29597    214.83676    78.593922    15.923195    29.673324 
   25600     237.5062   -465.09552    229018.04   -21012.022    1573.0891   -22585.111   -1303.3107     216.6841    78.592024    15.926256    29.680238 
   25800      244.101   -243.62811    229018.04   -21055.649    1616.7688   -22672.418   -451.62917     218.4347    78.592393    15.925648    29.693736 
   26000    240.57177   -327.91115    229018.04   -21154.884    1593.3934   -22748.277   -769.65182    219.66547    78.594378     15.92683    29.697354 
   26200     232.4627   -242.90935    229018.04   -21111.387    1539.6841   -22651.071   -458.05976    222.13428    78.595194    15.927174     29.70005 
   26400    235.71212   -197.11018    229018.04   -21204.344    1561.2062    -22765.55   -227.20866    223.05361    78.596177    15.926041    29.688788 
   26600    238.91406   -203.03976    229018.04   -21158.544    1582.4138   -22740.958   -267.29134    225.37852    78.596049     15.92629    29.666506 
   26800    240.36631   -324.42019    229018.04   -21111.114    1592.0326   -22703.147   -765.46799    227.17267    78.595739    15.925793    29.673425 
   27000    235.89361   -205.46908    229018.04   -21082.814    1562.4083   -22645.223   -284.81102    227.36266    78.595433    15.926941    29.680028 
   27200    240.56582   -276.56871    229018.04   -21021.636     1593.354    -22614.99   -599.09806    227.87865     78.59593    15.926347    29.668951 
   27400    237.99326    -478.2524    229018.04    -21093.04     1576.315   -22669.355   -1359.1591    227.62343    78.597747    15.928966    29.670093 
   27600    240.74449   -55.854053    229018.04   -21113.616    1594.5374   -22708.153    260.96293    227.87611    78.598632    15.927839     29.67024 
   27800    234.10474   -291.36378    229018.04   -21218.807      1550.56   -22769.367   -645.64156    229.24115    78.598846    15.925808    29.677504 
   28000    231.55842   -255.22267    229018.04   -21157.217    1533.6948   -22690.911   -484.02024    230.79103    78.598697    15.928376    29.660772 
   28200    248.20474   -395.98481    229018.04    -21056.46    1643.9493   -22700.409   -1031.2151    232.82945    78.597414    15.929345     29.66326 
   28400    241.47691   -248.69935    229018.04   -21063.056    1599.3885   -22662.445   -526.94222     232.8918    78.596481     15.93084     29.66316 
   28600    241.71428   -280.89999    229018.04   -21040.864    1600.9607   -22641.824   -581.26382    234.34429    78.597069    15.930252    29.684394 
   28800     240.5585   -427.25901    229018.04   -21108.711    1593.3056   -22702.017   -1206.7061    234.81526    78.597113    15.930175    29.690443 
   29000    236.59515   -394.12907    229018.04   -21093.753    1567.0548   -22660.808   -1049.1461    237.74375     78.59777    15.927228    29.698122 
   29200    240.09732   -399.56681    229018.04   -21134.616     1590.251   -22724.867   -1099.2135    239.14881    78.597142    15.927134    29.717003 
   29400    242.69301   -248.19559    229018.04   -21069.859    1607.4432   -22677.302   -486.26914    239.64674    78.597973    15.926508    29.719965 
   29600    237.51499   -223.70246    229018.04   -21082.244    1573.1473   -22655.391   -373.11469    239.48442    78.598986    15.924362    29.705069 
   29800    235.96265     -249.938    229018.04   -21071.807    1562.8655   -22634.672   -516.75834    238.30713    78.597856    15.921648    29.712663 
   30000     239.7289   -352.09803    229018.04   -21091.861    1587.8108   -22679.672   -913.59118    240.17169    78.599703    15.921728    29.720947 
   30200    238.35584   -52.884393    229018.04   -21120.836    1578.7165   -22699.552    298.30102    239.82115    78.600631    15.924149     29.72735 
   30400    240.44953     -305.727    229018.04   -21159.818    1592.5838   -22752.402   -722.50752     241.6408    78.598368    15.923371    29.725649 
   30600    231.45936   -153.23448    229018.04   -21248.476    1533.0386   -22781.514   -62.502882    241.91227    78.599485    15.925409    29.713285 
   30800     242.2549   -355.04948    229018.04    -21128.15    1604.5414   -22732.691   -899.71179    242.93784    78.599225    15.927432    29.749189 
   31000    235.87824   -315.34824    229018.04    -21074.78    1562.3065   -22637.087   -728.80419    244.39855    78.598443    15.928363    29.771323 
   31200    245.73414   -289.33321    229018.04   -21035.111    1627.5857   -22662.696   -662.94731    245.71457    78.598747    15.928731    29.789345 
   31400    247.68829   -385.08933    229018.04    -21060.47    1640.5287   -22700.998      -1038.9    246.78912    78.600358    15.929045    29.774357 
   31600    243.60608   -396.66566    229018.04   -21031.751    1613.4908   -22645.242   -1060.7573    249.28555    78.602714    15.929735    29.766532 
   31800     244.6989   -143.29825    229018.04   -21097.456    1620.7289   -22718.185    -51.29363    251.84231     78.60207    15.931636    29.781414 
   32000    242.61143   -229.12595    229018.04   -21067.624    1606.9028   -22674.527   -394.68475    253.53385    78.604078    15.931027    29.782793 
   32200    237.70282     -377.913    229018.04   -21129.725    1574.3913   -22704.116    -972.8987    254.06255    78.604765    15.927811    29.781261 
   32400    239.08978   -329.71251    229018.04   -21116.615    1583.5777   -22700.193   -839.19165    255.27139    78.606045    15.925172    29.784764 
   32600    240.65119   -386.16685    229018.04       -21128    1593.9194   -22721.919   -1026.3656    254.60421    78.606844    15.926241    29.801697 
   32800    233.35845   -172.62226    229018.04    -21111.39     1545.617   -22657.007   -192.73366     256.7389    78.605815    15.927569    29.790413 
   33000    238.49215   -296.74091    229018.04   -21093.929    1579.6193   -22673.548   -662.93802    259.68087    78.605979    15.926966    29.794444 
   33200    238.64309   -256.81869    229018.04   -21088.155    1580.6191   -22668.774   -542.29741    260.95087    78.605134     15.92584    29.793982 
   33400     238.2111   -305.53814    229018.04    -21063.67    1577.7579   -22641.428   -727.18461    260.69259    78.606132    15.923097    29.780149 
   33600    233.73604   -310.87981    229018.04   -21147.686    1548.1179   -22695.804    -717.6833    262.46748    78.608827    15.921107    29.761484 
   33800     236.8084   -175.91741    229018.04    -21079.27    1568.4673   -22647.737   -186.14802    262.69724    78.608471    15.923471    29.757338 
   34000    241.22621   -248.08238    229018.04   -21150.326     1597.728   -22748.054   -471.83948    263.20019    78.606261    15.926143    29.764833 
   34200    242.60164     36.04243    229018.04   -21137.159     1606.838   -22743.997    629.70577    265.40702    78.603676    15.929235    29.745401 
   34400    233.51198   -317.04947    229018.04   -21145.859    1546.6339   -22692.493   -775.58952    268.86647    78.603338    15.928676    29.740349 
   34600    228.91412   -372.34686    229018.04   -21129.375    1516.1806   -22645.555    -993.4564    269.45694     78.60478    15.929093    29.752047 
   34800    237.37581   -238.40175    229018.04   -21096.929    1572.2254   -22669.155   -429.69925    270.33989    78.606852    15.927508    29.732119 
   35000      239.221   -261.11821    229018.04   -21099.713    1584.4468    -22684.16   -527.96603    271.62646    78.607705    15.927021       29.706 
   35200     240.7232   -218.17013    229018.04   -21098.328    1594.3964   -22692.725   -371.20028    272.34962    78.607081    15.928141    29.684329 
   35400    243.83343   -459.14881    229018.04   -21019.568    1614.9966   -22634.565   -1290.4889    273.53949    78.607198    15.927423    29.681312 
   35600    228.21914    -217.2221    229018.04   -21131.163    1511.5775   -22642.741   -356.33332    272.34075     78.60685    15.926365    29.687094 
   35800    243.41565   -479.71559    229018.04   -21060.491    1612.2295   -22672.721   -1421.4374    272.80308    78.607117     15.92624    29.693767 
   36000    235.44005   -228.01866    229018.04    -21147.97    1559.4042   -22707.374   -396.17502    272.54365    78.607821    15.926438    29.712606 
   36200    236.21137   -273.90295    229018.04   -21163.963    1564.5129   -22728.476     -559.407    274.45391    78.609159    15.924897    29.698241 
   36400    240.97904   -131.88438    229018.04   -21109.642    1596.0909   -22705.733   -33.707099     274.9118    78.608407     15.92656      29.6969 
   36600    234.02677   -266.64748    229018.04   -21141.119    1550.0435   -22691.163   -517.99302    276.32734    78.609034    15.927231    29.714438 
   36800    233.63782   -195.24116    229018.04   -21139.036    1547.4674   -22686.503   -295.32969    277.09063    78.607865    15.925593    29.719253 
   37000    239.64816   -228.40553    229018.04   -21050.079     1587.276   -22637.355   -366.29849    276.53241     78.60696    15.924629    29.728748 
   37200    238.51847   -381.08426    229018.04   -21168.652    1579.7937   -22748.446   -1015.2361    277.70416    78.608845    15.925609    29.752623 
   37400    237.50507    -350.6937    229018.04   -21121.982    1573.0816   -22695.063   -873.63618     279.4352    78.609016    15.925025    29.781787 
   37600     241.3859   -431.68987    229018.04   -21087.331    1598.7857   -22686.117   -1179.0607    281.91864    78.609192    15.924604    29.763188 
   37800    230.93295   -353.18602    229018.04   -21185.002     1529.552   -22714.554   -917.98044    281.53566    78.608153    15.924532    29.742624 
   38000    243.62206   -462.64373    229018.04   -21096.723    1613.5966    -22710.32   -1314.7406    283.69041    78.609684    15.924444    29.742847 
   38200    240.79474   -325.18256    229018.04   -21112.681    1594.8702   -22707.551   -780.23273    284.57097    78.608503    15.925962    29.734325 
   38400    237.36226   -217.34944    229018.04   -21157.029    1572.1357   -22729.165    -352.0121    284.06073    78.607966    15.924729     29.73713 
   38600    242.35271   -383.36769    229018.04   -21151.002    1605.1892   -22756.191   -1008.8862    284.62491    78.609377    15.925351      29.7209 
   38800    239.02772   -280.19687    229018.04   -21139.446    1583.1666   -22722.612   -586.80138    283.53637    78.609188    15.925788    29.683505 
   39000    237.01349    -299.7582    229018.04   -21104.112    1569.8256   -22673.938   -678.73086    286.40369     78.60802    15.925185    29.680438 
   39200    235.87726   -251.31665    229018.04   -21218.794       1562.3   -22781.094   -483.14026    288.11071     78.60807    15.924585    29.659099 
   39400       233.77   -305.00954    229018.04   -21172.927    1548.3429   -22721.269     -668.587    291.19497    78.608415    15.927438    29.657129 
   39600    238.48343   -318.80804    229018.04   -21178.923    1579.5616   -22758.485   -780.37556    292.46129    78.606465     15.92667    29.642662 
   39800    242.92665   -222.74343    229018.04   -21017.064    1608.9907   -22626.055   -350.25963    293.35349    78.606563    15.925039     29.63503 
   40000    235.54421   -171.33382    229018.04   -21129.128    1560.0941   -22689.222    -204.2312    292.91294     78.60635    15.925093    29.633891 
   40200    231.16174   -132.92422    229018.04   -21190.219    1531.0674   -22721.286   -7.4018758    294.12412    78.607155    15.924457    29.658386 
   40400    246.09917   -451.59256    229018.04   -21050.532    1630.0034   -22680.535   -1270.3305    294.53723    78.608997    15.923068    29.664482 
   40600    232.32037   -353.52095    229018.04   -21170.877    1538.7414   -22709.618    -873.7259    296.36629    78.610533    15.924551    29.686922 
   40800    235.12846   -295.59597    229018.04    -21130.95    1557.3404   -22688.291   -669.31299    297.92924    78.610378    15.924268    29.659203 
   41000    238.46017   -261.77666    229018.04   -21053.507    1579.4076   -22632.914   -585.94201    298.04774     78.61014    15.924363    29.662191 
   41200    238.35089   -404.75352    229018.04   -21017.818    1578.6837   -22596.501   -1143.9147    300.66988    78.610536    15.926372    29.654754 
   41400     239.9927   -452.54647    229018.04   -21078.399     1589.558   -22667.957   -1308.9853    303.09374    78.611531    15.926059    29.667262 
   41600    244.86754   -309.87336    229018.04   -20982.182    1621.8459   -22604.028   -753.36986    303.99369    78.613563    15.928776    29.665575 
   41800    238.38841    -354.7844    229018.04    -21051.74    1578.9322   -22630.672   -923.24456    305.19614    78.612499    15.927611    29.681171 
   42000    239.39492   -302.49601    229018.04   -21080.128    1585.5987   -22665.727   -736.93467    306.10992    78.614687    15.931326    29.682354 
   42200     237.4955   -257.82443    229018.04   -21072.634    1573.0182   -22645.652   -517.43207    306.99774    78.615556    15.931359    29.679064 
   42400     238.1766   -346.19911    229018.04   -21086.579    1577.5293   -22664.108   -854.49908    307.85934    78.615711     15.93399    29.672177 
   42600    240.67639   -264.44815    229018.04   -21158.284    1594.0864    -22752.37   -553.05269    309.57822    78.613859    15.933079    29.666939 
   42800    238.60868   -212.83152    229018.04   -21083.171    1580.3912   -22663.562   -332.38663    310.80919    78.612208    15.931904    29.672624 
   43000    242.42258   -309.21275    229018.04   -21034.105     1605.652   -22639.757   -720.24238    312.05001    78.613713     15.93153    29.666249 
   43200    242.12665   -153.31412    229018.04   -21070.813     1603.692   -22674.505     -110.885      314.277    78.614233    15.928357    29.657616 
   43400    235.48391   -313.07193    229018.04   -21108.704    1559.6947   -22668.399   -744.48283    316.06185    78.612884    15.923731    29.651636 
   43600    236.18038   -205.66326    229018.04   -21129.749    1564.3077   -22694.056   -335.26917    315.48589    78.610911    15.920041    29.643475 
   43800    242.94796   -299.21352    229018.04   -21060.252    1609.1318   -22669.384   -726.82674    317.08336    78.610453     15.91984    29.639916 
   44000    241.23392   -159.54318    229018.04   -21148.995     1597.779   -22746.774   -128.32673    318.81392    78.609094    15.920524    29.643366 
   44200    238.28255   -223.81303    229018.04   -21094.697    1578.2311   -22672.928   -391.21475    321.20886    78.607969    15.919801    29.648236 
   44400    243.01134   -79.441719    229018.04   -21055.132    1609.5516   -22664.684     166.4481    320.76401    78.606948    15.918511    29.677313 
   44600    243.89242   -381.58327    229018.04   -21064.766    1615.3873   -22680.154    -1035.904    323.18949    78.607045    15.918863    29.679833 
   44800    235.82366   -256.25631    229018.04    -21115.59     1561.945   -22677.535   -510.59813    325.90073    78.606883    15.918541    29.706541 
   45000    237.79075   -360.89964    229018.04   -21124.139    1574.9737   -22699.113   -931.72013    327.12955    78.609159    15.919097    29.707119 
   45200    250.54089   -254.13078    229018.04    -20990.71    1659.4225   -22650.132   -558.48829    327.16248    78.611697    15.919179    29.699109 
   45400    249.42406   -327.79759    229018.04   -20936.824    1652.0253   -22588.849    -813.9131    328.84354    78.611573    15.917119    29.698347 
   45600    248.05329    -325.9942    229018.04   -20928.825    1642.9462   -22571.771   -755.59439    329.75752    78.611111    15.913786    29.683544 
   45800    240.91173   -304.05758    229018.04   -21025.884    1595.6451   -22621.529   -708.78716     330.9898    78.612377    15.911072    29.701936 
   46000    243.66101   -306.93427    229018.04   -21036.111    1613.8546   -22649.966   -730.30434    331.62856    78.613918    15.909273    29.707817 
   46200    239.87319    -267.9208    229018.04   -21019.609    1588.7665   -22608.375   -560.20643    332.53425     78.61374    15.906078    29.701339 
   46400    247.10626    -353.6713    229018.04   -21039.406    1636.6737   -22676.079   -882.43037     335.1056     78.61256     15.90377    29.692438 
   46600    240.99569   -191.80622    229018.04    -21099.79    1596.2012   -22695.991   -277.60905    338.15962    78.612313     15.90359    29.673642 
   46800    239.43953   -420.41987    229018.04   -21054.606    1585.8942     -22640.5   -1157.0131    341.10276    78.611901    15.901269    29.699415 
   47000    247.24097   -230.46545    229018.04   -21005.355    1637.5659   -22642.921   -387.50786    343.61149    78.608898    15.904095    29.709949 
   47200    241.73741   -284.38849    229018.04   -21089.946    1601.1139    -22691.06   -590.27616    344.56081    78.609891    15.906422    29.697549 
   47400    237.39267   -368.06823    229018.04   -21158.849    1572.3371   -22731.186   -959.81688    346.36108    78.609649    15.904764     29.71278 
   47600    247.02719   -332.41845    229018.04   -21085.525      1636.15   -22721.675   -774.50926    347.20811    78.609022    15.902784    29.710617 
   47800    236.21209    -212.7768    229018.04    -21092.06    1564.5177   -22656.578   -339.80328    346.59589    78.608967    15.903263    29.708391 
   48000    245.55237   -416.11003    229018.04   -21082.258    1626.3818   -22708.639   -1174.8195    348.83723    78.608366    15.902035    29.718971 
   48200    236.12116   -273.44247    229018.04   -21085.046    1563.9154   -22648.961   -550.87741    349.09328    78.607542    15.902331    29.732652 
   48400    236.93404   -239.96177    229018.04   -21107.594    1569.2995   -22676.893   -446.13418     351.1995     78.60714    15.903232    29.714595 
   48600    241.36652   -228.34044    229018.04   -21072.233    1598.6573    -22670.89   -429.81445    352.11226    78.605985    15.904305    29.704567 
   48800    236.20101    -383.3606    229018.04    -21025.47    1564.4443   -22589.914   -989.52842    355.55836    78.605883    15.905375    29.700169 
   49000    236.70094    -361.7173    229018.04   -21061.392    1567.7555   -22629.148   -922.87694     356.8692    78.607436    15.905277    29.686395 
   49200    239.22001   -212.25803    229018.04   -21031.001    1584.4402   -22615.441   -332.03197    357.27277    78.607926    15.905839    29.677443 
   49400    245.83724   -338.04082    229018.04   -21030.248    1628.2685   -22658.517   -805.84413    360.33201    78.608626     15.90635     29.67045 
   49600    239.04569   -194.10037    229018.04   -21087.659    1583.2857   -22670.945   -284.92445    360.21042    78.608002    15.905691      29.6571 
   49800    241.26662   -155.05574    229018.04   -21145.373    1597.9957   -22743.368   -104.36851    362.14934    78.608859    15.903609     29.64559 
   50000    239.04338   -164.49053    229018.04   -21134.065    1583.2703   -22717.335   -142.44891    363.57033    78.609053    15.903938    29.639062 
   50200    240.76975   -226.59009    229018.04   -21149.546    1594.7047   -22744.251   -358.94551    364.32609    78.611004    15.904926    29.661519 
   50400    239.27857   -152.79083    229018.04   -21154.034    1584.8281   -22738.862   -107.19572    365.19646    78.608756    15.902256    29.678574 
   50600    237.08216    -528.2881    229018.04   -21170.076    1570.2805   -22740.356   -1539.3367    366.70151    78.609017    15.901139    29.682738 
   50800     240.9633   -344.14269    229018.04   -21176.566    1595.9867   -22772.552   -871.00722     367.1193    78.608021    15.901239    29.680105 
   51000    237.91875   -248.31175    229018.04   -21157.591    1575.8215   -22733.412   -497.16561    368.69083    78.609268    15.900573    29.659431 
   51200    236.70724   -363.55897    229018.04   -21169.253    1567.7972    -22737.05   -916.20665    367.67508    78.607341    15.899768    29.650531 
   51400    237.31117   -301.31783    229018.04   -21202.289    1571.7973   -22774.086   -680.46626    368.64372    78.605985    15.897841    29.642723 
   51600    239.44684   -129.11562    229018.04   -21145.708    1585.9426   -22731.651   -2.3268706    369.17051    78.605758    15.897317     29.64198 
   51800    244.24828   -256.14255    229018.04   -21091.629    1617.7442   -22709.374   -547.92476    370.33938    78.606982    15.897633    29.656059 
   52000    239.29463    -317.7597    229018.04   -21040.155    1584.9344    -22625.09   -766.14865    372.61872    78.608964    15.899091    29.652684 
   52200    235.21526   -432.31603    229018.04   -21062.258    1557.9153   -22620.174   -1214.3613    375.63211     78.60965    15.899632    29.642451 
   52400    235.52325   -163.47033    229018.04   -21106.505    1559.9553    -22666.46   -140.46827    374.76879    78.610418     15.90074    29.635501 
   52600    242.63487    -238.4264    229018.04   -21084.776    1607.0581   -22691.834   -452.23998    374.73166    78.610457    15.900675    29.623418 
   52800    238.11904   -321.78999    229018.04   -21154.754    1577.1481   -22731.902   -750.93425    375.02393    78.611741    15.900516    29.620543 
   53000    238.61664   -122.28691    229018.04   -21100.883    1580.4439   -22681.327    26.327189    377.71978     78.61121    15.899901     29.62669 
   53200    239.09743   -294.25816    229018.04   -21095.741    1583.6284   -22679.369   -668.76251    379.04202    78.612682    15.898859    29.600291 
   53400    236.74994   -367.54817    229018.04   -21085.673    1568.0801   -22653.753   -942.56174    380.12941    78.614509    15.897587    29.584392 
   53600    243.64974   -375.28328    229018.04   -21054.256    1613.7799   -22668.036   -983.64641    381.59703    78.615532    15.899491    29.602334 
   53800    238.17706    -235.6143    229018.04   -21096.576    1577.5324   -22674.108   -452.71942    383.49587     78.61343    15.898504    29.587615 
   54000    245.17885   -488.55404    229018.04   -20994.524    1623.9078   -22618.432   -1417.5206    384.63533    78.612682    15.897103    29.619141 
   54200    241.50017   -77.862586    229018.04   -21073.334    1599.5425   -22672.876    214.94962    385.24983    78.612665    15.896035    29.619114 
   54400     235.9277   -217.11228    229018.04   -21127.323    1562.6341   -22689.957   -341.52805    386.76124    78.614662    15.891906    29.629363 
   54600    240.92759   -305.61875    229018.04    -21073.16    1595.7502    -22668.91   -671.73645    388.53854    78.614697    15.889946    29.652107 
   54800    244.06556   -283.69423    229018.04    -21081.67    1616.5341   -22698.204   -585.54238    388.62438    78.613133    15.890579    29.650166 
   55000    240.58425   -311.15357    229018.04    -21136.37    1593.4761   -22729.846   -731.77911    393.12962    78.611775    15.890108    29.648104 
   55200    249.71101    -234.0957    229018.04   -21095.882    1653.9259   -22749.808   -412.35891    394.50158    78.612813    15.888668      29.6594 
   55400    241.24702   -254.05507    229018.04   -21096.343    1597.8658   -22694.209   -491.36149    395.04869    78.614281    15.890262    29.662193 
   55600    244.43203    -323.3577    229018.04   -21025.471    1618.9613   -22644.432    -786.1893    396.28765     78.61675    15.890586     29.66634 
   55800    244.35654   -304.38826    229018.04   -21120.576    1618.4613   -22739.037   -719.33235      395.918    78.614271    15.887079    29.667105 
   56000    238.96138   -213.29414    229018.04    -21111.09    1582.7272   -22693.817     -344.568    396.30642    78.613349    15.884149    29.665507 
   56200    246.02119   -218.75704    229018.04   -21039.649    1629.4869   -22669.136   -358.86376    396.75961    78.615256    15.883212    29.646567 
   56400    241.45781   -276.59726    229018.04   -21054.676     1599.262   -22653.938   -578.57067    398.93565    78.615755     15.88035    29.646794 
   56600    239.23762   -428.04166    229018.04   -21197.662    1584.5569   -22782.219   -1163.5119    398.74689    78.614473    15.882523    29.635207 
   56800    234.51523   -334.54898    229018.04    -21183.72    1553.2787   -22736.999   -841.01082    398.50385    78.614441    15.884134    29.613211 
   57000    232.49432     -241.669    229018.04   -21235.798    1539.8936   -22775.692   -422.47919    399.28244    78.615278    15.883283    29.599954 
   57200    238.32373   -363.00491    229018.04    -21210.39    1578.5039   -22788.894   -909.91604    399.04655    78.615374    15.880537     29.60753 
   57400    229.70288   -201.12071    229018.04   -21210.523    1521.4049   -22731.928   -306.07416    399.90576     78.61476    15.878479    29.611879 
   57600    241.98145   -364.36078    229018.04   -21111.435    1602.7302   -22714.165   -931.91622    400.61313    78.614558    15.877939    29.611809 
   57800      240.523   -147.49182    229018.04   -21137.056    1593.0704   -22730.127   -121.14221    400.77005    78.614944    15.880026    29.610078 
   58000    233.67591   -354.71261    229018.04   -21106.991    1547.7197   -22654.711    -897.0676    400.98639    78.613244     15.87659    29.610088 
   58200    241.40388   -265.72934    229018.04   -21103.742    1598.9048   -22702.646   -544.00696    400.74922    78.610662    15.876862    29.620991 
   58400    237.05431   -299.91619    229018.04   -21180.323     1570.096   -22750.419    -679.3239    401.42241    78.609058    15.876591    29.622642 
   58600    238.87577   -264.23143    229018.04   -21141.019    1582.1602   -22723.179   -534.02837    402.58108    78.610282    15.877114    29.633913 
   58800    239.54427   -111.51106    229018.04   -21207.008    1586.5879   -22793.596    91.497627    404.89595    78.611472    15.877902    29.653604 
   59000    239.78523   -414.10608    229018.04   -21217.342    1588.1839   -22805.526   -1125.9074    404.00605    78.613428    15.878672    29.650946 
   59200    232.52176    -291.6777    229018.04   -21217.399    1540.0753   -22757.474   -663.74936    404.65964     78.61497    15.877941    29.638996 
   59400    240.53583   -112.37349    229018.04   -21182.735    1593.1554   -22775.891    93.826785    405.25251    78.615636    15.880068    29.653195 
   59600    241.32304   -318.31978    229018.04   -21080.913    1598.3693   -22679.282   -733.48343    406.34408    78.615433    15.882465    29.646906 
   59800    244.68796    -203.6305    229018.04   -21052.896    1620.6564   -22673.552   -324.05222    406.80116    78.615494    15.883256    29.629181 
   60000    238.89663   -288.69464    229018.04   -21165.844    1582.2984   -22748.142   -632.99139    409.26581    78.614808    15.883954    29.642442 
   60200    244.93575    -434.6225    229018.04   -21066.828    1622.2977   -22689.126   -1212.0656    411.49036    78.615671     15.88281     29.64336 
   60400    240.82894   -197.85607    229018.04   -21133.518    1595.0967   -22728.615   -280.35083    412.11979    78.620439    15.884745    29.628181 
   60600    237.72806   -368.67567    229018.04    -21140.86    1574.5585   -22715.419   -952.64806    411.93054    78.620857    15.885876    29.582112 
   60800    233.43086   -168.09054    229018.04   -21177.222    1546.0966   -22723.319   -186.75529    411.12523    78.621126    15.888626    29.574714 
   61000    235.49451   -326.48626    229018.04   -21180.967    1559.7649   -22740.732   -810.87742    411.06074    78.620442     15.88917    29.570076 
   61200    231.54134    -261.6464    229018.04   -21236.467    1533.5816   -22770.049     -500.164    410.46886    78.621384     15.88821    29.576538 
   61400    236.22038    -309.6943    229018.04   -21146.958    1564.5726    -22711.53   -703.09244    411.49672    78.623027    15.886672    29.589625 
   61600    244.20928   -372.04935    229018.04    -21112.88     1617.486   -22730.366   -963.29556    414.05777     78.62377    15.887313     29.58229 
   61800    242.67693   -238.07917    229018.04   -21085.448    1607.3366   -22692.785   -466.86128    415.46712    78.623104    15.885261    29.575938 
   62000    233.92568   -352.70684    229018.04   -21164.363     1549.374   -22713.737   -869.94888    418.20092    78.623512    15.887036    29.592431 
   62200     242.4501   -291.41702    229018.04   -21077.202    1605.8343   -22683.036   -635.97036    418.17823    78.622174    15.887491     29.58105 
   62400    247.37353   -413.35262    229018.04    -21004.12    1638.4439   -22642.564   -1115.3027    419.98476    78.624699    15.889627    29.593296 
   62600    239.27562     -242.205    229018.04   -21050.222    1584.8086    -22635.03   -450.52378    418.59021    78.622261     15.89114    29.595678 
   62800    247.67376   -330.85102    229018.04   -21062.304    1640.4324   -22702.736   -822.14645    418.28477     78.62131    15.892765    29.610591 
   63000    238.22498   -239.19611    229018.04   -21103.475    1577.8498   -22681.324   -435.39288    418.93701     78.62241    15.894064    29.607113 
   63200    233.81255   -283.16859    229018.04   -21234.626    1548.6247    -22783.25   -586.73521    419.53997    78.624053    15.894657    29.621172 
   63400    240.89883   -270.75621    229018.04   -21112.122    1595.5597   -22707.681   -560.62958    421.97991    78.624139    15.893524    29.610031 
   63600    239.98592   -206.68278    229018.04   -21114.927    1589.5131   -22704.441   -355.67942    422.47632    78.625161    15.892307     29.62339 
   63800    240.94284   -255.21999    229018.04   -21066.434    1595.8511   -22662.286   -495.10806    426.32133    78.625504    15.891715    29.615288 
   64000    233.22335   -337.39566    229018.04   -21141.912    1544.7222   -22686.634   -843.93451    426.71964    78.625543    15.892196    29.595279 
   64200    241.95859   -236.96286    229018.04    -21111.59    1602.5788   -22714.169    -443.1957    427.91962    78.623974    15.893091     29.60272 
   64400    237.61127   -321.79991    229018.04   -21074.533     1573.785   -22648.318    -781.0067    428.35367    78.625714    15.893724    29.598267 
   64600     238.3347   -258.56181    229018.04   -21105.648    1578.5765   -22684.224   -530.09653    428.71394    78.625933     15.89371    29.597384 
   64800    241.61268   -267.47353    229018.04   -21021.957    1600.2878   -22622.245   -508.47349    433.22436    78.629178    15.891333    29.594507 
   65000    236.93366   -378.95613    229018.04   -21107.882    1569.2969   -22677.179   -1000.6814    434.59863    78.633313    15.891803    29.598395 
   65200    239.74396   -324.04105    229018.04   -21130.376    1587.9105   -22718.287   -779.66235    436.94862     78.63341    15.890567     29.59331 
   65400    239.34493   -248.34148    229018.04   -21046.382    1585.2676   -22631.649   -478.34556    437.14447    78.633711     15.89251    29.587029 
   65600    241.67103   -231.32885    229018.04   -21060.827    1600.6742   -22661.501   -425.77009    438.27393    78.633946    15.895244    29.574027 
   65800      235.951   -414.85738    229018.04   -21141.815    1562.7884   -22704.604   -1133.6198    440.38881    78.634609    15.895359    29.562478 
   66000    235.23671   -198.95201    229018.04   -21166.225    1558.0574   -22724.282   -282.53125    439.90065    78.633636    15.891434    29.579489 
   66200    244.21175   -258.63813    229018.04    -21108.89    1617.5023   -22726.392   -508.10056    445.17666    78.635292    15.888945    29.574824 
   66400    239.16646   -274.78896    229018.04    -21164.73    1584.0855   -22748.815   -574.89572    445.29335    78.636099    15.889732    29.588777 
   66600    238.11331   -330.90884    229018.04   -21140.953    1577.1101   -22718.063   -801.75794    445.29836    78.635294    15.888819    29.607323 
   66800    236.37385   -298.51659    229018.04   -21211.289    1565.5891   -22776.878   -686.04618     446.8135    78.637823    15.890072    29.611035 
   67000     235.7805   -437.40698    229018.04    -21156.63    1561.6591   -22718.289   -1226.5546    449.33007    78.637748    15.893706    29.625162 
   67200    236.68148   -197.41399    229018.04   -21183.544    1567.6266   -22751.171   -284.92978    448.40624    78.638337     15.89697    29.631945 
   67400    244.45841   -395.76083    229018.04   -21118.509     1619.136   -22737.645   -1062.1548    450.52744    78.639771    15.901283    29.635434 
   67600    232.53726   -430.11872    229018.04   -21154.977     1540.178   -22695.155   -1191.4816    450.15055    78.639851    15.901677    29.628101 
   67800    242.42873   -313.55588    229018.04    -21119.97    1605.6928   -22725.662   -717.16135    450.70995     78.63838    15.902984    29.634636 
   68000    239.41551    -312.6503    229018.04   -21136.358    1585.7351   -22722.093   -748.18998    451.18614    78.640222     15.90499    29.636265 
   68200    239.72732    -209.6215    229018.04   -21171.826    1587.8003   -22759.626    -315.3816    450.91335     78.63943    15.906748    29.615064 
   68400    246.64121   -347.57978    229018.04   -21024.436    1633.5935   -22658.029   -868.93505    451.67596    78.636396    15.911793    29.591856 
   68600    245.43115   -211.34953    229018.04   -21064.577    1625.5789   -22690.156   -369.45798     454.6026    78.635472     15.91356    29.604721 
   68800    243.75851   -296.95633    229018.04   -21049.766    1614.5003   -22664.267   -707.53886    459.46794    78.634801    15.913194    29.596575 
   69000    244.85878   -365.29427    229018.04   -21034.704    1621.7878   -22656.492   -933.05718    460.60742    78.634442    15.915489    29.599819 
   69200    237.34066   -228.32143    229018.04    -21105.07    1571.9926   -22677.063   -435.42578    458.51268    78.635219    15.916018    29.637521 
   69400    238.09316   -158.28544    229018.04   -21103.755    1576.9767   -22680.731    -91.65061    460.01173    78.635741    15.916269    29.649816 
   69600    243.67356   -407.46551    229018.04   -21123.265    1613.9377   -22737.202   -1122.6255    462.00721    78.634609    15.918384    29.640655 
   69800    244.97675    -288.5227    229018.04   -21104.015    1622.5692   -22726.584   -621.95318    462.19324    78.633828    15.919061    29.661298 
   70000    241.59937   -430.80725    229018.04   -21143.622    1600.1996   -22743.822   -1269.2962    463.40737    78.633884    15.920946    29.648218 
   70200    235.39856   -306.20355    229018.04   -21131.552    1559.1294   -22690.681   -731.26153    463.99614    78.633096    15.922113    29.631913 
   70400    238.49069   -101.93462    229018.04   -21136.035    1579.6097   -22715.645    54.477148    464.14566    78.633149    15.921783    29.620594 
   70600    240.97893   -223.84739    229018.04   -21102.135    1596.0902   -22698.226   -412.35542    466.64239    78.633378    15.922593    29.613377 
   70800    238.94442   -333.49323    229018.04   -21136.397    1582.6149   -22719.012   -831.54824    470.11201    78.632724    15.923362    29.615648 
   71000    238.73744   -181.55879    229018.04   -21106.715     1581.244   -22687.959   -240.03996    472.53889    78.631219    15.923131    29.610716 
   71200    253.38895   -296.57844    229018.04   -20963.053    1678.2862   -22641.339   -674.48656    471.84117    78.631309     15.92142    29.607701 
   71400     244.7956   -178.41252    229018.04   -21046.605    1621.3693   -22667.974    -192.9915    471.50032    78.629638      15.9198    29.610988 
   71600    242.74476   -276.20973    229018.04   -21095.639    1607.7859   -22703.425   -555.11996      473.117    78.628634    15.918824    29.620159 
   71800    240.21756   -347.14254    229018.04   -21096.131    1591.0474   -22687.179   -884.38904    473.57399    78.628835    15.920026    29.610678 
   72000    240.64296   -206.73052    229018.04   -21090.455    1593.8649    -22684.32   -323.10513    474.64397    78.629724     15.92179    29.631476 
   72200    241.18688   -190.19657    229018.04   -21081.115    1597.4675   -22678.582   -288.50508    476.53636    78.630412    15.924352    29.637409 
   72400    240.09362   -122.35999    229018.04   -21039.919    1590.2264   -22630.145    16.592082    478.00483    78.631242    15.925903    29.638832 
   72600    240.31897   -275.74064    229018.04   -21086.174     1591.719   -22677.893   -587.21931    477.02872    78.631846    15.927571     29.62678 
   72800    244.95474   -339.09559    229018.04   -21124.147    1622.4234   -22746.571   -823.78986    478.45216    78.631908    15.928117     29.61095 
   73000    241.17864   -295.96407    229018.04    -21141.27    1597.4129   -22738.683   -665.59931    478.37327    78.632681    15.929231     29.58012 
   73200    243.84861   -255.53593    229018.04   -21033.632    1615.0971    -22648.73   -531.67603    481.38329    78.631916     15.92868    29.564767 
   73400    246.48898   -184.01658    229018.04   -21073.828    1632.5852   -22706.413   -241.80257    481.67879     78.63318    15.925962    29.554448 
   73600     244.0143   -50.670842    229018.04   -21103.492    1616.1945   -22719.687    320.10845    485.51795    78.634048    15.926604    29.561102 
   73800    245.72169    -246.1421    229018.04    -21064.14    1627.5032   -22691.643   -466.52625    485.90899    78.635189    15.926134    29.540501 
   74000    248.62507   -316.07983    229018.04    -20962.72    1646.7334   -22609.453   -764.03314    486.35877    78.635328    15.924083    29.521874 
   74200    237.40612    -328.5792    229018.04   -21046.277    1572.4262   -22618.703    -804.6299    486.20381    78.635388    15.920967     29.53263 
   74400    239.45988   -297.24142    229018.04   -21083.342     1586.029   -22669.371   -685.47268    487.57467    78.636278     15.92283    29.544667 
   74600    233.20744   -291.64877    229018.04   -21130.111    1544.6168   -22674.728   -673.23507    487.24157    78.637866    15.925401    29.570137 
   74800    244.24683   -283.06141    229018.04   -21085.814    1617.7347   -22703.549   -640.39327    487.53152    78.637945    15.922651    29.575457 
   75000    239.40044    -154.2509    229018.04   -21100.841    1585.6353   -22686.477   -116.52528    486.95779    78.636001    15.921117    29.564157 
   75200    237.18892   -268.51138    229018.04   -21087.085    1570.9876   -22658.072   -573.02746    488.35579     78.63568    15.921244    29.558916 
   75400    238.15586   -371.97715    229018.04   -21046.685     1577.392   -22624.077   -957.39332    489.23374    78.635952    15.918491    29.563205 
   75600    241.19422   -254.95543    229018.04   -21027.027    1597.5161   -22624.543   -496.71837    488.33721    78.637866    15.918972    29.555245 
   75800    238.89712   -273.86625    229018.04   -21084.689    1582.3016   -22666.991   -599.45272     487.6101    78.636585    15.919685    29.569299 
   76000    238.27365   -309.63001    229018.04   -21091.446    1578.1722   -22669.618   -725.23863    488.59395    78.635845       15.919    29.564026 
   76200    240.29732   -294.32276    229018.04   -21155.301    1591.5756   -22746.877   -647.68882    488.75656    78.634405    15.918169    29.561002 
   76400    230.80809   -337.54974    229018.04   -21196.733    1528.7251   -22725.458   -823.37215     490.2966    78.631906    15.917771    29.590096 
   76600    239.99067   -282.23794    229018.04   -21135.791    1589.5446   -22725.336   -626.01535    491.82693    78.633483     15.91564    29.611072 
   76800    242.62173   -466.97313    229018.04   -21057.312     1606.971   -22664.283   -1348.5117    492.11119     78.63338    15.916521    29.609961 
   77000    234.23094   -204.10714    229018.04   -21144.556    1551.3958   -22695.952   -328.56577    493.54562    78.633943    15.919082    29.596376 
   77200    237.61094   -363.46814    229018.04   -21136.154    1573.7828   -22709.937   -931.57098    494.22616    78.636311    15.921742    29.606583 
   77400    245.64462   -341.92681    229018.04   -21116.062    1626.9927   -22743.054    -842.9196    493.63529    78.637914    15.920977    29.610353 
   77600     238.2346    -184.3393    229018.04   -21101.908    1577.9135   -22679.822   -232.69624    493.26614    78.640783    15.919681    29.618694 
   77800     235.6207    -257.2878    229018.04   -21128.383    1560.6007   -22688.984   -534.63413     495.7429     78.64038     15.91809    29.638753 
   78000    236.13054   -370.70155    229018.04   -21180.132    1563.9775    -22744.11   -973.36241    497.81007    78.642209    15.918427    29.621624 
   78200    241.04675   -377.29506    229018.04   -21125.119    1596.5394   -22721.658   -976.43586    497.75415     78.64195    15.918075    29.622593 
   78400    237.99542   -256.66378    229018.04   -21101.354    1576.3293   -22677.684   -527.50536      500.172    78.643651     15.92041    29.616793 
   78600    244.54382   -270.04663    229018.04   -21152.948    1619.7018    -22772.65   -581.75532    502.72113    78.643901    15.921572    29.599807 
   78800    238.63767   -278.75256    229018.04   -21141.215    1580.5832   -22721.798   -642.36526    501.67041     78.64368    15.918943    29.586223 
   79000    236.05486   -195.43448    229018.04   -21080.301    1563.4763   -22643.777    -281.7124    502.56995    78.643585    15.916566    29.592577 
   79200    241.28849   -105.89811    229018.04   -21123.627    1598.1405   -22721.768    58.601281    503.70659    78.643404    15.915936      29.6144 
   79400    243.63577   -344.31756    229018.04    -21165.33    1613.6874   -22779.018    -847.6659    506.22666    78.643966    15.912629    29.612986 
   79600     237.0898   -169.93739    229018.04   -21137.201    1570.3311   -22707.532   -203.95024     507.1036    78.645319    15.908834     29.63592 
   79800      235.239   -242.76812    229018.04   -21117.454    1558.0726   -22675.526   -470.00505    508.61074    78.647995    15.905548    29.634426 
   80000    235.94463    -128.0476    229018.04   -21169.015    1562.7462   -22731.762   -43.464813     508.6839    78.648657    15.905011    29.631275 
   80200    234.95472   -219.66064    229018.04   -21173.025    1556.1897   -22729.214   -365.22122    510.44693    78.647399    15.906244    29.643058 
   80400    235.46222   -330.49174    229018.04   -21221.367     1559.551   -22780.918   -800.28417    512.73226    78.647553    15.906847    29.662154 
   80600    250.47415   -264.55319    229018.04   -21054.787    1658.9805   -22713.768   -579.52761    514.41245    78.645837    15.908594    29.672982 
   80800    237.97058   -296.87044    229018.04   -21157.468    1576.1648   -22733.633   -671.63621    513.33879    78.645773    15.908513    29.681081 
   81000    240.94463   -219.54347    229018.04   -21068.774     1595.863   -22664.637   -378.29042    513.87477    78.644762    15.911669    29.713939 
   81200    246.32629   -460.16835    229018.04    -21114.27    1631.5077   -22745.778   -1330.7397     515.4345     78.64598    15.912978    29.709096 
   81400    234.46024   -305.89187    229018.04   -21218.758    1552.9146   -22771.672   -714.13635    515.94548    78.645236    15.914978    29.709699 
   81600    244.43396   -381.39922    229018.04   -21101.644    1618.9741   -22720.619   -945.45499    519.20724    78.646268    15.914751    29.706613 
   81800    245.71216   -281.18448    229018.04   -21100.114    1627.4401   -22727.554     -625.979    520.02397    78.647533    15.913619    29.699566 
   82000    244.68195   -433.44169    229018.04   -21046.288    1620.6166   -22666.905   -1235.2426     523.1501    78.647809    15.914083    29.702021 
   82200     241.0519   -290.32355    229018.04   -21160.058    1596.5735   -22756.632   -650.34415    523.80566    78.646739    15.916012    29.681581 
   82400    238.40505   -335.46635    229018.04   -21175.386    1579.0424   -22754.428   -799.30649    525.88376    78.647399    15.913639    29.691819 
   82600     235.3391    -155.9823    229018.04   -21140.118    1558.7355   -22698.854   -148.37432    525.49375    78.645964    15.911293    29.687988 
   82800    237.79728    -333.7296    229018.04   -21079.111    1575.0169   -22654.128   -788.41588    525.87198     78.64416    15.910532     29.66331 
   83000    242.69002   -256.37322    229018.04   -21113.163    1607.4233   -22720.587   -480.95227    526.38833    78.642789    15.912068    29.654015 
   83200    233.58919   -174.72442    229018.04   -21149.862    1547.1453   -22697.007   -183.72477    528.62159    78.641325     15.91045    29.645473 
   83400    237.99587   -263.78693    229018.04   -21170.155    1576.3323   -22746.487   -558.96644    528.65452    78.641478      15.9089    29.654096 
   83600    239.46887   -413.58061    229018.04   -21143.791    1586.0885    -22729.88   -1131.2004    531.52779    78.642215    15.907424    29.638702 
   83800    237.19662   -314.31313    229018.04   -21144.868    1571.0386   -22715.907   -774.15616    534.44494    78.643729    15.907906    29.623073 
   84000    232.06251   -358.13983    229018.04   -21156.152    1537.0335   -22693.186   -889.68251    533.53324    78.642387    15.905026    29.582229 
   84200    234.15375   -319.05181    229018.04   -21196.717    1550.8846   -22747.602   -788.61569    537.54432    78.642012    15.902057    29.566413 
   84400    241.18075   -210.60499    229018.04   -21102.491    1597.4269   -22699.918   -320.89876    535.84268    78.640891    15.903683    29.570638 
   84600    236.70737   -181.70991    229018.04   -21142.155    1567.7981   -22709.953   -202.87566    538.46865    78.640814    15.902573    29.554374 
   84800    231.58213   -315.18368    229018.04   -21177.914    1533.8518   -22711.766   -751.52089    539.65215    78.641579    15.900879    29.576096 
   85000    239.38914   -455.28761    229018.04   -21094.447    1585.5604   -22680.008   -1274.2737    541.02063    78.642071    15.899589    29.581811 
   85200     245.6315   -280.01408    229018.04   -21038.883    1626.9058   -22665.789   -617.29686    541.13509    78.638592     15.89832    29.615312 
   85400    240.90518   -245.14262    229018.04   -21077.287    1595.6017   -22672.888   -445.53877    542.89345    78.641255    15.899317    29.636571 
   85600    238.37616    -382.8444    229018.04   -21051.675    1578.8511   -22630.526   -1001.4094    543.99839    78.642443    15.899681     29.65134 
   85800    239.45505   -223.30341    229018.04   -21071.494     1585.997   -22657.491   -359.35569    545.48183    78.644276    15.900319    29.674326 
   86000    240.53662   -311.27592    229018.04   -21027.999    1593.1606    -22621.16   -709.25953    548.02813    78.645193    15.898694    29.678537 
   86200    233.91712    -341.8073    229018.04   -21086.949    1549.3173   -22636.266   -842.35243    551.10034    78.642754    15.898088    29.666939 
   86400    236.46857   -162.70055    229018.04   -21107.964    1566.2165   -22674.181   -156.79284    551.98655    78.641084    15.896766    29.641338 
   86600    237.29956   -291.56631    229018.04   -21050.281    1571.7204   -22622.001   -654.21779    555.38306    78.639256    15.896534    29.639147 
   86800    244.09212   -322.32618    229018.04   -21093.651      1616.71   -22710.361   -793.50368    554.74549    78.638639    15.895796    29.636125 
   87000    231.08728   -273.57025    229018.04   -21128.738    1530.5742   -22659.312   -562.66895    555.94887    78.638466    15.895498     29.61534 
   87200    243.56276   -352.84601    229018.04    -21093.38    1613.2039   -22706.584   -880.42659    555.01507    78.637944    15.894486    29.617085 
   87400     246.6552   -230.02553    229018.04   -21108.973    1633.6862   -22742.659   -405.14502    556.46245    78.635538    15.893614    29.609016 
   87600    245.14916    -434.1857    229018.04   -21085.514    1623.7111   -22709.225   -1199.0289    557.97591    78.633342    15.891873    29.608658 
   87800    229.84898   -324.15695    229018.04   -21217.303    1522.3725   -22739.676   -772.11476     559.9523    78.632403    15.889625     29.59978 
   88000    241.56155   -371.10873    229018.04   -21024.619    1599.9491   -22624.568   -944.21624    561.50873    78.633001     15.88814    29.593353 
   88200    250.29609   -254.74247    229018.04   -21044.493    1657.8011   -22702.294   -516.40775    562.08453    78.632909    15.886697    29.591368 
   88400    245.46726   -359.18276    229018.04   -21076.842     1625.818    -22702.66   -920.61513    564.27618    78.631149    15.886975    29.588937 
   88600    235.67574   -359.01106    229018.04   -21199.454    1560.9653    -22760.42   -898.33477    561.55705    78.629834    15.888859    29.608772 
   88800    227.00632   -357.09153    229018.04   -21183.504    1503.5445   -22687.048   -879.33928     563.7211    78.627334    15.888476    29.613523 
   89000    228.40745   -177.36499    229018.04   -21219.869    1512.8248   -22732.694   -198.61578    563.52091    78.626028    15.888613    29.596879 
   89200    238.80715   -257.39213    229018.04   -21163.011    1581.7057   -22744.717   -517.48146    567.43539    78.623889    15.893629    29.580729 
   89400    243.82556   -433.23394    229018.04   -21101.129    1614.9445   -22716.074   -1185.4641    569.45938    78.624622    15.896572    29.579925 
   89600    235.13428   -269.73893    229018.04   -21229.739     1557.379   -22787.118   -565.24682    569.44013    78.624606    15.897681    29.560378 
   89800    236.47571   -354.96193    229018.04   -21175.412    1566.2638   -22741.676   -895.48942    571.63468    78.624479    15.900102    29.556594 
   90000    241.42776   -267.87578    229018.04   -21081.544    1599.0629   -22680.607   -596.17016    571.59493     78.62546    15.902051    29.562646 
   90200    233.01129   -179.29722    229018.04   -21126.386    1543.3177   -22669.704    -190.2473    573.38326    78.625424    15.903087    29.552837 
   90400    235.90358   -324.52543    229018.04   -21175.987    1562.4743   -22738.461   -768.73353    574.25898     78.62279     15.90245    29.550292 
   90600    236.22036   -381.52949    229018.04   -21183.775    1564.5725   -22748.347    -1028.604    575.33974    78.620937    15.902101    29.560678 
   90800    249.72602   -359.22273    229018.04   -21090.554    1654.0253   -22744.579   -878.18192     574.0438    78.619748    15.899848    29.559221 
   91000    241.35326   -250.86561    229018.04   -21187.417    1598.5695   -22785.987   -482.22589    575.24798     78.61876    15.898795    29.549314 
   91200    236.98202   -340.69407    229018.04   -21225.262    1569.6172    -22794.88   -837.46624    575.25537    78.617862    15.898564    29.549327 
   91400    239.31154   -325.75497    229018.04   -21164.167    1585.0465   -22749.213   -787.78086    575.66876    78.617399    15.900893    29.574779 
   91600    241.36275   -365.48601    229018.04   -21125.158    1598.6323    -22723.79   -962.83316    576.63721    78.617856     15.90358    29.564053 
   91800    233.19749   -315.34292    229018.04   -21088.271    1544.5509   -22632.822    -760.4996    576.09814    78.618359    15.903432    29.574044 
   92000     238.9017   -273.30582    229018.04   -21137.927     1582.332   -22720.259   -555.21695    575.76975    78.615177    15.904854    29.574615 
   92200    238.48297   -235.04309    229018.04   -21109.868    1579.5586   -22689.426   -445.58494     575.0306    78.615132    15.902536    29.565719 
   92400    241.79284   -233.23756    229018.04   -21043.798     1601.481   -22645.279   -421.26307    576.35793    78.615542    15.899541    29.590723 
   92600     243.9186   -222.58937    229018.04    -21029.16    1615.5607   -22644.721    -419.9873    578.76629    78.612024    15.898969    29.579962 
   92800    239.13998   -321.23164    229018.04   -21140.596    1583.9101   -22724.507   -790.75462    580.26115    78.612484     15.89957    29.602349 
   93000    236.04552   -310.32678    229018.04   -21155.182    1563.4145   -22718.597   -720.45447    578.29155    78.612713    15.900537    29.604423 
   93200    241.60104   -475.65844    229018.04   -21054.936    1600.2107   -22655.147   -1368.7118    578.96007    78.614356    15.902217    29.597408 
   93400    230.46314   -450.26499    229018.04   -21140.504    1526.4403   -22666.944   -1247.8284    582.02195     78.61564    15.901311    29.597577 
   93600     230.2452   -227.07272    229018.04   -21104.694    1524.9968   -22629.691   -412.53737    580.89895    78.616441    15.901861    29.592825 
   93800    240.97225   -427.96349    229018.04   -21017.517     1596.046   -22613.563   -1176.6913    582.98289    78.614323    15.906127    29.568424 
   94000    241.24686    -396.0061    229018.04   -21013.438    1597.8648   -22611.303   -1113.6186    582.64709    78.614734    15.907772    29.557205 
   94200    241.16887   -366.15027    229018.04   -21053.375    1597.3482   -22650.723   -944.07184    582.86916    78.613647    15.909153    29.560055 
   94400    245.47167   -143.01756    229018.04   -20971.342    1625.8472   -22597.189    -114.5562    584.87574    78.612379    15.909471     29.57439 
   94600    237.67967   -352.34216    229018.04   -21073.244     1574.238   -22647.482   -909.93697    587.34455    78.613362    15.910261    29.565871 
   94800     243.7421   -408.07352    229018.04   -21005.945    1614.3917   -22620.336   -1097.4392    592.38131    78.613531    15.909436    29.579521 
   95000    245.85039   -339.70416    229018.04   -21038.646    1628.3556   -22667.002   -891.18048    594.12351    78.613284    15.910623    29.575585 
   95200    234.75584   -150.71155    229018.04   -21130.017    1554.8725    -22684.89   -107.33684     594.5465    78.612855    15.909959    29.596333 
   95400    238.94854   -446.83777    229018.04   -21143.938    1582.6422   -22726.581   -1261.0034     597.3018    78.611949    15.908755    29.596371 
   95600    234.57001   -400.12907    229018.04   -21144.816    1553.6416   -22698.458   -1122.0964    598.81666    78.609798    15.904254    29.576082 
   95800    238.78212   -200.13675    229018.04   -21073.392    1581.5399   -22654.932   -309.82278    598.98383    78.608726    15.900335    29.566082 
   96000    240.36221   -191.15227    229018.04   -21138.922    1592.0054   -22730.927   -223.42977    600.42672    78.608001    15.899101    29.557681 
   96200    231.55434   -387.21073    229018.04   -21166.388    1533.6677   -22700.055   -985.25077    602.25732    78.607959    15.901889    29.565084 
   96400    234.30452   -214.50152    229018.04    -21079.32    1551.8831   -22631.203   -392.12104     602.5392    78.607445    15.905792    29.565318 
   96600    234.31057   -396.16362    229018.04   -21181.096    1551.9232   -22733.019   -1064.1707    605.04651    78.607283    15.907702    29.549463 
   96800    234.43018   -398.89431    229018.04   -21155.132    1552.7154   -22707.848   -1062.5076    605.10902    78.606447    15.906972    29.552567 
   97000    236.30521   -284.13286    229018.04   -21124.522    1565.1345   -22689.657   -649.88793    604.14743    78.606311    15.908327    29.553511 
   97200     237.6173   -95.439857    229018.04   -21038.258    1573.8249   -22612.083    128.87882    602.02227    78.607061    15.909543    29.528817 
   97400    245.77278   -287.36836    229018.04   -21047.331    1627.8416   -22675.172   -647.68353     604.9975    78.606718    15.909456    29.517648 
   97600    237.43504   -206.62415    229018.04   -21071.983    1572.6178   -22644.601   -347.05386    609.39221    78.606475    15.909073    29.538511 
   97800    231.27326    -351.6666    229018.04   -21140.779     1531.806   -22672.585   -913.07086    609.28371     78.60704    15.908641    29.552579 
   98000    231.09162    -334.6298    229018.04   -21191.826     1530.603   -22722.429   -840.12943    610.43136    78.606534    15.905964    29.548104 
   98200    229.38589   -375.73233    229018.04   -21196.238    1519.3053   -22715.543   -980.80048    610.53341    78.605938    15.905101    29.543222 
   98400    235.25531   -120.80256    229018.04   -21132.262    1558.1806   -22690.442    26.114375    608.73422    78.605415    15.905064    29.556893 
   98600    242.56427   -239.54578    229018.04   -21102.583    1606.5905   -22709.173   -463.81116    612.08286    78.606372    15.906505     29.55992 
   98800    242.22654   -353.69958    229018.04   -20974.072    1604.3535   -22578.426   -895.34704    612.83931     78.60636    15.907536    29.574081 
   99000    249.75385   -311.10496    229018.04   -20971.063    1654.2096   -22625.273   -722.33186    611.02384    78.606687    15.907215    29.571748 
   99200    241.19715   -333.46864    229018.04    -21043.61    1597.5355   -22641.145    -789.5751    611.21307    78.604156    15.906622    29.580752 
   99400    233.41132   -225.42644    229018.04   -21091.684    1545.9672   -22637.651   -412.29298    610.25949    78.603448    15.906502    29.556909 
   99600    241.75403   -377.71954    229018.04   -21065.863     1601.224   -22667.087    -971.8839    610.38718    78.603718    15.907598    29.550009 
   99800    240.46682   -226.11288    229018.04   -21070.888    1592.6983   -22663.587   -387.56925    611.16607    78.603867    15.909941      29.5292 
  100000    235.04375   -302.96851    229018.04   -21131.015    1556.7794   -22687.794   -707.40686    611.91788    78.601567    15.910694    29.534862 
  100200    239.35221    -296.1475    229018.04   -21068.507    1585.3159   -22653.823   -722.05635    613.01284    78.599672    15.906927    29.544473 
  100400    242.25987   -335.38197    229018.04   -21086.527    1604.5743   -22691.101   -801.92971    613.41956    78.599512    15.905331    29.548915 
  100600    238.55232   -377.42626    229018.04   -21122.641    1580.0179   -22702.659   -972.78593    612.84194    78.599463    15.904953    29.550369 
  100800    247.47384    -335.2125    229018.04   -21102.992    1639.1083     -22742.1   -850.30451     613.0421    78.598985    15.902712    29.537449 
[...]
 5175800    226.21029    -667.8342    229018.04   -23217.461    1498.2721   -24715.734   -2105.7259    10896.267    78.419368    17.139882    29.802218 
 5176000    217.76923   -428.92012    229018.04   -23335.769     1442.364   -24778.133   -1152.9496    10892.569    78.418952    17.140277    29.812187 
 5176200    222.75637   -557.22836    229018.04   -23318.613    1475.3956   -24794.009   -1653.0079    10892.942    78.418244     17.14098    29.807856 
 5176400    220.83297    -663.4905    229018.04   -23281.526    1462.6562   -24744.182   -2078.0776      10897.2    78.416261    17.142885    29.801164 
 5176600    224.12413   -410.81045    229018.04   -23258.759    1484.4548   -24743.214   -1148.7841    10887.771    78.414992    17.143713    29.805602 
 5176800    222.52484   -537.41201    229018.04   -23309.246    1473.8621   -24783.108   -1587.4507    10894.419    78.413975    17.145236    29.801671 
 5177000    227.58697   -640.14446    229018.04   -23211.719    1507.3904   -24719.109   -1997.6081    10897.823    78.412343    17.145115     29.80178 
 5177200    232.45452   -326.71906    229018.04   -23212.573    1539.6299   -24752.203   -768.24126    10887.514      78.4115    17.145555     29.80833 
 5177400    226.42472   -501.90675    229018.04   -23240.542    1499.6924   -24740.234   -1470.9147    10892.046    78.411424    17.147484    29.802186 
 5177600    225.07687   -607.49148    229018.04   -23233.455    1490.7651    -24724.22   -1846.6449    10894.357    78.409593    17.148375    29.797248 
 5177800     223.5808   -351.34544    229018.04   -23202.064    1480.8561    -24682.92   -854.90342     10889.64    78.408217    17.149663    29.791776 
 5178000     221.9867   -508.51274    229018.04   -23291.664    1470.2978   -24761.961   -1454.9858     10889.97    78.407531    17.150307    29.799714 
 5178200    226.17186   -660.03407    229018.04    -23302.69    1498.0176   -24800.707    -2051.597    10895.035    78.408233    17.150095    29.801817 
 5178400    230.05513   -460.82665    229018.04   -23200.002     1523.738    -24723.74   -1319.9038    10892.011      78.4067    17.151097    29.805632 
 5178600    224.08018   -514.62027    229018.04   -23260.095    1484.1637   -24744.259   -1505.6725    10891.821    78.406317     17.15188    29.804274 
 5178800     228.1044   -621.99481    229018.04    -23232.88    1510.8175   -24743.697   -1901.1023    10898.157    78.405936    17.152153    29.808097 
 5179000    232.10735   -473.40319    229018.04   -23199.638    1537.3305   -24736.969   -1381.3607    10890.881    78.405015    17.151854     29.80799 
 5179200     224.0711   -470.95388    229018.04   -23239.784    1484.1036   -24723.887    -1332.466    10894.518    78.403794    17.152014    29.801459 
 5179400    224.08419   -581.05343    229018.04   -23262.986    1484.1903   -24747.176   -1748.1498    10896.177    78.403491    17.151973    29.817351 
 5179600    224.12601   -471.60588    229018.04   -23243.791    1484.4672   -24728.258   -1350.6598    10894.976    78.402903    17.150825    29.811472 
 5179800    231.24955   -493.50224    229018.04   -23225.091     1531.649    -24756.74    -1417.939    10894.287    78.401826    17.151282    29.807739 
 5180000    222.70493   -504.77274    229018.04   -23269.538    1475.0549   -24744.593   -1450.7738    10892.473     78.40048    17.151555    29.806988 
 5180200    223.90554   -535.98901    229018.04   -23276.739     1483.007   -24759.746   -1586.9367    10893.461    78.398589    17.151478    29.805939 
 5180400    226.48288   -489.26535    229018.04   -23262.352    1500.0776    -24762.43   -1428.3141    10895.026    78.396737    17.152923    29.800298 
 5180600    223.06058   -510.16658    229018.04   -23284.728    1477.4105   -24762.139   -1489.3943    10891.524    78.395567    17.154396    29.808503 
 5180800     220.1753   -487.60982    229018.04   -23298.731    1458.3002   -24757.031   -1380.9365    10891.744    78.395484    17.154703    29.812362 
 5181000    225.93504    -532.5596    229018.04    -23256.05    1496.4491   -24752.499   -1564.9578    10896.823    78.395032    17.155213    29.816651 
 5181200    225.32615   -495.53349    229018.04   -23227.945    1492.4162   -24720.361   -1426.0626    10893.185    78.395103     17.15574    29.813657 
 5181400    228.70265   -504.16752    229018.04   -23229.575    1514.7799   -24744.355   -1449.2055    10891.082    78.394443    17.156478    29.813537 
 5181600    229.69725   -643.17702    229018.04   -23232.646    1521.3675   -24754.013   -2008.4029        10895    78.392754    17.157504    29.815411 
 5181800     225.3588   -521.10574    229018.04   -23319.681    1492.6324   -24812.314   -1550.5561    10895.204    78.392285    17.156997    29.810277 
 5182000    221.71265   -502.69999    229018.04   -23320.983    1468.4827   -24789.466   -1466.9109    10892.132    78.392348    17.157596    29.818687 
 5182200    230.98205   -640.09898    229018.04   -23240.955    1529.8773   -24770.832   -1962.7633    10895.581    78.391286    17.157195    29.819614 
 5182400    229.61045   -419.53681    229018.04   -23237.197    1520.7927    -24757.99   -1087.5582    10890.788    78.390347    17.156459    29.810028 
 5182600    234.85079   -526.77056    229018.04   -23206.079    1555.5013    -24761.58   -1562.3555    10894.142    78.389558    17.155846    29.812474 
 5182800    226.01288   -627.63054    229018.04   -23221.898    1496.9646   -24718.862   -1916.1503    10897.191    78.389237    17.155155    29.820744 
 5183000    228.34606   -351.86909    229018.04   -23211.511    1512.4181   -24723.929   -853.62936    10885.484    78.388596    17.154779    29.817529 
 5183200    221.34119   -529.65185    229018.04   -23228.135    1466.0223   -24694.158   -1529.1412    10892.056    78.388554    17.155003    29.811201 
 5183400    227.75945   -666.89295    229018.04    -23255.42    1508.5328   -24763.953   -2111.8748     10893.48    78.386856    17.155419    29.809831 
 5183600    226.33305    -414.7877    229018.04   -23241.255    1499.0853   -24740.341    -1124.316    10887.858    78.385194    17.156439    29.818854 
 5183800     223.9392   -578.45365    229018.04   -23297.581    1483.2299   -24780.811   -1752.3709    10891.914     78.38417    17.156747     29.82219 
 5184000    220.52229   -595.87041    229018.04   -23252.292    1460.5985   -24712.891   -1787.0072    10894.619    78.383193    17.156973    29.816309 
 5184200    225.06182   -442.71945    229018.04   -23265.669    1490.6654   -24756.335   -1210.4103    10887.013    78.382057     17.15832     29.80486 
 5184400    221.69739     -527.064    229018.04   -23236.123    1468.3816   -24704.505   -1560.3997    10891.326    78.381125     17.15872    29.812912 
 5184600    225.07388    -626.5542    229018.04   -23243.945    1490.7454   -24734.691   -1932.1074    10894.047    78.381076    17.158668    29.824105 
 5184800    229.05728   -387.89823    229018.04   -23237.091    1517.1288    -24754.22   -993.86819     10889.84    78.379417    17.159828    29.814008 
 5185000    228.83678   -575.71062    229018.04   -23227.672    1515.6683   -24743.341   -1707.3135    10891.808    78.377295    17.161595    29.812648 
 5185200    222.39485    -598.4747    229018.04   -23254.057    1473.0011   -24727.058   -1855.8962    10894.496    78.375905    17.162251    29.825277 
 5185400    220.60605   -451.09343    229018.04   -23286.122    1461.1532   -24747.276   -1239.6044    10889.408    78.374545    17.163545     29.82407 
 5185600    229.95745   -606.74213    229018.04   -23248.045     1523.091   -24771.136    -1844.278    10893.575    78.373623    17.163818    29.821405 
 5185800     226.8258   -637.96993    229018.04   -23155.232    1502.3489   -24657.581   -1965.9799    10895.377    78.370979    17.164124    29.820628 
 5186000    232.54311   -485.53714    229018.04   -23206.593    1540.2167    -24746.81   -1401.6091    10892.001    78.369644    17.163544    29.820284 
 5186200    223.37229   -603.66589    229018.04   -23266.254    1479.4751   -24745.729   -1851.8762    10891.848    78.368615    17.163557    29.820154 
 5186400    224.90138   -582.32442    229018.04   -23290.186    1489.6028   -24779.789   -1751.7053    10893.891    78.366226    17.164102    29.820795 
 5186600    228.04652   -490.85545    229018.04   -23212.534    1510.4342   -24722.968   -1407.3882    10891.421    78.365983    17.164194    29.812027 
 5186800    228.76064   -575.30313    229018.04   -23220.833    1515.1641   -24735.997   -1740.6698    10892.139    78.364807     17.16339    29.825943 
 5187000    224.95006   -475.76138    229018.04   -23219.115    1489.9252    -24709.04   -1352.4401    10892.573     78.36322    17.164185    29.828922 
 5187200    223.42876   -444.11036    229018.04   -23238.672    1479.8491   -24718.521   -1263.2894    10894.037    78.362077    17.164843    29.824923 
 5187400    223.64451   -579.95695    229018.04   -23229.984    1481.2781   -24711.262   -1706.3838    10894.331    78.361513    17.165656    29.822783 
 5187600    223.24896   -582.84579    229018.04   -23249.194    1478.6582   -24727.852   -1788.6057    10893.276    78.360672    17.166086    29.823871 
 5187800    228.91823   -454.47726    229018.04   -23242.217    1516.2078   -24758.425   -1292.8281    10891.949    78.359277    17.165326    29.820647 
 5188000    233.44264   -611.87524    229018.04   -23243.824    1546.1746   -24789.999   -1862.0907    10895.764    78.358214    17.165889    29.821644 
 5188200    224.26095   -585.90773    229018.04   -23230.262     1485.361   -24715.623   -1788.0952    10892.151    78.357094    17.167701    29.815607 
 5188400    223.72106   -528.13194    229018.04    -23270.59    1481.7851   -24752.375   -1560.0757    10889.884     78.35547    17.167955    29.808476 
 5188600    235.50081   -591.88271    229018.04   -23198.349    1559.8066   -24758.155    -1796.332    10895.149    78.354406     17.16808    29.806315 
 5188800    230.85177   -524.49233    229018.04   -23238.999    1529.0144   -24768.013   -1513.0759    10892.556    78.352619     17.16769    29.807081 
 5189000    225.62836   -408.15193    229018.04   -23236.006    1494.4179   -24730.424   -1114.5282    10891.319    78.349844    17.167531    29.816695 
 5189200    227.42107   -561.06869    229018.04   -23253.414    1506.2916   -24759.706   -1663.6502    10894.963    78.348144    17.168386    29.815644 
 5189400    228.53985   -516.61997    229018.04   -23232.748    1513.7017   -24746.449   -1521.7409    10894.653    78.346704     17.16855    29.804241 
 5189600    228.27216   -537.88646    229018.04   -23219.921    1511.9286    -24731.85   -1609.1054    10893.341    78.344581    17.168739    29.809765 
 5189800      231.488   -579.16646    229018.04   -23262.008    1533.2284   -24795.237   -1752.9338    10895.762     78.34274    17.167654    29.806203 
 5190000     236.2752   -477.01698    229018.04   -23235.454    1564.9357    -24800.39   -1352.1666    10892.727    78.341499    17.168595    29.811389 
 5190200    228.75275   -522.10139    229018.04   -23233.732    1515.1118   -24748.843   -1549.7419    10891.396    78.340036    17.168994    29.822031 
 5190400    225.25595   -580.17417    229018.04   -23249.898    1491.9512   -24741.849   -1713.2134    10892.218    78.339841    17.170764    29.819389 
 5190600    231.60239   -477.79789    229018.04   -23238.504     1533.986    -24772.49   -1333.3444     10890.21    78.339466    17.172626    29.810944 
 5190800    226.35707   -493.07175    229018.04    -23252.01    1499.2443   -24751.254   -1414.4408    10894.758    78.340078     17.17248    29.816481 
 5191000    222.35084   -529.45055    229018.04   -23346.332    1472.7097   -24819.042   -1562.7174    10893.178    78.338228    17.172759     29.80822 
 5191200    224.38288   -482.95784    229018.04   -23269.179    1486.1686   -24755.348   -1387.0135    10890.106    78.337101    17.173338    29.818925 
 5191400    227.16638   -547.19506    229018.04   -23238.345    1504.6047    -24742.95   -1663.6346     10894.16    78.335804    17.174044    29.814718 
 5191600    230.69188     -543.086    229018.04   -23258.912    1527.9553   -24786.868   -1617.6625    10893.347    78.334531    17.174145    29.813055 
 5191800    231.62363   -583.94891    229018.04   -23211.693    1534.1266    -24745.82   -1792.3266    10893.986     78.33276    17.172667    29.810385 
 5192000    232.07672    -513.4141    229018.04   -23212.977    1537.1276   -24750.104   -1537.0395    10891.949    78.332463    17.174164    29.811587 
 5192200    223.93173    -511.6564    229018.04    -23240.98    1483.1805   -24724.161   -1479.9816    10893.363    78.332204    17.174499    29.801244 
 5192400    225.91898   -509.57158    229018.04   -23292.332    1496.3427   -24788.675   -1473.4347    10896.245    78.333134     17.17415    29.803824 
 5192600     224.1721   -485.80831    229018.04   -23295.263    1484.7725   -24780.035   -1407.7111     10894.31     78.33198    17.174202     29.80677 
 5192800    228.56521   -482.17554    229018.04   -23218.938    1513.8697   -24732.808   -1364.5049    10892.811    78.330273    17.174135    29.812969 
 5193000    228.35697   -490.06507    229018.04   -23252.603    1512.4904   -24765.093   -1402.8223    10895.293    78.329735     17.17404    29.807032 
 5193200    222.86225    -488.6824    229018.04   -23252.341    1476.0969   -24728.438   -1407.1955    10894.855    78.328382    17.174334     29.80966 
 5193400    232.65107    -426.9284    229018.04   -23211.812    1540.9318   -24752.744   -1198.6447    10898.216    78.327741    17.175081    29.809468 
 5193600    223.99034    -536.2388    229018.04   -23256.914    1483.5686   -24740.483   -1587.9289    10895.365    78.326884     17.17549    29.813977 
 5193800    223.10439    -476.8492    229018.04   -23272.999    1477.7006     -24750.7   -1343.8611    10896.102    78.325832     17.17576    29.814477 
 5194000    228.86307   -519.64803    229018.04    -23268.44    1515.8425   -24784.282   -1560.9673    10895.084    78.324992     17.17732    29.810864 
 5194200    231.75138   -504.37957    229018.04   -23254.465    1534.9728   -24789.438   -1433.4304    10893.812     78.32374    17.177312    29.807791 
 5194400    225.88734   -617.77834    229018.04   -23264.102    1496.1331   -24760.235   -1934.0359    10894.841    78.323066    17.177755    29.805031 
 5194600    219.51719   -535.18124    229018.04   -23295.149    1453.9414   -24749.091   -1563.3894    10895.986    78.322258    17.178327    29.801602 
 5194800    224.61176   -616.14901    229018.04   -23304.959    1487.6846   -24792.644   -1926.9188    10894.137    78.321557    17.178862    29.807351 
 5195000    232.59801   -571.41129    229018.04   -23217.788    1540.5803   -24758.369   -1712.7674    10893.543    78.320702    17.178965    29.805931 
 5195200    225.87863   -513.49883    229018.04   -23276.581    1496.0755   -24772.656   -1501.5499    10896.781    78.319871    17.179242    29.810201 
 5195400    228.55518   -560.88607    229018.04   -23203.484    1513.8032   -24717.287    -1674.293    10896.238    78.319049    17.179367    29.807318 
 5195600    229.19406   -450.01572    229018.04    -23246.36    1518.0347   -24764.395   -1237.7972    10893.779    78.317581    17.178839    29.806178 
 5195800    235.34695   -472.19075    229018.04   -23209.147    1558.7876   -24767.934   -1355.9786    10898.024    78.316346    17.178665     29.81661 
 5196000     234.7542   -448.10584    229018.04    -23213.57    1554.8616   -24768.431   -1203.0606    10891.832    78.315007      17.1777    29.805443 
 5196200    231.30383   -492.18035    229018.04   -23177.246    1532.0085   -24709.254   -1410.5998    10895.464    78.314268    17.177796    29.809805 
 5196400    230.36268   -537.81461    229018.04   -23235.164    1525.7749   -24760.939   -1563.4786    10893.574    78.312385    17.178418    29.810088 
 5196600    221.86721   -501.07909    229018.04   -23345.082    1469.5064   -24814.588   -1441.7768     10894.57    78.311348    17.179027    29.817678 
 5196800    227.33366   -589.92933    229018.04   -23232.954    1505.7126   -24738.667   -1771.6431    10895.639    78.309942    17.179603    29.818183 
 5197000    219.12846   -484.65329    229018.04   -23272.496    1451.3666   -24723.863     -1388.08    10893.834     78.30889    17.180048    29.805812 
 5197200    233.01403   -526.52348    229018.04   -23172.456    1543.3358   -24715.792   -1517.6799    10894.807    78.308666    17.180756    29.812147 
 5197400    225.51011   -571.63408    229018.04   -23263.313    1493.6346   -24756.947   -1691.1857    10894.848    78.306238    17.179161    29.813777 
 5197600    223.16062   -519.04832    229018.04   -23249.298    1478.0731   -24727.371     -1536.84     10894.66    78.306097    17.179566    29.812286 
 5197800     229.4162   -511.66961    229018.04   -23142.553    1519.5061   -24662.059   -1485.5372    10896.623    78.305528    17.178881    29.803878 
 5198000    234.19897   -508.58102    229018.04   -23151.237    1551.1841   -24702.421   -1505.0299    10894.108    78.304548    17.178273    29.802778 
 5198200    228.62373   -437.20101    229018.04   -23207.302    1514.2573   -24721.559   -1242.3613    10895.868    78.303223    17.177145    29.802896 
 5198400    231.85553   -562.98575    229018.04   -23233.559    1535.6626   -24769.222   -1676.5204    10896.603    78.302981    17.177155     29.81351 
 5198600    224.20065   -510.73827    229018.04   -23276.742    1484.9616   -24761.704    -1481.713     10894.58    78.302959     17.17737    29.814991 
 5198800    225.48476   -466.37509    229018.04   -23270.639    1493.4667   -24764.105   -1291.4866    10891.637    78.302331    17.177437      29.7984 
 5199000    232.84079   -489.13631    229018.04   -23189.888    1542.1884   -24732.077   -1414.3574    10893.434    78.302417    17.178367    29.803196 
 5199200    226.84349   -659.53791    229018.04   -23237.733    1502.4661   -24740.199    -2095.899    10894.832    78.304261    17.178474     29.81462 
 5199400    228.80228   -546.94545    229018.04   -23264.831    1515.4398   -24780.271   -1627.9345    10892.099    78.304802    17.178166    29.807829 
 5199600    226.66869   -398.69105    229018.04   -23218.838    1501.3083   -24720.146   -1016.1858    10891.442    78.305439    17.178324    29.813164 
 5199800     219.8401   -576.06331    229018.04   -23276.559    1456.0801    -24732.64   -1751.1695    10895.604    78.306228    17.179016    29.813183 
 5200000    226.97646   -450.27592    229018.04   -23197.426    1503.3468   -24700.773   -1246.4775    10893.438    78.306127    17.179777    29.810456 
Loop time of 7496.69 on 160 procs for 5200000 steps with 8943 atoms

Performance: 599.304 ns/day, 0.040 hours/ns, 693.639 timesteps/s
97.8% CPU use with 160 MPI tasks x no OpenMP threads

MPI task timing breakdown:
Section |  min time  |  avg time  |  max time  |%varavg| %total
---------------------------------------------------------------
Pair    | 0.24929    | 1542.4     | 5910       |5250.0 | 20.57
Neigh   | 0.3479     | 99.182     | 387.68     |1239.2 |  1.32
Comm    | 11.625     | 2059       | 5965.3     |4695.3 | 27.47
Output  | 89.386     | 89.459     | 91.376     |   1.6 |  1.19
Modify  | 200.37     | 3607       | 7304.1     |5009.1 | 48.11
Other   |            | 99.63      |            |       |  1.33

Nlocal:    55.8937 ave 177 max 0 min
Histogram: 72 1 46 1 0 0 0 0 4 36
Nghost:    540.862 ave 945 max 0 min
Histogram: 20 4 0 8 8 40 28 15 22 15
Neighs:    0 ave 0 max 0 min
Histogram: 160 0 0 0 0 0 0 0 0 0
FullNghs:  5612.94 ave 22203 max 0 min
Histogram: 92 28 0 0 0 0 0 2 18 20

Total # of neighbors = 898070
Ave neighs/atom = 100.422
Neighbor list builds = 564667
Dangerous builds = 0
write_data 		${DIR}/data.${NAME}_run
write_data 		run_20/data.${NAME}_run
write_data 		run_20/data.ibeam_cooling_20_run
Total wall time: 2:05:12
