
### Dimensions ###


### IMPORT ATOMS ###
read_data ../Box_Setup/data.Ibeam_240K
  orthogonal box = (0 0 0) to (157.504 36.4877 39.8503)
  10 by 4 by 4 MPI processor grid
  reading atoms ...
  8943 atoms
  reading velocities ...
  8943 velocities
group water type 2
2223 atoms in group water
group graphite type 1
6720 atoms in group graphite


# Define potential
#
pair_style          sw
pair_coeff * * MLC_e.sw C mW

# Add velocity/set timestep
#

fix		1 graphite setforce 0.0 0.0 0.0
velocity 	graphite set 0.0 0.0 0.0
velocity            water create ${START_TEMP} ${SEED} rot yes dist gaussian
velocity            water create 240 ${SEED} rot yes dist gaussian
velocity            water create 240 32482 rot yes dist gaussian
timestep            5.0

# Define output
#
compute 1 water msd
compute 2 water temp


thermo	            100
thermo_style custom step c_2 press vol etotal ke pe c_1[4] density

# Neighbor lists
#
neigh_modify        delay 0 every 1 check yes


# Set fixes
#
fix                 2 water momentum 10 linear 1 1 1 rescale
fix                 3 all nve
fix                 4 water temp/csvr ${START_TEMP} ${START_TEMP} 500.0 928347
fix                 4 water temp/csvr 240 ${START_TEMP} 500.0 928347
fix                 4 water temp/csvr 240 240 500.0 928347

# Run 0.05 ns equilibration
#
dump                1 all custom 100 ${DIR}/eq.${NAME}.dump id type x y z vx vy vz
dump                1 all custom 100 run_20/eq.${NAME}.dump id type x y z vx vy vz
dump                1 all custom 100 run_20/eq.ibeam_cooling_20.dump id type x y z vx vy vz
run                 10000
Neighbor list info ...
  update every 1 steps, delay 0 steps, check yes
  max neighbors/atom: 2000, page size: 100000
  master list distance cutoff = 6.67472
  ghost atom cutoff = 6.67472
  binsize = 3.33736, bins = 48 11 12
  1 neighbor lists, perpetual/occasional/extra = 1 0 0
  (1) pair sw, perpetual
      attributes: full, newton on
      pair build: full/bin/atomonly
      stencil: full/bin/3d
      bin: standard
Per MPI rank memory allocation (min/avg/max) = 0.463 | 3.758 | 4.742 Mbytes
Step c_2 Press Volume TotEng KinEng PotEng c_1[4] Density 
       0          240   -163.35224    229018.04   -21211.582    1589.6064   -22801.188            0   0.87555383 
     100    238.49358   -214.14459    229018.04   -21173.932    1579.6289   -22753.561   0.85001102   0.87555383 
     200    236.19275   -204.53935    229018.04   -21214.451    1564.3896   -22778.841    1.3643598   0.87555383 
     300    241.66303   -352.22954    229018.04   -21199.031    1600.6212   -22799.652    1.7933018   0.87555383 
     400    242.10596    -436.1824    229018.04   -21218.977    1603.5549   -22822.532    2.1826079   0.87555383 
     500     236.8108   -388.11354    229018.04   -21227.464    1568.4832   -22795.947    2.5397369   0.87555383 
     600    232.02996   -285.06639    229018.04   -21321.947    1536.8179   -22858.765    2.8854904   0.87555383 
     700    233.43768   -312.02334    229018.04   -21289.333    1546.1418   -22835.475    3.0634808   0.87555383 
     800    234.70684    -197.8149    229018.04   -21335.796    1554.5479   -22890.344    3.3295918   0.87555383 
     900    238.01795   -449.75853    229018.04   -21301.388    1576.4786   -22877.867    3.6317187   0.87555383 
    1000    241.25937   -392.45509    229018.04   -21227.824    1597.9476   -22825.772    4.1311597   0.87555383 
    1100     236.9436   -407.36616    229018.04   -21239.665    1569.3628   -22809.028    4.4909162   0.87555383 
    1200    237.55851   -344.25737    229018.04   -21286.103    1573.4355   -22859.539    4.8436306   0.87555383 
    1300     241.5872   -188.97033    229018.04   -21251.456     1600.119   -22851.575    5.1664315   0.87555383 
    1400    247.63315   -358.00743    229018.04   -21191.338    1640.1635   -22831.502    5.4895163   0.87555383 
    1500    243.64767     -394.671    229018.04   -21192.849    1613.7662   -22806.616    5.8632427   0.87555383 
    1600    243.98415   -60.082425    229018.04   -21178.034    1615.9949   -22794.028     6.122155   0.87555383 
    1700    240.37595    -166.6072    229018.04    -21204.88    1592.0965   -22796.976    6.2140502   0.87555383 
    1800    244.11203   -391.29783    229018.04   -21209.539    1616.8418   -22826.381    6.5098322   0.87555383 
    1900    249.42772   -236.13261    229018.04   -21127.886    1652.0495   -22779.936    6.8224945   0.87555383 
    2000    243.12413   -328.92099    229018.04   -21098.733    1610.2986   -22709.032    7.0017764   0.87555383 
    2100    240.68437   -359.65906    229018.04   -21109.804    1594.1392   -22703.943    7.2070692   0.87555383 
    2200    245.81695   -398.53293    229018.04   -21109.781    1628.1342   -22737.915    7.5960734   0.87555383 
    2300    243.14122   -229.73241    229018.04   -21155.547    1610.4118   -22765.959    7.9483517   0.87555383 
    2400    245.97463   -348.43614    229018.04   -21158.078    1629.1785   -22787.257    8.3015725   0.87555383 
    2500    244.30086   -217.45344    229018.04   -21142.365    1618.0925   -22760.458    8.6693112   0.87555383 
    2600    240.39251   -302.70967    229018.04   -21178.775    1592.2061   -22770.981    9.1473065   0.87555383 
    2700    243.22476    -317.6819    229018.04   -21154.099    1610.9651   -22765.064    9.6338785   0.87555383 
    2800    244.88703   -388.89402    229018.04   -21164.505    1621.9749    -22786.48    10.121269   0.87555383 
    2900      238.515   -217.46207    229018.04   -21227.039    1579.7707   -22806.809    10.460045   0.87555383 
    3000    231.71879   -266.25955    229018.04   -21230.302    1534.7569   -22765.059    10.901866   0.87555383 
    3100    233.41009   -223.66437    229018.04   -21217.162     1545.959   -22763.121    11.158034   0.87555383 
    3200    235.12407   -323.50602    229018.04   -21220.569    1557.3114    -22777.88    11.496519   0.87555383 
    3300    238.04577   -315.10047    229018.04     -21182.7    1576.6628   -22759.363    11.744232   0.87555383 
    3400    242.02821   -312.85905    229018.04   -21191.587    1603.0399   -22794.627     12.20578   0.87555383 
    3500    243.96093   -271.82033    229018.04   -21199.524    1615.8411   -22815.365    12.627745   0.87555383 
    3600    235.54669   -137.24674    229018.04   -21191.206    1560.1105   -22751.316    12.840083   0.87555383 
    3700    243.42471   -240.26789    229018.04   -21218.563    1612.2895   -22830.853    12.858745   0.87555383 
    3800    232.71246   -275.26299    229018.04   -21220.351    1541.3384   -22761.689    13.054069   0.87555383 
    3900    239.34332   -402.69507    229018.04   -21210.587     1585.257   -22795.844    13.475831   0.87555383 
    4000    240.86301   -373.47036    229018.04   -21253.836    1595.3224   -22849.158    13.782515   0.87555383 
    4100    239.44572    -267.6816    229018.04   -21214.732    1585.9352   -22800.667    14.138902   0.87555383 
    4200    239.68612   -351.73858    229018.04   -21190.865    1587.5274   -22778.393    14.382579   0.87555383 
    4300    248.55854   -220.80599    229018.04    -21094.72    1646.2927   -22741.013    14.643137   0.87555383 
    4400    246.00199     -330.913    229018.04    -21099.34    1629.3597     -22728.7     14.82384   0.87555383 
    4500    239.80498   -335.03008    229018.04   -21151.824    1588.3147   -22740.138    15.093038   0.87555383 
    4600    242.59257    -418.0524    229018.04    -21188.63    1606.7779   -22795.408    15.379223   0.87555383 
    4700    231.12698    -290.7312    229018.04   -21223.077    1530.8372   -22753.915    15.978954   0.87555383 
    4800    240.51588   -371.61522    229018.04    -21185.84    1593.0232   -22778.863    16.336755   0.87555383 
    4900    237.01976   -343.69201    229018.04   -21195.018    1569.8672   -22764.885    16.849729   0.87555383 
    5000    240.91628   -219.24432    229018.04   -21228.593    1595.6752   -22824.268    17.516567   0.87555383 
    5100    234.76544   -219.85679    229018.04   -21236.513     1554.936   -22791.449    18.230903   0.87555383 
    5200    241.63064   -407.26967    229018.04   -21194.836    1600.4067   -22795.243    18.705221   0.87555383 
    5300    234.70273   -324.28417    229018.04   -21250.139    1554.5207   -22804.659    18.790379   0.87555383 
    5400    239.23892   -371.29132    229018.04    -21226.74    1584.5655   -22811.306    19.184028   0.87555383 
    5500    232.42503   -278.50867    229018.04   -21261.083    1539.4346   -22800.518    19.369406   0.87555383 
    5600     229.4485   -308.88272    229018.04   -21269.895      1519.72   -22789.615    19.661759   0.87555383 
    5700    242.83198   -252.08824    229018.04   -21251.846    1608.3636    -22860.21    19.896406   0.87555383 
    5800    242.42305   -379.00976    229018.04   -21158.996    1605.6551   -22764.651    19.996684   0.87555383 
    5900    242.94493   -198.71133    229018.04   -21178.121    1609.1117   -22787.232    20.017313   0.87555383 
    6000    233.11369   -269.64088    229018.04   -21270.475    1543.9959   -22814.471    20.370622   0.87555383 
    6100    231.63818   -277.94804    229018.04   -21247.985    1534.2231   -22782.208     20.54126   0.87555383 
    6200    238.75898   -421.72607    229018.04   -21216.938    1581.3867   -22798.325    20.605743   0.87555383 
    6300    242.27743   -403.01221    229018.04   -21179.335    1604.6906   -22784.026    20.863837   0.87555383 
    6400    239.10783    -415.2954    229018.04   -21162.262    1583.6972   -22745.959    21.379889   0.87555383 
    6500    243.59063   -412.89525    229018.04    -21190.11    1613.3884   -22803.498    21.703642   0.87555383 
    6600    235.78899   -548.30599    229018.04   -21230.367    1561.7153   -22792.082    22.044775   0.87555383 
    6700    234.76339   -375.39388    229018.04   -21268.228    1554.9225   -22823.151    22.320124   0.87555383 
    6800    237.28552   -291.87993    229018.04   -21223.754    1571.6274   -22795.382    22.649188   0.87555383 
    6900    235.00842   -236.89138    229018.04    -21258.22    1556.5454   -22814.766    23.012641   0.87555383 
    7000    232.53243   -327.39706    229018.04   -21280.344     1540.146    -22820.49    23.479708   0.87555383 
    7100    244.52832   -184.62929    229018.04   -21190.407    1619.5991   -22810.006    23.532547   0.87555383 
    7200    235.01413   -421.66075    229018.04   -21185.534    1556.5832   -22742.117    24.095229   0.87555383 
    7300    230.26525   -256.84914    229018.04   -21250.729    1525.1296   -22775.859    24.529431   0.87555383 
    7400    237.60447   -258.15702    229018.04   -21266.429    1573.7399   -22840.169    24.789112   0.87555383 
    7500     245.2272   -266.95742    229018.04   -21297.872     1624.228     -22922.1    24.984866   0.87555383 
    7600    236.30224   -268.37621    229018.04   -21316.785    1565.1148     -22881.9    25.036721   0.87555383 
    7700    232.07207   -370.76396    229018.04   -21274.717    1537.0969   -22811.813    25.417665   0.87555383 
    7800     237.9743    -420.8442    229018.04   -21230.712    1576.1895   -22806.901    25.805301   0.87555383 
    7900    243.78385   -301.52287    229018.04   -21209.946    1614.6682   -22824.614    25.890742   0.87555383 
    8000    244.08749    -216.7008    229018.04   -21219.457    1616.6793   -22836.136    25.888545   0.87555383 
    8100    241.83221   -258.52494    229018.04   -21251.249    1601.7418    -22852.99    26.365367   0.87555383 
    8200    237.90491   -102.12067    229018.04   -21289.581    1575.7299   -22865.311    26.544797   0.87555383 
    8300    236.45342   -294.76976    229018.04   -21316.187    1566.1161   -22882.303    26.814288   0.87555383 
    8400     231.2242   -400.07969    229018.04   -21314.931    1531.4811   -22846.412     26.96105   0.87555383 
    8500    234.78267   -317.75929    229018.04   -21312.341    1555.0501   -22867.392    27.084873   0.87555383 
    8600    240.25176   -249.30176    229018.04   -21254.792    1591.2739   -22846.066    27.470297   0.87555383 
    8700    237.10388   -445.19364    229018.04   -21334.122    1570.4243   -22904.546     27.87168   0.87555383 
    8800    240.77497   -319.85029    229018.04   -21284.093    1594.7393   -22878.832    28.258083   0.87555383 
    8900    230.92499   -286.98987    229018.04   -21306.016    1529.4993   -22835.515    28.484046   0.87555383 
    9000    236.65681   -287.94728    229018.04   -21248.408    1567.4633   -22815.871    28.641059   0.87555383 
    9100    238.69212   -282.92867    229018.04   -21213.881    1580.9438   -22794.825      28.7158   0.87555383 
    9200    241.09838   -415.04166    229018.04   -21252.195    1596.8814   -22849.076    28.830993   0.87555383 
    9300    230.70573   -245.05676    229018.04   -21272.804    1528.0471   -22800.851    29.008741   0.87555383 
    9400    236.56139   -332.27811    229018.04   -21298.716    1566.8312   -22865.547    29.379378   0.87555383 
    9500    236.91126   -161.88752    229018.04   -21257.134    1569.1486   -22826.282    29.531021   0.87555383 
    9600    237.03892   -189.42562    229018.04   -21334.382    1569.9941   -22904.376    29.878243   0.87555383 
    9700    230.50759   -243.78218    229018.04   -21277.554    1526.7347   -22804.289    30.106402   0.87555383 
    9800     233.1446   -275.07374    229018.04   -21279.512    1544.2006   -22823.713    30.324474   0.87555383 
    9900    242.35404   -335.35827    229018.04   -21207.202    1605.1981     -22812.4    30.616339   0.87555383 
   10000    243.62635   -199.74018    229018.04   -21123.308     1613.625   -22736.934    30.854707   0.87555383 
Loop time of 14.9572 on 160 procs for 10000 steps with 8943 atoms

Performance: 288.824 ns/day, 0.083 hours/ns, 668.573 timesteps/s
97.8% CPU use with 160 MPI tasks x no OpenMP threads

MPI task timing breakdown:
Section |  min time  |  avg time  |  max time  |%varavg| %total
---------------------------------------------------------------
Pair    | 0.00045156 | 3.0587     | 12.452     | 237.2 | 20.45
Neigh   | 0.00034261 | 0.10022    | 0.38654    |  39.2 |  0.67
Comm    | 0.014755   | 4.174      | 12.081     | 220.1 | 27.91
Output  | 0.17921    | 0.17939    | 0.18621    |   0.1 |  1.20
Modify  | 0.40903    | 7.2903     | 14.614     | 229.1 | 48.74
Other   |            | 0.1546     |            |       |  1.03

Nlocal:    55.8937 ave 177 max 0 min
Histogram: 72 6 40 2 0 0 0 0 4 36
Nghost:    539.581 ave 954 max 0 min
Histogram: 24 0 0 8 6 51 20 19 20 12
Neighs:    0 ave 0 max 0 min
Histogram: 160 0 0 0 0 0 0 0 0 0
FullNghs:  5634.9 ave 22235 max 0 min
Histogram: 89 31 0 0 0 0 0 2 19 19

Total # of neighbors = 901584
Ave neighs/atom = 100.814
Neighbor list builds = 571
Dangerous builds = 0
write_data 	    ${DIR}/data.${NAME}_eq
write_data 	    run_20/data.${NAME}_eq
write_data 	    run_20/data.ibeam_cooling_20_eq

undump              1
unfix               4



################################################
#######         Run Simulation         #########
################################################

reset_timestep      0
timestep	    10.0
log                 ${DIR}/log.run_${NAME}
log                 run_20/log.run_${NAME}
log                 run_20/log.run_ibeam_cooling_20
