
# Set production fixes - Nose/Hoover
#
fix                 4 water temp/csvr ${START_TEMP} ${END_TEMP} 500.0 928347
fix                 4 water temp/csvr 235 ${END_TEMP} 500.0 928347
fix                 4 water temp/csvr 235 225 500.0 928347


## divide "droplet" into core and surface
#region		core_reg cylinder z 135 135 44.6 20 INF units box
#region		surface_reg cylinder z 135 135 44.6 20 INF units box side out
#group		core dynamic all region core_reg
#group		surface dynamic all region surface_reg

## compute pressure core
#compute        peratom_core core stress/atom NULL
#compute        p_core core reduce sum c_peratom_core[1] c_peratom_core[2] c_peratom_core[3]
#variable       press_core equal -(c_p_core[1]+c_p_core[2]+c_p_core[3])/(3*1249982.5)


## compute pressure surface
#compute        peratom_surf surface stress/atom NULL
#compute        p_surf surface reduce sum c_peratom_surf[1] c_peratom_surf[2] #c_peratom_surf[3]
#variable       press_surf equal -(c_p_surf[1]+c_p_surf[2]+c_p_surf[3])/(3*42395)

## compute total pressure of drop
compute        peratom water stress/atom NULL
compute        p water reduce sum c_peratom[1] c_peratom[2] c_peratom[3]
variable       press equal -(c_p[1]+c_p[2]+c_p[3])/(3*50402)


# compute order parameter
compute        3 all orientorder/atom nnn NULL cutoff 3.5

# compute center of mass of bridge
compute 	4 water com

# Run simulation
thermo_style        custom step c_2 press vol etotal ke pe v_press c_1[4] c_4[*]
thermo              200
dump		     1 water custom 400 ${DIR}/prod.${NAME}.dump id type x y z vx vy vz c_3[*] c_peratom[*]
dump		     1 water custom 400 run_16/prod.${NAME}.dump id type x y z vx vy vz c_3[*] c_peratom[*]
dump		     1 water custom 400 run_16/prod.ibeam_cooling_16.dump id type x y z vx vy vz c_3[*] c_peratom[*]
run                 ${STEPS}
run                 4000000
Neighbor list info ...
  update every 1 steps, delay 0 steps, check yes
  max neighbors/atom: 2000, page size: 100000
  master list distance cutoff = 6.67472
  ghost atom cutoff = 6.67472
  binsize = 3.33736, bins = 24 25 11
  2 neighbor lists, perpetual/occasional/extra = 1 1 0
  (1) pair sw, perpetual
      attributes: full, newton on
      pair build: full/bin/atomonly
      stencil: full/bin/3d
      bin: standard
  (2) compute orientorder/atom, occasional, copy from (1)
      attributes: full, newton on
      pair build: copy
      stencil: none
      bin: none
Per MPI rank memory allocation (min/avg/max) = 6.149 | 6.79 | 7.275 Mbytes
Step c_2 Press Volume TotEng KinEng PotEng v_press c_1[4] c_4[1] c_4[2] c_4[3] 
       0    230.50417   -456.92577    216156.16   -20242.624    1460.0644   -21702.689   -1237.6179    30.755861    39.427043    39.246789    23.618771 
     200    234.29793   -401.76958    216156.16   -20254.503     1484.095   -21738.598   -1069.0542    31.669849    39.424871    39.249747    23.603686 
     400    230.07756   -423.65657    216156.16   -20219.667    1457.3622    -21677.03   -1163.0327    32.886609    39.422444    39.250019    23.605491 
     600    239.33064   -366.13317    216156.16    -20090.24    1515.9732   -21606.213   -867.62319     34.07633    39.424458     39.25021    23.622705 
     800    240.19804   -526.36438    216156.16   -20126.117    1521.4675   -21647.585   -1560.2382    34.720327    39.425588    39.250948    23.623711 
    1000    232.43908   -358.83734    216156.16   -20229.873    1472.3206   -21702.193   -866.68912    35.941389    39.425489    39.247233    23.618245 
    1200    232.63245   -396.11074    216156.16    -20231.79    1473.5454   -21705.335   -1084.1417    36.918545    39.426067     39.24665    23.628812 
    1400    233.44945   -323.06599    216156.16    -20213.68    1478.7205   -21692.401   -739.63992    38.119808    39.427562    39.244945    23.642462 
    1600    239.85116   -280.69293    216156.16   -20201.655    1519.2703   -21720.925   -500.46769    39.943703    39.427294    39.243179    23.648377 
    1800    236.24483   -171.61734    216156.16   -20168.349    1496.4271   -21664.776   -75.542948     40.46381    39.429863    39.243392    23.668241 
    2000    233.09964   -474.55121    216156.16   -20045.301    1476.5047   -21521.806   -1366.2171    41.595175    39.432052    39.240864    23.656585 
    2200    236.89193   -365.44989    216156.16   -20128.556    1500.5259   -21629.082   -941.92707    43.135214    39.435743    39.239981     23.65381 
    2400    241.89384   -434.28321    216156.16   -20159.829    1532.2091   -21692.038   -1186.1964    44.044392    39.437862    39.237677    23.666184 
    2600    232.53872   -409.58208    216156.16   -20205.705    1472.9517   -21678.656   -1055.6414    46.238357    39.435622    39.239179    23.653996 
    2800    237.63892     -405.304    216156.16   -20123.702    1505.2575    -21628.96   -1068.6762    47.691038    39.435721    39.240984    23.633545 
    3000    238.96418   -281.31198    216156.16   -20118.367     1513.652   -21632.019   -565.87516    50.133809    39.434972    39.244595    23.634608 
    3200    235.99076   -474.11588    216156.16   -20197.573    1494.8177   -21692.391   -1310.5848    51.968154    39.434582    39.246732    23.629437 
    3400    239.16078   -372.88178    216156.16   -20222.374    1514.8973   -21737.272   -912.67029     52.56242    39.434154    39.246691    23.638094 
    3600    232.63792   -396.02069    216156.16   -20232.154    1473.5801   -21705.734   -1006.3077    52.639273    39.432966     39.24884    23.616385 
    3800    243.04103   -302.81407    216156.16    -20202.99    1539.4757   -21742.466   -642.89822    53.733659    39.432316    39.248114    23.622211 
    4000     236.6315   -357.83708    216156.16   -20258.692    1498.8763   -21757.568   -891.72454    54.347851    39.431012    39.244947    23.626911 
    4200    235.01623   -291.88548    216156.16   -20256.113    1488.6448   -21744.758    -598.4111    54.592334    39.431195    39.244124    23.640439 
    4400    236.91015   -514.63925    216156.16   -20249.225    1500.6413   -21749.867    -1545.215     56.09978    39.430417     39.24422    23.638039 
    4600    234.83026   -484.55569    216156.16   -20326.668    1487.4668   -21814.135   -1353.0215    57.107783    39.431216    39.245566    23.642164 
    4800    240.07054   -380.17962    216156.16   -20188.244      1520.66   -21708.904   -943.42195     58.10154    39.434223     39.24623    23.624727 
    5000    238.13379   -447.10496    216156.16   -20230.064    1508.3921   -21738.456    -1226.096    59.236127    39.434596    39.244235    23.634715 
    5200    236.00341   -407.03584    216156.16   -20239.306    1494.8978   -21734.204   -1057.2201    60.100282    39.436947    39.242847    23.657323 
    5400    229.26164   -449.90268    216156.16   -20256.429     1452.194   -21708.623   -1257.2373    60.682147    39.441146    39.241891    23.673559 
    5600      230.105   -387.03169    216156.16   -20251.501     1457.536   -21709.037   -959.51774    60.776827    39.444473    39.240021    23.676105 
    5800    240.83134   -362.24034    216156.16   -20189.193     1525.479   -21714.672   -893.60616    62.156661    39.445343    39.241027    23.671209 
    6000    229.88356   -341.08062    216156.16   -20234.376    1456.1333    -21690.51   -775.34437    62.185529    39.444578    39.242643    23.666631 
    6200     235.7445    -344.5161    216156.16   -20236.907    1493.2578   -21730.164   -822.77352    63.596088    39.444549     39.24837    23.669685 
    6400    234.77071   -346.84126    216156.16   -20233.472    1487.0896   -21720.562   -817.46049    64.856797    39.444162     39.24828    23.665343 
    6600    236.12994   -455.08434    216156.16     -20250.5    1495.6993   -21746.199   -1256.1961    65.811958    39.444456    39.250971    23.661321 
    6800    234.72787   -348.49836    216156.16   -20225.237    1486.8183   -21712.055   -832.39942    66.392576    39.445592     39.25103    23.643818 
    7000    235.60198    -149.9191    216156.16   -20188.744    1492.3551   -21681.099   -16.449435    67.465071    39.443274    39.252266    23.637448 
    7200    225.42868   -375.74532    216156.16   -20246.619    1427.9152   -21674.534   -978.30561    68.595475    39.443642    39.254102    23.612317 
    7400    234.70395   -423.99549    216156.16   -20200.205    1486.6668   -21686.872   -1147.9946    69.659386    39.444374     39.25519    23.626404 
    7600    244.08365   -310.41964    216156.16   -20098.819    1546.0799   -21644.899   -690.69447    70.451869    39.441927    39.253983    23.610372 
    7800    229.75666   -387.88688    216156.16   -20217.726    1455.3296   -21673.055   -1038.6537    71.732522    39.440818    39.251385    23.598536 
    8000    236.87617   -519.50875    216156.16   -20119.982    1500.4261   -21620.408   -1562.5712    73.432066    39.443891    39.250103    23.635835 
    8200    237.67051   -300.30691    216156.16   -20137.639    1505.4576   -21643.097   -621.53346    74.105536    39.443893     39.25044    23.643218 
    8400    241.34984   -335.45197    216156.16   -20101.747    1528.7633   -21630.511   -751.57809    75.235089     39.44466    39.249254    23.653314 
    8600    236.03161   -420.36685    216156.16   -20169.892    1495.0765   -21664.969    -1152.032    76.766249    39.443527    39.250291     23.67419 
    8800    235.38503   -252.42641    216156.16   -20176.416    1490.9809   -21667.397   -412.62519    78.433892    39.441234    39.249721    23.673835 
    9000    231.03735   -492.53844    216156.16   -20179.899    1463.4417   -21643.341   -1427.3856    79.588195    39.437354    39.249487    23.688726 
    9200    233.48493   -484.70251    216156.16   -20118.244    1478.9452   -21597.189   -1397.5381    79.573291    39.435986    39.248931    23.715435 
    9400    234.07438   -441.26393    216156.16   -20145.811     1482.679    -21628.49   -1181.7981     81.46124    39.435611    39.247784    23.738179 
    9600    229.09593   -535.63379    216156.16   -20187.049    1451.1443   -21638.193   -1587.8247    82.724035      39.4364    39.245974    23.728343 
    9800    235.09405    -260.3978    216156.16   -20110.173    1489.1378   -21599.311   -444.08689    84.279298    39.435928    39.242703    23.745779 
   10000    232.39691   -553.47371    216156.16   -20151.204    1472.0535   -21623.258   -1619.4138    84.928692    39.434367    39.242202    23.734287 
   10200    244.79768   -418.11027    216156.16   -20112.434    1550.6027   -21663.036   -1134.7968    85.487194    39.434082    39.242184    23.749845 
   10400    238.76886    -285.9546    216156.16   -20121.423    1512.4148   -21633.838   -594.54088    85.696557    39.434307    39.240867    23.743184 
   10600     241.1391   -419.91759    216156.16   -20194.768    1527.4284   -21722.196   -1158.4934    87.410371    39.432547    39.239674     23.77197 
   10800    232.98448   -329.29977    216156.16   -20243.667    1475.7753   -21719.443    -713.5158     88.71343    39.432071    39.239633    23.763191 
   11000    238.23604   -483.84955    216156.16    -20232.08    1509.0398    -21741.12   -1453.3789    89.892105    39.433084    39.240442    23.753303 
   11200    231.55799    -307.3391    216156.16   -20237.008    1466.7396   -21703.747   -621.93682    91.014383    39.432367    39.241691    23.744275 
   11400    238.04412   -374.44656    216156.16   -20230.955    1507.8242   -21738.779   -945.95777    92.047522    39.431554    39.239797    23.748526 
   11600    241.96435   -457.72199    216156.16   -20147.357    1532.6558   -21680.013   -1259.0167    94.671402    39.427588    39.240825      23.7405 
   11800     234.1292   -407.17398    216156.16   -20147.019    1483.0262   -21630.045   -1073.8088    95.940088    39.426852    39.241434    23.732824 
   12000    234.38728   -382.24905    216156.16   -20139.405    1484.6609   -21624.066   -941.03458    96.861883     39.42927    39.243223    23.752076 
   12200    239.04383   -479.98639    216156.16   -20107.671    1514.1565   -21621.828   -1350.2896    96.898662    39.426633    39.243428    23.764762 
   12400     236.1237   -427.95371    216156.16   -20155.976    1495.6598   -21651.635   -1146.2576    97.940402    39.424741    39.245034    23.746725 
   12600    237.17134   -391.81729    216156.16   -20117.397    1502.2958   -21619.693   -995.93154    98.261497     39.42197    39.245163    23.738155 
   12800    240.50048    -368.7421    216156.16   -20179.934    1523.3832   -21703.318   -917.07004    100.83285    39.418957    39.244655    23.730742 
   13000    231.66671   -296.04585    216156.16    -20196.67    1467.4282   -21664.098   -559.45882    101.49198    39.419206    39.245147    23.727742 
   13200    234.89417   -429.90702    216156.16   -20210.934    1487.8717   -21698.806   -1227.9948     102.4539    39.415447    39.245913    23.725637 
   13400    227.83375   -454.56597    216156.16    -20282.43    1443.1494   -21725.579   -1260.2163    103.74928    39.416051    39.244671    23.721505 
   13600    237.94759   -368.46381    216156.16   -20238.775    1507.2127   -21745.987   -864.57992    104.49417    39.416203    39.244347    23.706076 
   13800     234.6354    -251.8006    216156.16   -20218.876    1486.2325   -21705.108   -428.42894     105.5474    39.415785    39.246101    23.685367 
   14000    236.79194   -416.26875    216156.16   -20153.883    1499.8926   -21653.776   -1103.3303    106.93099    39.415681    39.247377    23.674815 
   14200    235.90035   -563.78826    216156.16   -20179.493     1494.245   -21673.738   -1745.5602    107.57809    39.414892    39.249267    23.662276 
   14400     225.4343   -365.58594    216156.16   -20220.386    1427.9507   -21648.336   -873.86995    108.36164    39.416348    39.248395    23.643767 
   14600    237.09071   -481.07499    216156.16    -20203.21     1501.785   -21704.995   -1398.9143    110.10841     39.41622    39.247162    23.608002 
   14800    232.56342   -389.35385    216156.16     -20157.1    1473.1082   -21630.208   -1020.8937    111.84632    39.417619    39.246661    23.597923 
   15000     232.8719   -357.36926    216156.16   -20221.096    1475.0622   -21696.158   -930.41913    112.92633    39.417652    39.247638    23.602244 
   15200    242.69413   -434.46489    216156.16   -20147.439    1537.2783   -21684.718   -1183.3716    112.22357    39.419089    39.250208    23.595631 
   15400    232.12296    -604.6598    216156.16   -20241.146    1470.3182   -21711.464   -1886.4956    114.28138    39.419223    39.249263    23.575797 
   15600    241.07583   -417.36006    216156.16   -20088.148    1527.0277   -21615.176   -1110.2663    115.45716    39.419293    39.247301    23.560239 
   15800    233.28411   -415.75907    216156.16    -20150.33    1477.6732   -21628.003    -1097.114    116.83514    39.419988    39.247606    23.561751 
   16000    238.64643    -390.0984    216156.16   -20193.361    1511.6393       -21705   -1004.9949    118.04705    39.420035    39.248493    23.542929 
   16200    236.33129   -391.83203    216156.16     -20150.7    1496.9747   -21647.674   -1053.0566    119.60781    39.419902    39.247178     23.54363 
   16400    231.96668   -322.31883    216156.16   -20192.437    1469.3283   -21661.765   -721.72539    120.68147    39.419134    39.244969    23.540289 
   16600    239.88197    -325.4524    216156.16   -20117.014    1519.4655    -21636.48   -717.85197    121.01987    39.422011    39.244179     23.54455 
   16800    235.65578   -621.32252    216156.16   -20198.004    1492.6959     -21690.7   -1991.6905     121.9146    39.420279    39.244126    23.539656 
   17000     231.6831   -357.75419    216156.16   -20248.605     1467.532   -21716.137   -864.52646    122.49978    39.420087    39.243013     23.50914 
   17200    229.17119   -454.26036    216156.16   -20263.722    1451.6211   -21715.343   -1245.9513    123.42865    39.419455    39.242225    23.524495 
   17400    228.48019    -504.1096    216156.16   -20308.597    1447.2441   -21755.841    -1514.368     123.8334    39.419064    39.241426    23.504672 
   17600    233.24151   -427.30674    216156.16   -20263.802    1477.4033   -21741.205    -1166.851    126.34054    39.418359    39.239934    23.518876 
   17800    230.72125   -231.98894    216156.16       -20285    1461.4395   -21746.439   -316.88421    127.36344    39.415881    39.241062    23.529937 
   18000    238.24871   -460.12487    216156.16   -20232.291    1509.1201   -21741.411   -1320.6193    127.83611    39.415642    39.242807    23.545564 
   18200    233.44422   -304.47199    216156.16    -20249.52    1478.6873   -21728.207   -605.64639    127.92908    39.414249    39.241719    23.556841 
   18400    231.45018   -306.25933    216156.16   -20192.991    1466.0567   -21659.048   -644.11273     128.3583    39.414052    39.241139    23.556357 
   18600    237.78591    -480.2336    216156.16   -20137.043    1506.1886   -21643.232   -1345.3174     128.3792     39.41159    39.239128    23.542926 
   18800    232.94885   -620.55488    216156.16   -20165.731    1475.5496    -21641.28   -1954.2168    131.31711    39.408355    39.237952    23.552806 
   19000    237.17659   -267.23196    216156.16   -20122.428     1502.329   -21624.757    -475.1606    131.64489    39.407939    39.238946    23.543777 
   19200    229.67807   -511.09134    216156.16   -20153.642    1454.8317   -21608.474   -1519.5938    131.90437    39.409637    39.238845    23.539099 
   19400    234.12874   -432.27442    216156.16   -20082.034    1483.0233   -21565.057   -1164.1357    132.31357    39.407594    39.237244    23.535165 
   19600    231.31164   -454.48674    216156.16   -20077.325    1465.1791   -21542.504   -1256.0061    132.98998    39.408328    39.237247    23.529981 
   19800    235.60242    -273.3018    216156.16   -20065.961    1492.3579   -21558.319   -520.48521    134.55995    39.407597     39.23857    23.497251 
   20000    236.31662   -421.77373    216156.16   -20129.743    1496.8818   -21626.625   -1158.7091    135.70706    39.407577    39.238092    23.480832 
   20200    236.14555   -325.89349    216156.16   -20182.146    1495.7982   -21677.944   -741.00548    136.24153    39.407251    39.235812    23.473568 
   20400    234.27416   -625.67275    216156.16   -20089.158    1483.9444   -21573.103   -2023.6657    138.90642    39.404721    39.233288    23.471628 
   20600    231.70972   -410.12423    216156.16   -20160.324    1467.7007   -21628.024   -1118.2855    140.34121    39.403698    39.231181    23.481385 
   20800     241.7675   -266.48973    216156.16   -20098.663    1531.4089   -21630.072   -470.47744    142.43415    39.404074    39.230648    23.452591 
   21000    235.15206   -405.47798    216156.16   -20133.794    1489.5052   -21623.299   -1057.5982    141.92797    39.403763    39.228348     23.47368 
   21200    238.92178   -316.81757    216156.16   -20146.039    1513.3835   -21659.422   -674.62334    143.59628    39.400706    39.228225     23.46522 
   21400    234.15831   -364.94831    216156.16   -20151.933    1483.2106   -21635.144   -905.16253    145.04814    39.399203    39.227245    23.485318 
   21600    239.08599   -398.87241    216156.16    -20052.12    1514.4236   -21566.544   -1037.7976    145.45343     39.39789    39.226529    23.501766 
   21800    235.12594   -461.83329    216156.16   -20181.209    1489.3398   -21670.548   -1300.1608    145.98624    39.394983    39.226954    23.545932 
   22000    231.80929   -323.43554    216156.16   -20196.825    1468.3314   -21665.156   -657.30371    147.30097    39.392715    39.228778    23.580498 
   22200    233.04417   -517.10322    216156.16   -20246.716    1476.1534   -21722.869   -1490.7137    149.37376    39.391441    39.229673    23.577605 
   22400    236.28122   -437.38534    216156.16    -20136.59    1496.6575   -21633.247    -1182.989    149.56544    39.390559    39.229011    23.553522 
   22600    231.65579   -318.43423    216156.16   -20158.077    1467.3591   -21625.436   -688.50596    150.65617    39.389783     39.22912    23.562746 
   22800    236.90803    -349.6509    216156.16   -20131.443    1500.6279   -21632.071   -819.17405    150.55145    39.388854     39.22904    23.561405 
   23000    235.19188   -400.91493    216156.16   -20213.965    1489.7575   -21703.722   -1073.6415     150.2417    39.387203    39.228434    23.576077 
   23200    232.14949    -285.3272    216156.16   -20141.188    1470.4863   -21611.674   -547.49246    151.37888    39.384263    39.226356    23.580872 
   23400    239.84849   -383.26181    216156.16   -20181.091    1519.2534   -21700.344   -963.89448    151.56663    39.384681    39.225841    23.588416 
   23600    235.60642   -304.23247    216156.16   -20109.957    1492.3832    -21602.34   -574.27915    152.61285    39.384809      39.2262    23.596844 
   23800    243.11725   -352.08297    216156.16   -20128.747    1539.9585   -21668.705   -821.57834    154.22808    39.386111    39.229035    23.596468 
   24000    235.61113   -382.41567    216156.16   -20167.087    1492.4131     -21659.5   -983.29213    153.84605     39.38615    39.230051    23.601995 
   24200    231.04695   -438.52199    216156.16   -20174.267    1463.5025    -21637.77    -1215.687    154.56063     39.38691    39.230099      23.5839 
   24400    234.94092   -308.03537    216156.16   -20215.744    1488.1678   -21703.912   -703.53196     155.4706    39.387224    39.230407    23.573875 
   24600     230.5787   -386.78573    216156.16   -20220.831    1460.5365   -21681.368   -1003.6618    155.24653    39.388843    39.230404    23.596234 
   24800    233.62666   -438.59045    216156.16    -20208.74     1479.843   -21688.583   -1167.9322    157.94038    39.390861    39.231031    23.596572 
   25000    230.25075   -335.08046    216156.16   -20195.493    1458.4592   -21653.952   -744.40755    158.81585    39.392293    39.228991    23.608194 
   25200    224.60235   -372.74396    216156.16   -20295.424     1422.681   -21718.105   -897.67089     158.8286    39.391069      39.2297       23.599 
   25400    237.61156   -259.57116    216156.16   -20167.387    1505.0842   -21672.471   -492.87091    160.05283    39.390197     39.23079    23.598101 
   25600    250.51304   -356.67592    216156.16   -20043.098    1586.8051   -21629.903   -878.67643    161.35283    39.390088    39.231602    23.632156 
   25800    241.38323   -285.88622    216156.16   -20088.778    1528.9748   -21617.753   -552.83033    161.31369    39.391197    39.230748    23.638638 
   26000    230.54303   -453.26326    216156.16   -20126.371    1460.3106   -21586.682   -1266.9399    163.36212    39.391511    39.231837    23.644769 
   26200    235.03179   -373.71071    216156.16   -20150.406    1488.7434   -21639.149   -905.18239    164.13304    39.392989    39.232224    23.648364 
   26400    232.20679   -409.87405    216156.16   -20164.109    1470.8492   -21634.958   -1105.2834    164.56667    39.395126    39.230475    23.638278 
   26600    241.87938   -361.91258    216156.16   -20076.408    1532.1175   -21608.525   -881.20301    166.35992    39.396813    39.231557    23.651674 
   26800     241.0822   -401.77059    216156.16   -20115.656     1527.068   -21642.724   -1033.7683    166.14064    39.400565     39.23272    23.657595 
   27000    241.12878   -352.39946    216156.16   -20067.952    1527.3631   -21595.315   -817.53708    166.98162    39.401908    39.235458    23.664161 
   27200    239.39356   -472.68531    216156.16   -20122.986    1516.3718   -21639.358   -1346.6836    169.54442    39.401744    39.236134    23.639316 
   27400    234.37272   -333.07972    216156.16   -20069.874    1484.5687   -21554.443   -771.43368    170.05575    39.402151    39.236908    23.630431 
   27600    226.07959   -360.46234    216156.16   -20196.354    1432.0382   -21628.392   -864.29496      172.042    39.402077     39.23885    23.627814 
   27800    233.95654   -555.14922    216156.16   -20091.014    1481.9325   -21572.947   -1722.5152    172.51505    39.402834    39.236576    23.636936 
   28000    230.31675   -363.28165    216156.16    -20155.56    1458.8773   -21614.437   -924.58484    171.76955    39.400582    39.236504    23.648655 
   28200    236.95484   -311.95873    216156.16   -20146.963    1500.9244   -21647.887   -710.12537    172.53614    39.398692    39.236362    23.660794 
   28400    240.70035   -347.98011    216156.16   -20144.135    1524.6493   -21668.784   -766.46261     173.3442    39.399318    39.234303    23.666258 
   28600    229.19774   -267.28223    216156.16   -20180.914    1451.7892   -21632.703   -503.29546    173.68667    39.401232    39.233653    23.659839 
   28800    229.53873   -205.37484    216156.16   -20184.834    1453.9491   -21638.784   -256.97279    174.39471    39.400743    39.233207    23.639315 
   29000    238.79279   -412.74898    216156.16   -20137.941    1512.5664   -21650.508   -1149.8681    176.71934    39.400381    39.233068    23.659949 
   29200    237.89121   -560.82322    216156.16   -20068.733    1506.8556   -21575.589   -1736.5261    179.02717    39.399441    39.233317    23.673989 
   29400    241.62165   -334.79735    216156.16   -20129.589     1530.485   -21660.074   -767.35495    179.30551    39.397613    39.233615    23.669994 
   29600    240.37143   -82.860969    216156.16   -20126.311    1522.5658   -21648.876    319.69992    180.56419       39.394    39.234272    23.684367 
   29800    227.00729    -432.6796    216156.16   -20226.765    1437.9144   -21664.679   -1147.9666    182.16246    39.393387    39.236659    23.664235 
   30000    230.39844    -375.9819    216156.16   -20304.134    1459.3947   -21763.529   -913.75292     184.0805    39.392838    39.234972    23.642104 
   30200    240.43001   -434.42576    216156.16   -20260.738    1522.9369   -21783.675   -1199.2967    184.70379    39.391551    39.234307    23.658892 
   30400     232.9809   -457.09294    216156.16   -20252.554    1475.7526   -21728.307   -1248.7692    183.94856    39.393615    39.233409    23.676946 
   30600    231.54587   -335.26982    216156.16    -20292.89    1466.6628   -21759.553   -767.53317    184.51459    39.393732    39.234242    23.674095 
   30800    239.18456   -452.61427    216156.16   -20251.074    1515.0479   -21766.122    -1283.753     186.0235    39.392987    39.233472    23.686606 
   31000    228.67934    -465.4966    216156.16   -20264.201    1448.5056   -21712.706   -1372.6802    186.14734    39.395517    39.233854    23.697588 
   31200    238.55907   -338.58065    216156.16   -20214.322     1511.086   -21725.408   -805.72238    186.04747    39.395326    39.234986    23.694958 
   31400     233.6326   -254.22566    216156.16   -20243.624    1479.8806   -21723.505   -430.81665    187.54779    39.395718    39.233957    23.677742 
   31600    236.68497   -373.19976    216156.16    -20283.56     1499.215   -21782.775   -918.68761    187.98862    39.397181    39.233088    23.707424 
   31800    238.44487   -346.83603    216156.16   -20198.211    1510.3626   -21708.573   -824.86392    189.66003    39.398701     39.23329    23.722057 
   32000    230.78057   -241.32264    216156.16    -20277.04    1461.8152   -21738.855   -356.93534    189.82624    39.400646    39.232613    23.717431 
   32200    231.69274   -158.90351    216156.16   -20237.638    1467.5931   -21705.232   -43.551954    188.92155     39.39871    39.231611    23.738748 
   32400    231.63664   -283.72948    216156.16   -20214.516    1467.2377   -21681.753   -582.19564    188.65593    39.397827    39.231726    23.735302 
   32600    234.73253   -413.81981    216156.16   -20140.814    1486.8478   -21627.662   -1158.2321    189.34323    39.399599    39.231433    23.744691 
   32800    237.71582   -251.17406    216156.16   -20154.848    1505.7446   -21660.593   -438.41053    190.16058    39.397957    39.233044    23.755714 
   33000    241.35186   -358.34933    216156.16   -20137.727    1528.7761   -21666.503   -901.09034    190.61132    39.397754    39.234859    23.773765 
   33200    235.41783     -593.753    216156.16   -20196.289    1491.1886   -21687.477   -1894.9195    192.52226    39.398731    39.234483    23.802893 
   33400    241.28993   -264.60429    216156.16   -20243.294    1528.3839   -21771.678    -480.4595    192.81597    39.398388    39.235582     23.78818 
   33600    231.33994   -427.73895    216156.16   -20244.162    1465.3584   -21709.521   -1156.8638    194.24894    39.399103    39.235692    23.789103 
   33800    238.41713   -208.59435    216156.16   -20094.849    1510.1869   -21605.036   -274.26325    194.71543    39.396556    39.235309    23.773965 
   34000    235.31546   -463.82263    216156.16   -20206.895    1490.5402   -21697.436   -1301.6198    195.29232    39.395217    39.233562    23.782886 
   34200    234.97081   -455.94852    216156.16   -20213.643    1488.3572       -21702   -1300.6499    196.27549    39.394153    39.232791    23.780122 
   34400    233.12585   -394.86474    216156.16   -20269.897    1476.6707   -21746.568   -1031.9854    196.30399    39.393045    39.230615    23.807633 
   34600    238.73385   -312.71487    216156.16   -20118.962     1512.193   -21631.155   -667.01879    197.88837    39.393843    39.229361    23.816878 
   34800    231.45114   -413.89931    216156.16   -20208.382    1466.0628   -21674.444   -1133.7644    200.26488    39.394499      39.2272      23.8448 
   35000     232.5068    -480.2639    216156.16   -20217.988    1472.7496   -21690.737   -1385.7721     201.9612    39.394365    39.225736    23.841484 
   35200    234.86715   -285.10877    216156.16   -20165.338    1487.7005   -21653.039   -529.80763    202.51512    39.394634    39.224659    23.836695 
   35400    236.32472    -514.4094    216156.16   -20159.551    1496.9331   -21656.484   -1531.3097     202.1961    39.392395    39.223511    23.810534 
   35600    234.16344   -337.19153    216156.16   -20163.294     1483.243   -21646.537   -782.73701    202.25502    39.392847    39.222119    23.800966 
   35800    245.97402   -364.57066    216156.16   -20105.544    1558.0539   -21663.598   -886.01278    203.40197    39.389237    39.218721    23.832799 
   36000    234.47323   -310.13991    216156.16   -20236.818    1485.2054   -21722.024   -667.71027    204.25677    39.388707    39.215798    23.818116 
   36200    234.91799   -271.68672    216156.16   -20242.536    1488.0226   -21730.558   -510.95416    205.61679    39.388515     39.21349    23.803371 
   36400     233.5111   -439.39013    216156.16   -20187.661     1479.111   -21666.772   -1166.8433    207.29492     39.38586    39.213644    23.806943 
   36600    235.45511   -355.85969    216156.16    -20170.83    1491.4248   -21662.254   -851.95663    207.59379    39.384603    39.213457    23.809232 
   36800    227.89791   -353.90066    216156.16    -20229.19    1443.5558   -21672.746   -825.22548    208.32749    39.380407    39.212558    23.819771 
   37000    234.21347   -494.43785    216156.16   -20248.113      1483.56   -21731.673   -1453.3181    207.87526      39.3814    39.211619    23.812283 
   37200    236.94026   -429.49872    216156.16   -20268.311     1500.832   -21769.143   -1168.6092    209.33906    39.380577    39.206669    23.801075 
   37400     233.1292   -387.48347    216156.16   -20280.206    1476.6919   -21756.898   -978.00798    208.39326    39.377613     39.20355    23.802937 
   37600    229.14135   -595.59746    216156.16   -20311.505     1451.432   -21762.937   -1875.4829    209.12421    39.376141    39.201497    23.825003 
   37800    227.57477   -231.47656    216156.16   -20343.076    1441.5089   -21784.585   -373.52033     209.9902    39.376786     39.20197    23.823251 
   38000    236.69175   -261.80541    216156.16   -20265.109    1499.2579   -21764.366   -417.43781    210.37801    39.376804    39.202171    23.808612 
   38200    235.54731   -401.98762    216156.16   -20257.386    1492.0088   -21749.395   -1105.7193    211.48131    39.375706    39.203757      23.7961 
   38400    244.33928   -329.21309    216156.16   -20202.132    1547.6991   -21749.831   -750.58543    212.03914    39.376613    39.205039    23.781811 
   38600    236.02779   -380.05587    216156.16   -20228.037    1495.0523   -21723.089   -918.46706    211.92382    39.373893    39.206906    23.746241 
   38800    232.50596   -319.18756    216156.16   -20197.652    1472.7442   -21670.396   -691.36073    212.80239    39.375439    39.207033    23.744026 
   39000    240.73222   -368.83481    216156.16   -20142.602    1524.8512   -21667.454   -901.73822    213.97006    39.374858    39.206937     23.72781 
   39200     229.0407   -465.65609    216156.16    -20206.42    1450.7945   -21657.214   -1354.3145    216.28955    39.374269     39.20761    23.735719 
   39400    240.89986   -422.34975    216156.16   -20178.022    1525.9131   -21703.935   -1138.0718    215.37225    39.375243    39.206822    23.758104 
   39600    236.59382   -399.12517    216156.16   -20112.403    1498.6376   -21611.041   -1034.3045    216.97357    39.376306    39.207897    23.741416 
   39800    233.23269   -283.80011    216156.16   -20171.038    1477.3475   -21648.386     -605.439     217.8355     39.37782    39.208146    23.728695 
   40000     234.7153   -466.36745    216156.16   -20129.365    1486.7387   -21616.104   -1310.9421    219.34195     39.37913    39.207835    23.740601 
   40200    234.35878    -334.6004    216156.16   -20128.406    1484.4804   -21612.886   -726.44857    219.31541    39.380096    39.208255    23.726213 
   40400    234.59688   -410.86125    216156.16    -20146.97    1485.9886   -21632.958    -1086.003    219.31849     39.38145    39.207415    23.737562 
   40600    234.98087   -360.33686    216156.16   -20116.183    1488.4208   -21604.603   -911.20465      220.878    39.380291    39.205212    23.736888 
   40800    235.89318   -399.54297    216156.16   -20202.245    1494.1996   -21696.444   -1079.7457    221.80775    39.381814    39.204941    23.723336 
   41000    232.06345   -461.03651    216156.16   -20203.395    1469.9412   -21673.337   -1355.9719    222.57939    39.383026    39.205898    23.690754 
   41200    239.07363   -403.57146    216156.16   -20126.662    1514.3453   -21641.007   -1035.6149    222.97364    39.379655    39.207407    23.711301 
   41400    232.25656   -475.89517    216156.16   -20184.688    1471.1644   -21655.853   -1361.2002    225.67385    39.377899    39.206968    23.690277 
   41600    232.62713   -472.83786    216156.16   -20172.486    1473.5117   -21645.997   -1347.1804    226.76143     39.37812    39.205507     23.67816 
   41800    230.17456   -332.50237    216156.16   -20148.322    1457.9766   -21606.299   -771.30403    228.81679    39.377757    39.206705    23.669294 
   42000    233.71642   -441.10936    216156.16   -20156.733    1480.4116   -21637.145   -1213.3466    230.57949    39.379475    39.206522    23.684707 
   42200    235.67611   -326.59282    216156.16    -20224.34    1492.8246   -21717.165    -724.0704    232.46914    39.380264    39.205107    23.678278 
   42400    242.17109   -397.19596    216156.16   -20167.052    1533.9653   -21701.018   -1002.2349    231.86351    39.382615    39.207025    23.668877 
   42600    225.59482   -445.83551    216156.16   -20178.782    1428.9675   -21607.749   -1223.6977    232.73388     39.38137    39.206946    23.701832 
   42800    234.29857   -545.76696    216156.16   -20120.929     1484.099   -21605.028    -1689.002    234.09465    39.381415    39.205152    23.683136 
   43000    239.04866   -510.45515    216156.16   -20148.848    1514.1871   -21663.035   -1554.5485    233.87376    39.384117    39.203509    23.677103 
   43200    239.54944   -295.34332    216156.16   -20164.817    1517.3592   -21682.177   -572.49418    235.24697    39.383643    39.202845    23.652759 
   43400    232.27363   -468.65574    216156.16    -20164.34    1471.2726   -21635.612   -1324.5807    235.10345    39.383692    39.202111    23.657465 
   43600    232.64517   -496.00711    216156.16   -20209.701     1473.626   -21683.327   -1469.7105    236.24458    39.384145    39.201947    23.679412 
   43800    237.85233   -392.71578    216156.16    -20237.58    1506.6093   -21744.189   -1025.0738    237.28685    39.386428    39.201068     23.70196 
   44000    230.07359   -395.09094    216156.16   -20296.003     1457.337    -21753.34    -1012.997    239.24773    39.386637    39.200629    23.701765 
   44200    231.51755   -577.46931    216156.16   -20239.607    1466.4834   -21706.091    -1776.635    242.05205    39.388815    39.198908    23.703916 
   44400    234.90305   -398.66422    216156.16   -20279.623    1487.9279   -21767.551   -1022.1702    240.47575    39.388708    39.199576    23.695782 
   44600    225.37646   -344.42945    216156.16     -20283.3    1427.5844   -21710.884   -824.41184      240.548    39.388769    39.198025    23.681666 
   44800    232.81516   -389.62596    216156.16   -20276.449    1474.7028   -21751.152   -968.72796    241.70906    39.390213    39.197028    23.683769 
   45000    232.90447   -347.65051    216156.16   -20247.872    1475.2685   -21723.141   -851.59155    243.04442    39.389007    39.197057    23.690674 
   45200    238.30424    -297.7559    216156.16   -20214.378    1509.4718    -21723.85   -586.25904    244.88724    39.387821    39.197293    23.693625 
   45400    230.06741   -303.11454    216156.16   -20271.265    1457.2979   -21728.563    -658.0886    245.43198    39.388593    39.195155    23.711089 
   45600    232.31504   -379.70512    216156.16   -20179.974    1471.5349   -21651.509   -949.57526    248.34681    39.391218    39.195207    23.704415 
   45800    238.23367   -253.48956    216156.16   -20228.008    1509.0248   -21737.032   -428.04613      247.919    39.391806    39.196068    23.724912 
   46000    246.06116    -421.8495    216156.16    -20155.87    1558.6058   -21714.476   -1119.0011    248.77376    39.389264    39.195072    23.740947 
   46200    244.06165   -485.65016    216156.16   -20147.638    1545.9405   -21693.578   -1370.6135    249.55618    39.388484    39.195476    23.745636 
   46400    232.73785   -280.46548    216156.16    -20223.59    1474.2131   -21697.804   -567.12302    249.06908    39.389577    39.197089    23.747384 
   46600    242.47007   -255.35202    216156.16   -20225.798    1535.8591   -21761.657   -424.66934    248.59576    39.390509    39.201109    23.756411 
   46800    230.21511   -319.53405    216156.16   -20182.584    1458.2335   -21640.817   -699.74976    247.91519    39.391316    39.201491     23.74652 
   47000    241.48682   -198.99172    216156.16   -20144.731     1529.631   -21674.361   -162.13694     249.1824    39.391082    39.199721    23.732355 
   47200    231.86009   -507.16121    216156.16   -20219.387    1468.6531    -21688.04   -1525.4688    251.42958    39.391168    39.200155    23.731219 
   47400    235.98519   -242.19004    216156.16   -20170.364    1494.7824   -21665.146   -406.43044    251.57775    39.392857    39.200581    23.728254 
   47600     239.3847   -151.91483    216156.16    -20158.39    1516.3157   -21674.706    32.911256    252.71041    39.393346    39.198999    23.750641 
   47800    232.61459   -598.82177    216156.16   -20199.568    1473.4323       -21673   -1923.3198    254.36622    39.392273    39.197612    23.757469 
   48000     236.0234   -577.43228    216156.16   -20209.631    1495.0244   -21704.656   -1826.8486    256.67204    39.392201    39.198517    23.776684 
   48200    235.83518   -545.90914    216156.16   -20230.127    1493.8322   -21723.959   -1700.5753    257.35704    39.393505    39.198125    23.765305 
   48400    231.22721   -335.49563    216156.16   -20214.765    1464.6444   -21679.409   -791.35917    258.29261     39.39562     39.19792    23.735522 
   48600    229.40256   -255.44764    216156.16    -20295.53    1453.0866   -21748.617    -461.0058    259.10455    39.395857    39.198603    23.736437 
   48800    234.79332   -420.71199    216156.16   -20260.865    1487.2329   -21748.098    -1146.035    259.37683    39.398368    39.197769    23.720211 
   49000    238.12188    -318.1824    216156.16   -20248.347    1508.3167   -21756.663   -717.05945    259.17899    39.398885    39.198114      23.7301 
   49200    234.83866   -245.00016    216156.16   -20180.397      1487.52   -21667.917   -401.90951    260.08418    39.399403    39.198402    23.753632 
   49400     230.0683   -371.50005    216156.16   -20275.029    1457.3035   -21732.332   -956.24486    261.43986    39.397686    39.196836     23.75213 
   49600    232.23431   -397.90517    216156.16   -20239.371    1471.0236   -21710.395   -1008.6952    262.21441    39.395346    39.196839    23.776203 
   49800    235.98083   -332.95765    216156.16   -20210.445    1494.7548     -21705.2   -782.46478    261.92626    39.393648    39.196629    23.775467 
   50000    230.96737   -423.82465    216156.16   -20226.545    1462.9984   -21689.543   -1140.0256     262.3612    39.391842    39.194758    23.801645 
   50200    242.31262   -307.46158    216156.16   -20173.455    1534.8618   -21708.316    -644.7774     264.6541    39.392665    39.193011    23.810206 
   50400    236.70848   -323.90365    216156.16   -20254.174    1499.3639   -21753.538   -684.12066    266.02883    39.393172    39.193444    23.824868 
   50600    242.21683   -286.03945    216156.16   -20212.793     1534.255   -21747.048   -521.94537    265.78965    39.393953    39.194799     23.84524 
   50800     233.1969   -400.61219    216156.16   -20380.656    1477.1208   -21857.776   -1015.7091    266.09342    39.392921    39.198222    23.858505 
   51000    229.14732   -429.21992    216156.16    -20293.46    1451.4698    -21744.93   -1145.1303    266.70065    39.391115     39.19673    23.872743 
   51200    235.85648   -338.81499    216156.16   -20281.717    1493.9671   -21775.684   -776.27099    267.70331    39.389577    39.197415     23.87256 
   51400    237.44117   -349.87359    216156.16   -20244.586    1504.0049   -21748.591   -872.07908    270.55208    39.388542    39.196053    23.859725 
   51600    227.03076   -398.97047    216156.16   -20249.423    1438.0631   -21687.486   -1071.7589    270.27303    39.385853    39.193635    23.829819 
   51800    226.77286   -300.97247    216156.16   -20198.846    1436.4295   -21635.275   -631.44267    270.55763    39.386067    39.193462    23.826914 
   52000    233.81655    -468.0823    216156.16   -20262.008    1481.0458   -21743.054   -1322.8909     271.4629    39.385371    39.193694    23.822994 
   52200    230.39782     -400.897    216156.16   -20268.657    1459.3908   -21728.048   -1035.4949    269.12484    39.383576    39.192665     23.81523 
   52400    229.05614   -451.03816    216156.16   -20296.043    1450.8923   -21746.935   -1267.7838    269.41369     39.38157    39.193176    23.823792 
   52600    234.54786   -509.67436    216156.16   -20203.621    1485.6781   -21689.299   -1510.7264    270.13247    39.382881    39.194108    23.809727 
   52800    237.61039   -372.91413    216156.16   -20180.177    1505.0768   -21685.254   -953.60031    271.86453    39.384103    39.194767    23.795372 
   53000    238.08976   -447.80908    216156.16   -20186.579    1508.1133   -21694.692     -1287.14    272.35163    39.383856    39.194655    23.806586 
   53200    235.50171   -437.51449    216156.16   -20304.685      1491.72   -21796.405   -1227.2752    273.08312    39.381612    39.195462    23.806983 
   53400    235.55497   -530.77735    216156.16   -20251.059    1492.0573   -21743.116    -1603.427    272.31197    39.384703    39.193881    23.822658 
   53600    228.56609   -402.02408    216156.16   -20312.901    1447.7882    -21760.69   -1026.8266    273.00522    39.387829    39.192912    23.828701 
   53800    230.71187   -397.33035    216156.16   -20242.384    1461.3801   -21703.764    -994.9999    273.41304    39.390132    39.193261    23.854458 
   54000    233.46059   -478.21726    216156.16    -20200.62     1478.791   -21679.411   -1372.6203    275.28579     39.39307    39.193682    23.856421 
   54200    238.12762   -496.69514    216156.16   -20158.142     1508.353   -21666.495   -1441.5811    276.42394    39.394254    39.195527    23.874715 
   54400    243.30798   -283.20656    216156.16   -20091.617    1541.1666   -21632.784   -577.84491    278.27862    39.396732    39.196491    23.859257 
   54600     239.4151   -499.21771    216156.16   -20113.758    1516.5082   -21630.266   -1432.0715      280.077     39.39843    39.196888    23.848016 
   54800    234.43131   -177.19696    216156.16   -20095.977    1484.9398   -21580.917   -102.19236    281.42414    39.398488    39.198304    23.864471 
   55000    234.65659   -427.93307    216156.16   -20078.314    1486.3668   -21564.681   -1199.9193    282.73592    39.399452    39.196638    23.873946 
   55200    234.72287    -366.2757    216156.16   -20229.923    1486.7866    -21716.71   -878.02562    283.60657    39.401198    39.197858    23.890742 
   55400    237.85535    -381.2624    216156.16   -20209.677    1506.6285   -21716.305   -946.56605    284.88774    39.403243    39.199805    23.910753 
   55600    233.35133   -541.17496    216156.16    -20186.49     1478.099   -21664.589   -1635.0568     285.7172    39.402144    39.199548    23.908422 
   55800    246.45761   -400.95119    216156.16   -20106.823    1561.1171    -21667.94   -1049.7622    284.52357    39.403338    39.198084    23.912005 
   56000    236.28655   -438.28918    216156.16   -20162.294    1496.6913   -21658.986    -1195.422    284.26291    39.401706     39.19832    23.896077 
   56200    236.15189   -418.26061    216156.16   -20140.668    1495.8383   -21636.506   -1115.0128    287.75442    39.399922    39.198349    23.901136 
   56400    230.10782   -461.96084    216156.16   -20218.769    1457.5538   -21676.323   -1296.9326    289.00669    39.397844    39.198482    23.903542 
   56600    228.61705   -509.70537    216156.16   -20293.395     1448.111   -21741.506   -1455.9205     289.7805    39.399323    39.199609    23.901663 
   56800    241.44408   -491.13521    216156.16   -20216.209    1529.3602    -21745.57   -1393.1754     290.2118    39.400438    39.201977    23.896185 
   57000    234.25234   -400.04261    216156.16   -20264.866    1483.8062   -21748.672   -987.30272       290.14    39.397087    39.203114    23.873049 
   57200    240.67176   -351.68539    216156.16   -20180.741    1524.4682   -21705.209   -824.90302    289.85769    39.395207    39.202889    23.870258 
   57400    231.93458   -504.77406    216156.16   -20222.126     1469.125   -21691.251   -1499.4874    290.76661    39.393295    39.203041    23.878986 
   57600    226.97108    -400.4979    216156.16   -20252.948     1437.685   -21690.633   -1024.2382    290.51772    39.395121    39.204373    23.859009 
   57800    238.87059   -311.23186    216156.16   -20174.273    1513.0592   -21687.332   -664.52868      291.106    39.395095    39.205006    23.847415 
   58000    233.66103   -280.67484    216156.16   -20178.209    1480.0607    -21658.27   -514.48234    292.39461    39.393382    39.207391     23.83674 
   58200    239.93238   -193.81621    216156.16   -20156.719    1519.7848   -21676.504   -157.72839    293.05574    39.393305    39.208301    23.843156 
   58400    236.84741   -369.80044    216156.16   -20170.403    1500.2439   -21670.647   -892.33981    294.60037    39.392638     39.20808    23.883125 
   58600    232.57336   -437.28088    216156.16   -20220.011    1473.1712   -21693.182   -1229.8013    294.26605    39.392535    39.207296    23.874571 
   58800    236.67013   -252.19801    216156.16   -20205.594     1499.121   -21704.715   -437.78719    293.45076    39.392828    39.207566    23.883408 
   59000    235.94383   -246.50946    216156.16   -20152.066    1494.5204   -21646.587    -402.7365    293.95819    39.393029    39.208404    23.896014 
   59200    243.18147   -426.85551    216156.16   -20231.373    1540.3653   -21771.739   -1129.8656    295.26209    39.395051    39.207275    23.901782 
   59400    232.21455   -441.57077    216156.16   -20229.352    1470.8984    -21700.25    -1168.759    296.12941    39.395032    39.205504    23.932622 
   59600    235.87795   -229.75548    216156.16   -20282.638    1494.1031   -21776.741   -291.82911    295.86424    39.395721     39.20296    23.928061 
   59800    229.14129   -369.21895    216156.16   -20216.974    1451.4316   -21668.405   -921.94363    296.70362    39.396281    39.201769    23.907497 
   60000    239.55937   -402.52882    216156.16   -20188.364    1517.4221   -21705.786   -1091.8365    296.41554    39.398991      39.2041    23.901444 
   60200    230.51409   -328.21427    216156.16   -20206.158    1460.1272   -21666.285    -794.4331    297.72662     39.40049    39.201459    23.882016 
   60400    231.02177   -505.06485    216156.16       -20182    1463.3431   -21645.344   -1482.4271    298.06982    39.402362    39.202194    23.875161 
   60600    234.28994    -385.8559    216156.16    -20128.35    1484.0443   -21612.394   -947.84242    298.46092    39.404425    39.205307    23.879956 
   60800    243.88361   -398.90163    216156.16   -20091.673    1544.8127   -21636.486   -1031.1055    298.42675    39.407348    39.206265    23.878573 
   61000    240.32647   -327.10793    216156.16   -20194.287     1522.281   -21716.568   -764.81734    299.27184    39.409553    39.206329    23.849343 
   61200    240.84946   -347.67726    216156.16   -20133.268    1525.5938   -21658.862   -811.46636    300.16952    39.410746    39.206765    23.824017 
   61400    235.98288   -398.21352    216156.16   -20187.529    1494.7678   -21682.297   -1070.7735    301.80298    39.410951    39.208983    23.817269 
   61600    234.12649     -436.778    216156.16   -20222.343     1483.009   -21705.352   -1269.6987    303.09451    39.408557    39.208075    23.810529 
   61800    237.18928   -360.44417    216156.16   -20256.828    1502.4094   -21759.238   -867.80727    304.68179    39.406871    39.209166     23.77393 
   62000    241.91739   -434.47835    216156.16   -20192.697    1532.3583   -21725.056   -1209.1128    303.92643    39.408333    39.209331    23.775327 
   62200    234.00602   -406.20195    216156.16   -20152.504    1482.2459   -21634.749   -1110.7586    306.01286    39.409041    39.210114    23.759534 
   62400    240.47846   -442.89427    216156.16   -20120.792    1523.2438   -21644.036   -1251.4559    306.47803    39.410696    39.209671    23.777016 
   62600    228.41249   -328.81404    216156.16   -20181.237    1446.8153   -21628.052    -751.2064    306.29568    39.414428    39.207407    23.780551 
   62800    232.35648   -367.49882    216156.16   -20264.442    1471.7974    -21736.24   -929.16126    308.18015    39.415455     39.20379    23.796247 
   63000    238.63522   -427.89136    216156.16   -20165.726    1511.5683   -21677.294   -1181.1023    309.19859     39.41726    39.202731    23.783845 
   63200    234.79846   -376.13292    216156.16   -20204.991    1487.2655   -21692.257   -959.52618     309.7429    39.418393    39.201478    23.764516 
   63400    231.50614    -343.1053    216156.16   -20287.663    1466.4111   -21754.074   -753.56812    310.19311    39.418687    39.203642    23.754413 
   63600    234.30446   -378.40336    216156.16   -20277.447    1484.1363   -21761.583   -1006.1726    311.39166    39.420148    39.204569    23.770769 
   63800    229.92047   -302.98831    216156.16   -20301.663    1456.3672    -21758.03   -661.81759    312.66822    39.419915    39.203968    23.770548 
   64000    237.63141   -398.39852    216156.16   -20221.385      1505.21   -21726.595   -1070.4465    312.68134    39.419162    39.206542    23.772322 
   64200    229.93138   -306.89835    216156.16   -20216.036    1456.4362   -21672.472   -647.87618    312.45006    39.420956    39.209062    23.771675 
   64400     230.8585   -427.62793    216156.16   -20204.681    1462.3088    -21666.99    -1164.771    314.36147    39.419356    39.211941    23.762752 
   64600    229.98704   -381.92291    216156.16   -20266.524    1456.7888   -21723.312   -1006.3783    314.51321    39.418851    39.213288    23.761587 
   64800     230.9315   -415.63146    216156.16    -20231.74    1462.7713   -21694.512   -1209.2598    315.51039    39.419979    39.213756    23.762325 
   65000    234.07158   -271.87561    216156.16   -20151.233    1482.6612   -21633.895   -508.28507    314.64713    39.419175    39.216509    23.762599 
   65200    237.45525      -311.43    216156.16   -20223.405    1504.0941   -21727.499   -722.14002    315.05447    39.418663    39.214915    23.770371 
   65400    230.55384   -335.43293    216156.16    -20229.84    1460.3791   -21690.219   -775.62628    316.33344    39.419474    39.215296    23.788354 
   65600    239.95735   -394.53369    216156.16   -20169.269    1519.9429   -21689.212   -1025.8433    316.54788    39.419491    39.216626    23.776101 
   65800     234.5972    -356.6423    216156.16    -20171.47    1485.9906    -21657.46    -883.9265    317.45247    39.423921    39.218125    23.797007 
   66000    231.30091   -411.09443    216156.16   -20183.279    1465.1112    -21648.39   -1145.7587     318.1756    39.422158    39.219683    23.810411 
   66200    232.15347   -325.51536    216156.16   -20234.872    1470.5115   -21705.383   -783.88423    318.37124    39.422618    39.219455    23.795564 
   66400    228.62695   -343.80104    216156.16   -20208.554    1448.1737   -21656.728   -852.98734    319.29089     39.42516    39.217175     23.79874 
   66600    232.72388   -415.15177    216156.16   -20235.918    1474.1245   -21710.042   -1130.6495    319.72821    39.426751    39.214825    23.801384 
   66800    234.98319   -387.53166    216156.16    -20242.03    1488.4356   -21730.466   -1028.7774    319.73485    39.427704    39.215929    23.777507 
   67000    228.06765   -407.05521    216156.16   -20297.646     1444.631   -21742.277   -1135.9468    320.89683    39.428776    39.216106    23.794375 
   67200    238.18239   -383.84243    216156.16   -20229.719       1508.7   -21738.419   -1006.3528    321.74087    39.429676    39.216383    23.802052 
   67400    243.32253   -285.32009    216156.16   -20239.607    1541.2588   -21780.866   -542.59548    321.69317    39.430588    39.217049    23.824194 
   67600    239.55094   -429.16461    216156.16   -20161.647    1517.3687   -21679.016   -1185.1026    323.62737    39.430933    39.215788    23.830861 
   67800    237.22632   -305.21174    216156.16   -20211.114     1502.644   -21713.758   -612.71399    323.86647    39.432556    39.215451    23.824795 
   68000    236.59176   -498.51698    216156.16    -20264.09    1498.6246   -21762.715   -1429.7486    323.02436    39.432265     39.21709     23.81921 
   68200    228.47135   -522.62742    216156.16   -20244.738    1447.1881   -21691.926   -1593.0524    326.36796    39.431446    39.219694    23.813605 
   68400    234.71941   -482.51029    216156.16   -20194.685    1486.7647    -21681.45    -1423.575    327.28601    39.430699    39.219996    23.816989 
   68600    228.36778   -337.15293    216156.16   -20180.328    1446.5321    -21626.86   -826.86377    326.83178    39.427087    39.218506    23.802127 
   68800    236.01603   -429.69254    216156.16   -20133.337    1494.9778   -21628.315   -1198.4241    326.95163     39.42389     39.21761    23.809688 
   69000    238.05695   -464.33052    216156.16   -20129.133    1507.9054   -21637.039     -1317.09    329.21647    39.424158    39.218996    23.823374 
   69200    234.63423   -402.28386    216156.16   -20221.875    1486.2251     -21708.1   -1062.7619    329.70936    39.424524    39.220038    23.831728 
   69400    232.39929   -382.33417    216156.16   -20261.292    1472.0685    -21733.36   -965.23472    329.99603    39.424804    39.220839    23.847752 
   69600    248.03851   -476.82333    216156.16   -20080.922    1571.1308   -21652.053   -1370.4733    331.93838    39.423408    39.219055     23.83684 
   69800    234.35409   -468.66351    216156.16   -20204.895    1484.4507   -21689.346   -1314.6641    334.39361    39.422225    39.217253    23.818927 
   70000     236.0297   -329.22659    216156.16   -20220.877    1495.0644   -21715.942   -700.79185    335.69043    39.423612    39.217993    23.771857 
   70200    237.30006   -611.16816    216156.16   -20203.814    1503.1111   -21706.925   -1972.6409    337.74774    39.424869    39.218613    23.763458 
   70400    234.94853   -387.12358    216156.16    -20109.53     1488.216   -21597.746   -951.19188    337.92985    39.426054    39.220288    23.766168 
   70600    230.98164   -311.12618    216156.16   -20189.538    1463.0888   -21652.627   -704.21304     339.5092    39.426636    39.218756    23.768386 
   70800    238.12166   -364.53317    216156.16    -20208.01    1508.3153   -21716.325   -890.95487    338.27241    39.425141    39.218107    23.765612 
   71000    227.31043   -325.72959    216156.16   -20256.568    1439.8346   -21696.402   -722.58505    339.78302    39.427091    39.216146    23.777497 
   71200     227.7025   -440.72914    216156.16   -20250.936     1442.318   -21693.254   -1193.2745    341.09548    39.428455    39.214228    23.763789 
   71400    232.47463   -290.24972    216156.16   -20238.329    1472.5458   -21710.875   -590.84069    340.28489    39.429579    39.212784     23.78499 
   71600     228.0734   -427.83536    216156.16   -20167.706    1444.6674   -21612.373   -1199.1803    341.99962    39.431086    39.213014    23.797383 
   71800    229.79122   -500.38954    216156.16   -20301.615    1455.5485   -21757.164   -1463.1019    341.66105    39.429412    39.213545    23.787241 
   72000    229.25562   -488.91944    216156.16   -20252.177    1452.1558   -21704.332   -1432.0159    343.14737    39.431041    39.214507    23.772402 
   72200    240.33101   -438.00956    216156.16   -20110.361    1522.3098   -21632.671   -1149.6266    344.28244    39.432342    39.211648    23.729251 
   72400    233.82715   -400.16593    216156.16   -20179.669    1481.1129   -21660.782   -1049.1963    344.77857    39.432751    39.211674    23.716896 
   72600    240.66974    -237.9727    216156.16   -20129.924    1524.4554   -21654.379   -333.14517    346.65445    39.433721    39.212018    23.720307 
   72800    235.12813   -546.30494    216156.16   -20163.592    1489.3536   -21652.946   -1682.1917    348.32079    39.432627    39.212643    23.715736 
   73000    234.87971   -339.22505    216156.16   -20190.135    1487.7801   -21677.915    -792.7305    347.69563    39.432544    39.211965    23.690953 
   73200    240.88003   -352.84448    216156.16   -20121.127    1525.7875   -21646.914   -840.07417    348.69655     39.43346    39.210093    23.690827 
   73400    234.77034   -325.27552    216156.16   -20109.572    1487.0873    -21596.66   -748.26084    350.04464    39.435275    39.209685    23.660993 
   73600    241.42141   -346.77906    216156.16   -20138.121    1529.2166   -21667.338   -770.66813     352.5901    39.436873    39.210584    23.648922 
   73800    228.63143   -508.31587    216156.16   -20243.434    1448.2021   -21691.636   -1485.0611    351.96117    39.437895    39.211144    23.662523 
   74000    232.23474   -206.54933    216156.16   -20238.855    1471.0263   -21709.881   -231.70081    351.37722    39.438466    39.212873    23.662128 
   74200    238.45285   -363.14334    216156.16   -20154.844    1510.4132   -21665.257    -895.0298    353.14081    39.436726    39.212027    23.652754 
   74400    232.11021    -454.3009    216156.16   -20135.673    1470.2375    -21605.91   -1306.8011    353.02344    39.434016    39.214019    23.662043 
   74600    235.82806   -360.07389    216156.16   -20216.357    1493.7871   -21710.144   -880.13996    354.06145    39.433882    39.216024    23.660163 
   74800    232.39409   -346.44566    216156.16   -20243.296    1472.0356   -21715.332   -800.86552    356.07788    39.429774    39.215238    23.645497 
   75000    234.90631   -493.74029    216156.16   -20228.451    1487.9485   -21716.399   -1451.1811    356.01221    39.429039    39.214372    23.641741 
   75200     241.3112   -294.91509    216156.16   -20160.745    1528.5186   -21689.264   -595.90779    355.64958    39.428361    39.212908    23.637271 
   75400    232.45847   -348.70844    216156.16   -20256.278    1472.4434   -21728.721   -810.84035    357.15411    39.427713    39.214811      23.6458 
   75600     235.0696   -376.92906    216156.16   -20201.304    1488.9829   -21690.287   -965.16397    359.01423    39.428961     39.21301    23.655524 
   75800    238.02095   -394.64197    216156.16   -20119.875    1507.6774   -21627.553   -988.18206    361.38971    39.429755    39.213531    23.653242 
   76000    236.76211   -455.57646    216156.16   -20107.625    1499.7036   -21607.329   -1212.7473    362.88588    39.431931    39.213399    23.656082 
   76200    232.00522   -368.22712    216156.16    -20217.71    1469.5724   -21687.283   -860.49435    362.30041    39.431186    39.214147    23.665687 
   76400    234.09547   -443.16389    216156.16   -20220.381    1482.8125   -21703.193   -1177.9703    364.25448    39.432599    39.216772    23.660865 
   76600    230.12853   -459.53098    216156.16   -20193.993    1457.6851   -21651.678   -1258.6602    365.09344    39.434748    39.220435    23.670761 
   76800    230.80201   -333.32527    216156.16   -20203.547     1461.951   -21665.498   -782.20236    365.29496    39.435543    39.221472     23.65995 
   77000    236.35652   -458.47851    216156.16   -20193.288    1497.1345   -21690.422   -1293.4547    365.81894    39.432656    39.222501     23.65159 
   77200    241.46117    -478.0213    216156.16    -20170.96    1529.4685   -21700.428   -1316.4147    366.43522     39.43554    39.223439    23.645854 
   77400    232.15664   -342.98284    216156.16   -20172.129    1470.5315   -21642.661   -770.64428    367.34941    39.434711    39.223105    23.635833 
   77600    233.84688   -384.08371    216156.16   -20213.569    1481.2379   -21694.807   -936.04133    367.90311    39.435748    39.224489     23.65101 
   77800    237.20911   -370.00486    216156.16   -20158.033     1502.535   -21660.568    -903.8378    366.44397    39.435631    39.225419    23.657672 
   78000    228.62922    -429.6802    216156.16    -20191.28    1448.1881   -21639.468   -1199.8014    366.89375    39.436849    39.227492     23.64435 
   78200    231.22892   -473.19554    216156.16   -20109.458    1464.6552   -21574.113   -1315.9577    365.65824    39.439131    39.227202    23.620644 
   78400    237.59075   -401.91374    216156.16   -20150.539    1504.9524   -21655.491   -1066.0008    367.41586    39.440633    39.226924    23.625605 
   78600    237.99004   -463.72928    216156.16   -20139.828    1507.4816   -21647.309   -1340.1331    369.02025    39.441123     39.22845    23.638871 
   78800    234.76844   -403.57275    216156.16   -20159.163    1487.0753   -21646.238   -1059.2568    368.70636    39.442099    39.228147    23.625159 
   79000    238.45573    -484.2119    216156.16   -20137.921    1510.4314   -21648.352   -1381.7411     370.3307    39.442198    39.228014    23.615131 
   79200     234.8107   -398.04307    216156.16   -20124.336     1487.343   -21611.679   -1043.4684    369.34147     39.44228    39.226293    23.611928 
   79400    240.06595   -489.07298    216156.16   -20079.884    1520.6309   -21600.515   -1403.4344     370.1195    39.440284    39.225737    23.624171 
   79600    235.89367   -468.97178    216156.16    -20193.89    1494.2027   -21688.093   -1360.3008    371.68889    39.439059     39.22429    23.606555 
   79800    232.22737    -457.0689    216156.16   -20160.022    1470.9796   -21631.001   -1276.1701    373.05543    39.438627      39.2243    23.603946 
   80000    226.53952   -397.10199    216156.16   -20171.913    1434.9515   -21606.865   -1036.2369    374.02381    39.438949    39.224164    23.611008 
   80200    232.89722   -293.08804    216156.16   -20174.384    1475.2225   -21649.607   -609.02495    373.48542    39.437529    39.226013    23.621722 
   80400    228.46285   -488.33706    216156.16   -20147.616    1447.1342    -21594.75   -1420.1993    377.01807    39.435307    39.227574    23.632503 
   80600    236.31016   -558.45049    216156.16   -20132.458    1496.8409   -21629.299   -1701.6025    377.46667    39.433962     39.22742     23.65382 
   80800    238.13064   -481.41714    216156.16   -20144.727    1508.3722     -21653.1   -1327.3882    375.68849    39.433836     39.22787    23.671439 
   81000    238.28892   -413.04787    216156.16   -20170.856    1509.3748    -21680.23     -1072.82    379.19189    39.431867    39.226574    23.646544 
   81200    230.98372   -391.55133    216156.16    -20186.27     1463.102   -21649.372   -1040.1829    379.70681    39.432212    39.228764    23.665219 
   81400    236.64806   -384.07033    216156.16    -20149.51    1498.9812   -21648.491   -1013.0139    380.90736    39.430504    39.228998     23.68025 
   81600    229.37861   -548.78051    216156.16   -20210.442    1452.9349   -21663.377   -1672.8228    382.26411    39.428475    39.227372    23.675585 
   81800    230.55441   -356.99823    216156.16   -20287.474    1460.3827   -21747.857   -888.84517    382.52717    39.428754    39.226806    23.668747 
   82000    229.88765   -328.80119    216156.16    -20210.77    1456.1592   -21666.929    -755.8885    385.18268    39.426637    39.224774    23.674854 
   82200    236.40813   -325.48087    216156.16   -20112.575    1497.4614   -21610.037    -703.7593    388.01616    39.421865    39.220343    23.673019 
   82400    241.31953   -297.18659    216156.16   -20166.973    1528.5713   -21695.544    -588.5824    387.15584    39.422899    39.217535    23.681704 
   82600    235.55259   -284.17869    216156.16   -20083.016    1492.0422   -21575.058   -558.58091    388.17417    39.423039    39.216174     23.68501 
   82800    236.69644   -432.22447    216156.16   -20139.574    1499.2876   -21638.862    -1194.068    389.50019    39.424113    39.214677    23.678391 
   83000    235.72114   -316.08046    216156.16   -20083.837    1493.1099   -21576.947   -716.16306    387.72465    39.423834     39.21435    23.668982 
   83200    235.89908   -372.46154    216156.16   -20110.097     1494.237   -21604.334   -902.76766    389.19293    39.424945    39.215443    23.671924 
   83400       230.41   -466.69003    216156.16   -20157.229    1459.4679   -21616.697   -1318.9225    391.14729    39.426285    39.217168    23.660718 
   83600     230.0255   -390.35896    216156.16   -20228.712    1457.0325   -21685.744   -1033.1779    390.80547    39.428775    39.216456    23.667234 
   83800    233.08988   -342.81978    216156.16   -20187.624    1476.4429   -21664.067   -843.92235    389.84015    39.427576    39.214325    23.651283 
   84000    236.03414   -408.24925    216156.16   -20196.121    1495.0925   -21691.213   -1117.4032     391.6238    39.426215    39.212794     23.66328 
   84200    237.09321   -278.68793    216156.16   -20166.826    1501.8009   -21668.627   -588.25212    392.16094    39.426372    39.212245    23.670197 
   84400    229.62907   -267.67745    216156.16   -20222.302    1454.5214   -21676.824   -456.60914    394.67913    39.425589    39.214545    23.684361 
   84600    230.71618   -430.07016    216156.16   -20152.506    1461.4074   -21613.914   -1184.1321    397.38521    39.426931    39.216335     23.70169 
   84800    237.84635   -323.59812    216156.16   -20191.684    1506.5714   -21698.255   -729.44306     397.6708    39.425112    39.218245    23.675195 
   85000    234.26818   -375.86002    216156.16   -20149.053    1483.9065   -21632.959   -987.71108    396.86286    39.426261    39.219087    23.652903 
   85200    235.59846   -233.60825    216156.16   -20170.972    1492.3328   -21663.304   -362.65722    398.94533    39.427183    39.218993    23.638949 
   85400    229.78413   -320.03786    216156.16   -20188.212    1455.5035   -21643.716    -667.4453    400.52347    39.428164    39.218032     23.63393 
   85600    232.67264    -409.8611    216156.16   -20186.896       1473.8   -21660.696   -1029.8547    399.00355    39.424831    39.219368    23.616954 
   85800    234.44826   -479.86649    216156.16   -20146.403    1485.0472    -21631.45   -1400.5725    401.09767    39.425454    39.217832    23.610012 
   86000    239.11115   -222.48014    216156.16   -20207.842     1514.583   -21722.425   -264.80587    401.97294    39.426357    39.216326    23.613221 
   86200    234.98449   -345.38999    216156.16   -20208.617    1488.4438   -21697.061     -804.157    401.95764    39.428129    39.217498    23.612349 
   86400     232.1623   -422.50135    216156.16   -20264.435    1470.5674   -21735.002   -1107.8985    401.90531    39.428241    39.218933    23.608755 
   86600    240.49442   -445.74071    216156.16   -20218.935    1523.3449    -21742.28   -1233.7552    402.83879    39.427337    39.216611     23.62789 
   86800    226.12409   -535.17564    216156.16   -20297.011      1432.32   -21729.331   -1646.1682     403.9381    39.429104    39.212848    23.610307 
   87000    239.66738   -368.69251    216156.16   -20225.151    1518.1062   -21743.258   -876.89613    405.05762    39.430196    39.213839    23.631119 
   87200    233.76907   -514.24956    216156.16   -20196.094     1480.745   -21676.839   -1525.5503    408.28503    39.430031    39.213108    23.638602 
   87400    235.53795   -438.20241    216156.16   -20259.975    1491.9495   -21751.925   -1225.9322    408.60473    39.430507    39.211105    23.660031 
   87600    233.44209   -437.58761    216156.16   -20166.687    1478.6739   -21645.361   -1194.2588    407.81272    39.429657    39.209469    23.655992 
   87800     234.6471    -369.2363    216156.16   -20188.557    1486.3066   -21674.864   -889.83206    406.85641    39.428268    39.209439    23.642301 
   88000    235.90783   -536.31535    216156.16   -20173.241    1494.2924   -21667.534   -1611.0355    409.05011    39.428854    39.210645     23.65073 
   88200    229.96603   -366.49695    216156.16   -20217.587    1456.6557   -21674.243   -917.19578    409.88938    39.431027     39.21152    23.649464 
   88400    239.08766   -345.39474    216156.16   -20126.125    1514.4342   -21640.559   -804.07598    411.99398    39.429997    39.211751    23.649939 
   88600    233.89237   -306.21347    216156.16   -20168.828     1481.526   -21650.354   -670.48976    412.10294    39.428704    39.214763    23.637401 
   88800      234.703   -569.89094    216156.16   -20174.531    1486.6608   -21661.192    -1749.988    413.23536    39.429963    39.214505    23.647231 
   89000    231.65673   -530.92766    216156.16   -20198.925     1467.365   -21666.289   -1548.6076    415.71692    39.428022    39.216108    23.634072 
   89200    241.25282   -96.334139    216156.16   -20196.964    1528.1488   -21725.113    247.14541    414.27504    39.429509    39.214202     23.64294 
   89400    231.89246   -368.68555    216156.16   -20182.884    1468.8582   -21651.742   -965.63386    414.88904    39.428938    39.212255    23.656878 
   89600    232.34816   -367.55324    216156.16   -20294.861    1471.7447   -21766.606    -922.4572    417.19351     39.42746    39.210727    23.639602 
   89800    239.91773   -431.37862    216156.16   -20201.909     1519.692   -21721.601   -1208.8745    419.80548    39.426321    39.210943    23.623081 
   90000     235.3893   -378.32474    216156.16   -20261.633    1491.0079   -21752.641   -960.70097    420.00564    39.422973    39.210881    23.640499 
   90200    232.76023   -269.37193    216156.16   -20276.913    1474.3548   -21751.268   -484.91696    421.92133    39.421129    39.208711    23.614598 
   90400    229.72909    -390.2234    216156.16   -20205.285    1455.1549    -21660.44   -1007.4731    423.22123    39.420561     39.20702    23.603566 
   90600    233.88841   -537.90067    216156.16   -20231.054    1481.5009   -21712.555   -1568.1071    423.19242    39.420019    39.208633    23.604212 
   90800     231.5979   -466.52303    216156.16   -20236.929    1466.9924   -21703.922   -1271.3668    423.77297    39.420853    39.208822    23.608778 
   91000    231.41314   -491.61451    216156.16   -20282.133    1465.8221   -21747.955   -1426.3411    426.58209    39.419668    39.207583    23.624302 
   91200    226.31338   -361.98979    216156.16   -20322.377     1433.519   -21755.896   -890.02581    424.69504    39.419989    39.206627    23.626093 
   91400    232.67962   -404.17804    216156.16   -20236.235    1473.8442   -21710.079   -1075.8557    425.36648    39.419306    39.203859    23.616752 
   91600    244.67602   -322.90261    216156.16   -20166.717    1549.8321   -21716.549    -747.3753    423.03353    39.418467    39.201318    23.620041 
   91800    239.08199   -428.69108    216156.16   -20212.486    1514.3983   -21726.885   -1171.6005    422.45598    39.419111    39.202586    23.646454 
   92000    231.95335   -328.38687    216156.16   -20189.338    1469.2439   -21658.582   -740.19486     422.6493    39.420373    39.201553    23.653013 
   92200    234.85224   -342.18062    216156.16   -20237.111    1487.6061   -21724.717   -801.80552     423.4692    39.419283    39.202821    23.641242 
   92400    235.85783   -362.99882    216156.16   -20243.197    1493.9757   -21737.173   -934.37302    422.08429    39.417079    39.204236     23.61984 
   92600    237.80519   -287.86668    216156.16   -20188.361    1506.3107   -21694.672   -606.51218     423.7231    39.414184    39.204982    23.597333 
   92800    235.13833   -444.53983    216156.16   -20255.143    1489.4183   -21744.562    -1185.857    423.19712    39.415158    39.205678    23.595536 
   93000    233.18936    -290.4131    216156.16   -20236.784     1477.073   -21713.857   -590.95199    423.54634    39.414516    39.205217    23.608304 
   93200      231.579   -484.93626    216156.16   -20197.028    1466.8726   -21663.901    -1376.617    424.23515    39.415817     39.20572    23.608858 
   93400    228.45294   -457.92762    216156.16   -20247.189    1447.0715    -21694.26   -1281.7128    426.81941    39.413551    39.206966    23.597042 
   93600      231.688   -334.01048    216156.16   -20205.908    1467.5631   -21673.471   -736.95693    426.67394    39.411944    39.208058    23.600454 
   93800    230.53907   -298.54471    216156.16   -20261.612    1460.2855   -21721.897   -590.31864    428.35622    39.410633    39.207386    23.603847 
   94000    232.47669   -529.70542    216156.16   -20277.575    1472.5588   -21750.134   -1603.0646    428.19371    39.411976    39.206661     23.59382 
   94200    237.67408   -370.69402    216156.16     -20160.9    1505.4803    -21666.38   -937.52642    428.02893    39.409972    39.208518    23.592011 
   94400    234.15104   -370.83441    216156.16   -20172.055    1483.1645    -21655.22   -928.57514    430.23528    39.407939    39.208962    23.599979 
   94600    233.27388   -429.10912    216156.16   -20159.678    1477.6084   -21637.286   -1185.6095    431.95524    39.406625    39.211223    23.608787 
   94800    234.34364   -412.24761    216156.16   -20160.878    1484.3845   -21645.262   -1089.6941    431.83265     39.40626    39.212591    23.618657 
   95000    231.46539   -307.25102    216156.16   -20200.941     1466.153   -21667.094   -653.26622    434.26049    39.404336     39.21307     23.60932 
   95200    236.11275    -521.7043    216156.16   -20184.813    1495.5904   -21680.403   -1560.8411    436.38499    39.404304     39.21214    23.584816 
   95400    234.53679    -285.4857    216156.16   -20142.067    1485.6079   -21627.675    -561.0397    436.34907    39.407041    39.211468    23.602737 
   95600    236.87259   -479.18643    216156.16   -20148.212    1500.4034   -21648.615   -1382.0134    438.51001    39.408335    39.212311    23.601438 
   95800    235.68861   -559.88314    216156.16   -20121.208    1492.9038   -21614.112   -1711.6893    439.13716    39.409637     39.21316    23.624534 
   96000    237.32203    -444.8909    216156.16   -20108.275    1503.2503   -21611.526    -1208.414    439.77225    39.409916    39.215472     23.62868 
   96200    244.31152   -279.93627    216156.16    -20079.38    1547.5233   -21626.903   -510.67512    441.95064    39.408544    39.213624    23.645638 
   96400    232.66231   -401.11796    216156.16   -20161.712    1473.7346   -21635.447   -1043.1298     442.2461     39.40967    39.213457    23.640046 
   96600    230.06599   -278.67128    216156.16   -20183.427    1457.2889   -21640.716   -577.50292    440.44457    39.409649    39.213178     23.62362 
   96800    231.36312   -558.80667    216156.16   -20127.218    1465.5052   -21592.723   -1687.3737    442.55995    39.410358    39.213203     23.61242 
   97000    236.75522   -365.25485    216156.16   -20170.122    1499.6599   -21669.782   -897.24344    442.36276    39.410694    39.214605    23.611001 
   97200    239.01923   -420.05586    216156.16   -20176.721    1514.0007   -21690.722   -1159.7703    443.26401    39.411143    39.216703     23.62469 
   97400    230.07886   -473.81946    216156.16   -20165.045    1457.3704   -21622.416   -1368.5964     444.2138    39.410955    39.217534    23.625268 
   97600    235.27469   -589.48781    216156.16   -20137.335     1490.282   -21627.617   -1840.3029    446.72055    39.409993    39.214776    23.625128 
   97800    230.78215    -539.6303    216156.16   -20149.326    1461.8252   -21611.152   -1644.3854    442.93659    39.409896    39.211524    23.641799 
   98000    227.64548   -437.49396    216156.16   -20225.855    1441.9569   -21667.812   -1205.2992    446.68483    39.410602    39.209303    23.661524 
   98200    237.45882   -251.52444    216156.16     -20222.9    1504.1168   -21727.017   -386.86668    449.42995    39.410363    39.208385    23.646776 
   98400    231.52239   -306.48608    216156.16   -20165.633    1466.5141   -21632.147   -623.26673    451.39191    39.409722    39.208669    23.665165 
   98600    236.19899   -456.49244    216156.16   -20171.423    1496.1367    -21667.56   -1314.6206    451.99841    39.406009    39.208803    23.670685 
   98800    240.16742    -369.7608    216156.16   -20136.294    1521.2736   -21657.568   -916.73943    455.03912      39.4037    39.208312    23.693246 
   99000    236.32412   -464.52079    216156.16   -20189.146    1496.9293   -21686.075   -1339.7994    455.27424     39.40247    39.209102    23.687955 
   99200    239.33953    -513.0135    216156.16   -20187.821    1516.0296   -21703.851   -1511.8314    455.63725    39.405614    39.209771    23.686648 
   99400    234.81217   -505.02395    216156.16   -20172.573    1487.3522   -21659.925   -1546.4701    456.43142     39.40582    39.210672    23.703392 
   99600    233.49411   -389.60481    216156.16   -20172.844    1479.0034   -21651.848   -968.58392     456.7167    39.405253    39.214607    23.696732 
   99800    234.28554    -422.2082    216156.16   -20153.926    1484.0165   -21637.942   -1079.5453    456.44642    39.406104     39.21729    23.702756 
  100000    237.57355   -275.91199    216156.16   -20162.327    1504.8434   -21667.171   -542.55837    456.05355    39.405675    39.217493    23.696879 
  100200    228.52334   -323.68865    216156.16   -20230.469    1447.5174   -21677.986   -705.98526    458.16746    39.404537    39.218446    23.710523 
  100400    232.78854   -337.33901    216156.16   -20139.966    1474.5342     -21614.5    -826.5333    460.14426    39.404137    39.217954    23.693668 
  100600    236.93304   -127.53663    216156.16   -20139.942    1500.7863   -21640.728    115.11183      461.009    39.406689    39.216395    23.720772 
  100800    231.05045   -418.10557    216156.16   -20210.683    1463.5247   -21674.208    -1124.789    461.25655    39.407092    39.214779     23.72933 
[...]
 3975800      227.504   -372.35626    216156.16   -22118.067    1441.0607   -23559.128   -898.09687    5313.2252    38.860377    39.299599    23.457732 
 3976000    225.96134   -272.67519    216156.16   -22133.547    1431.2891   -23564.836   -487.72059    5312.9787    38.858717    39.297382    23.448963 
 3976200     218.4844    -57.67558    216156.16   -22148.587    1383.9286   -23532.515     449.5417    5310.8197    38.855774    39.295824    23.453987 
 3976400    224.85956   -136.84646    216156.16    -22160.95    1424.3102    -23585.26    102.40488    5310.0701    38.852878    39.295327     23.46031 
 3976600    228.33834   -340.58643    216156.16   -22158.557    1446.3456   -23604.903   -755.96158    5311.0477    38.849479    39.294959    23.463887 
 3976800    224.23439   -277.20904    216156.16   -22096.943    1420.3502   -23517.294   -498.61404    5311.5357    38.846572    39.294075    23.460151 
 3977000    223.90728   -146.54255    216156.16   -22193.262    1418.2783    -23611.54    28.315805    5309.8776    38.844626    39.293512    23.460568 
 3977200    230.81565   -96.224884    216156.16   -22109.109    1462.0374   -23571.147    252.28916    5311.7794    38.841414    39.291986    23.460928 
 3977400    223.03743   -332.83196    216156.16   -22118.893    1412.7685   -23531.661   -736.55024    5311.2492    38.838513    39.291278    23.449364 
 3977600    223.32268   -310.53255    216156.16   -22143.393    1414.5753   -23557.968   -663.88827    5310.3168    38.835988    39.290466    23.450417 
 3977800    219.00581   -199.82514    216156.16   -22145.674    1387.2313   -23532.905   -201.43065    5310.6111    38.832766     39.28923     23.45672 
 3978000    218.10926   -176.22121    216156.16   -22172.668    1381.5523    -23554.22   -82.804262    5311.2594    38.829198    39.287995    23.456849 
 3978200    226.39665   -351.04963    216156.16   -22096.352    1434.0465   -23530.399   -851.49299    5312.3194    38.826865    39.286598    23.448703 
 3978400    219.46751   -281.06627    216156.16   -22157.095    1390.1558   -23547.251   -541.25464    5310.9674    38.823469    39.286585     23.45279 
 3978600    220.72207   -144.01198    216156.16   -22116.461    1398.1025   -23514.563    52.372576    5310.7537    38.821185    39.286485    23.453931 
 3978800    227.87709   -171.89463    216156.16   -22099.537    1443.4239   -23542.961   -68.351292    5312.2007    38.818882    39.285876    23.451344 
 3979000    223.59946   -228.65264    216156.16    -22122.35    1416.3285   -23538.678   -313.35875    5311.1728    38.817046    39.284868    23.455041 
 3979200    223.19321   -194.32835    216156.16   -22144.598    1413.7552   -23558.353   -136.83503    5311.9714    38.816942    39.286679    23.450302 
 3979400    229.58628   -233.60977    216156.16   -22098.117    1454.2503   -23552.367   -304.77945    5311.5773    38.815431    39.286059    23.452847 
 3979600    223.60566   -282.18201    216156.16   -22124.027    1416.3677   -23540.394   -546.02363    5310.2074    38.814712    39.285308    23.452652 
 3979800     227.7659   -175.83483    216156.16   -22122.279    1442.7197   -23564.999   -83.083946    5310.8375    38.813789    39.284529    23.448506 
 3980000     228.5176   -196.59007    216156.16   -22128.126    1447.4811   -23575.607    -146.6256    5311.5582    38.812218    39.285545    23.457342 
 3980200    223.08789   -205.78244    216156.16   -22108.899    1413.0881   -23521.988   -235.79964    5309.3901    38.811155     39.28552    23.451088 
 3980400      229.168   -215.55245    216156.16   -22074.012    1451.6008   -23525.613   -223.61915    5312.3498    38.810096    39.287258    23.447558 
 3980600    227.38584   -170.30127    216156.16   -22039.539    1440.3122   -23479.852   -37.055022    5311.7989    38.809239    39.288124    23.445542 
 3980800    225.03234   -289.27758    216156.16   -22071.657    1425.4046   -23497.061   -519.55339    5311.6442    38.807815    39.287555    23.454589 
 3981000    224.58458   -251.21851    216156.16   -22099.183    1422.5685   -23521.751   -389.05884    5312.4682    38.806417    39.288018    23.447113 
 3981200    225.42098   -407.04485    216156.16   -22090.334    1427.8664   -23518.201    -1012.412    5314.8643    38.804794    39.287864    23.448459 
 3981400    227.77502   -236.30013    216156.16   -22076.501    1442.7774   -23519.278   -337.45454    5311.9276    38.803339    39.288482    23.453887 
 3981600    225.59003   -231.45909    216156.16    -22132.24    1428.9372   -23561.177   -303.96051     5312.849    38.801719    39.288348    23.458092 
 3981800    222.93107   -184.98448    216156.16   -22115.555    1412.0948   -23527.649   -123.60064    5313.2658    38.800615    39.288895     23.46279 
 3982000    222.80082   -247.19181    216156.16   -22165.061    1411.2697   -23576.331   -368.29249    5312.5954    38.799063    39.287072    23.460388 
 3982200    219.07603   -152.85535    216156.16   -22211.338    1387.6761   -23599.014   -13.493399     5310.216    38.798358    39.286874    23.462328 
 3982400    229.95267   -145.74974    216156.16   -22123.932    1456.5711   -23580.503    56.485384    5310.6108    38.795698    39.285809    23.456668 
 3982600    223.66246   -335.80838    216156.16   -22130.489    1416.7275   -23547.216   -755.03726    5312.2171    38.793208     39.28599    23.459832 
 3982800    228.52011   -297.47376    216156.16   -22085.785     1447.497   -23533.282   -619.84189    5312.8263    38.790099    39.284326    23.456151 
 3983000     226.7784   -151.54245    216156.16   -22054.427    1436.4646   -23490.891    34.027969    5311.4194    38.788704     39.28383    23.452012 
 3983200    226.37891   -213.83187    216156.16   -22075.283    1433.9341   -23509.217   -253.09866    5312.8031    38.786935    39.282231    23.457353 
 3983400    228.21921   -266.30436    216156.16   -22038.803     1445.591   -23484.394   -495.36676    5313.4126    38.786176     39.28078    23.458222 
 3983600    219.98968   -239.30379    216156.16   -22106.577    1393.4633   -23500.041   -385.43296    5313.1832    38.785611    39.279722    23.450512 
 3983800    224.95168   -94.555305    216156.16   -22108.833    1424.8938   -23533.727    228.93508     5312.419    38.783558    39.278116    23.449911 
 3984000    223.82209   -277.29857    216156.16   -22107.626    1417.7387   -23525.365   -503.18621    5312.5793     38.78178    39.276639    23.444236 
 3984200    227.16119   -252.29648    216156.16   -22078.126    1438.8893   -23517.015   -382.99038    5312.4653    38.781491    39.274256    23.440128 
 3984400     219.2694    -205.2952    216156.16   -22126.076    1388.9009   -23514.977   -196.21732    5311.8022    38.780279    39.272796      23.4388 
 3984600    224.89947   -155.32457    216156.16    -22128.47    1424.5631   -23553.033   -14.323631    5311.5061    38.780648    39.270173    23.439261 
 3984800     222.8454   -196.96128    216156.16   -22108.601    1411.5521   -23520.153   -158.92122    5311.2053    38.780924    39.269022    23.438261 
 3985000    221.35202    -230.2361    216156.16    -22156.84    1402.0927   -23558.933   -296.49694    5312.8561    38.781147    39.268266    23.439379 
 3985200    222.50583   -177.48706    216156.16   -22116.595    1409.4012   -23525.996    -98.31383    5313.1398    38.780009    39.268115     23.43513 
 3985400    229.28585   -266.13319    216156.16   -22130.112    1452.3473   -23582.459   -457.20401    5311.9505      38.7797    39.267872    23.439853 
 3985600    229.61105   -165.72134    216156.16   -22077.056    1454.4072   -23531.463   -73.651582    5312.6617    38.779973    39.267339    23.435819 
 3985800    226.95696   -211.94795    216156.16   -22087.935    1437.5956   -23525.531   -276.41173    5313.3295    38.778225      39.2676    23.439506 
 3986000    230.70031   -261.20663    216156.16   -22015.018    1461.3068   -23476.325    -467.4884    5313.6028    38.775599    39.268354    23.441058 
 3986200    228.40969   -266.08579    216156.16   -22058.882    1446.7975   -23505.679   -481.58233    5314.0836    38.774018    39.271069    23.450853 
 3986400    222.92108    -221.3086    216156.16   -22156.517    1412.0315   -23568.549   -254.53454    5312.9828    38.773285    39.272202    23.444911 
 3986600    224.26633   -170.81502    216156.16   -22110.741    1420.5526   -23531.293   -80.556359    5312.0239    38.769763    39.273315    23.442757 
 3986800    229.03366   -178.43228    216156.16   -22110.111    1450.7499   -23560.861   -88.248532    5313.2923    38.769908    39.275748    23.444608 
 3987000    225.54332   -259.36014    216156.16   -22082.343    1428.6413   -23510.984   -437.38124    5313.2509    38.770095    39.276621    23.442521 
 3987200    219.11959   -99.558049    216156.16   -22179.356     1387.952   -23567.308    215.28943     5314.567    38.768869    39.276082     23.44083 
 3987400    220.19917   -168.17531    216156.16     -22134.1    1394.7903    -23528.89   -6.5595809    5312.2806    38.765636    39.276355    23.447775 
 3987600    229.72866   -209.02629    216156.16   -22072.051    1455.1522   -23527.203   -226.29802    5312.7329    38.763344    39.276059    23.448256 
 3987800     224.9228   -261.74644    216156.16   -22119.267    1424.7108   -23543.978   -421.51733    5313.9967    38.759439    39.275682    23.438672 
 3988000    227.34681   -170.51266    216156.16   -22092.717     1440.065   -23532.782    5.2531773     5313.591    38.757272      39.2766    23.446602 
 3988200    228.49354   -125.53606    216156.16   -22125.003    1447.3286   -23572.332    133.83106    5313.8015     38.75642    39.277331    23.448633 
 3988400    226.93575   -248.96769    216156.16   -22108.505    1437.4613   -23545.966   -389.84131    5313.6662    38.754338    39.277518    23.446887 
 3988600    222.22087   -143.62347    216156.16   -22164.245    1407.5962   -23571.841    30.457738     5313.365    38.753362    39.278419    23.450378 
 3988800    220.17264   -254.12236    216156.16   -22157.338    1394.6223   -23551.961   -411.48549    5314.5855    38.754161    39.280014    23.443462 
 3989000    227.15956    -302.1892    216156.16   -22076.151     1438.879    -23515.03   -589.36652    5314.6087    38.754234    39.282317    23.434436 
 3989200    223.23671   -257.44895    216156.16   -22106.249    1414.0308    -23520.28   -440.44254    5313.4249    38.751435    39.283151    23.432583 
 3989400       224.17   -163.55412    216156.16   -22143.242    1419.9424   -23563.184   -6.5249583     5314.284    38.749617    39.284629    23.442822 
 3989600    228.79691   -193.59694    216156.16   -22057.221    1449.2503   -23506.471   -148.30013    5314.5217    38.748402     39.28588    23.447338 
 3989800    224.10391   -341.59197    216156.16   -22085.402    1419.5238   -23504.925   -773.28215    5313.3601    38.745512    39.285738    23.448587 
 3990000    223.21028    -268.6666    216156.16   -22131.378    1413.8633   -23545.241   -489.07322    5314.2758    38.744568    39.287454     23.45019 
 3990200    220.14231    -214.5158    216156.16   -22125.474    1394.4301   -23519.905   -324.15227    5313.6186    38.743725    39.288692    23.445186 
 3990400    225.51437   -267.64222    216156.16   -22093.316    1428.4579   -23521.773   -495.87007    5312.3481    38.742954    39.289572    23.447064 
 3990600    221.08935   -262.12897    216156.16   -22139.108    1400.4289   -23539.537   -420.83283    5312.8207    38.742009    39.290147    23.442619 
 3990800    228.74594   -196.82121    216156.16   -22111.878    1448.9274   -23560.806   -159.77179    5313.2888    38.741853    39.292284    23.445294 
 3991000    228.64351    -217.3159    216156.16   -22079.478    1448.2786   -23527.756   -241.69533    5310.9574    38.741301     39.29386    23.446572 
 3991200    223.26214   -233.25241    216156.16   -22056.805    1414.1918   -23470.996   -277.66674    5312.4165    38.741876    39.295862    23.448818 
 3991400    226.14246   -239.26742    216156.16    -22059.61    1432.4364   -23492.046   -360.26491     5311.189    38.742229    39.296382    23.447275 
 3991600    224.32505   -193.88882    216156.16   -22110.925    1420.9245   -23531.849   -194.05406    5312.8822    38.741983    39.297765    23.452434 
 3991800    222.33482   -193.39579    216156.16   -22179.262     1408.318    -23587.58   -77.618647    5313.3413    38.740735    39.298219    23.456711 
 3992000    220.93172   -243.40317    216156.16   -22116.352    1399.4304   -23515.782   -331.15618    5312.0992    38.740517    39.298935    23.449504 
 3992200     218.9734    -214.3026    216156.16   -22106.523     1387.026   -23493.549   -213.86378    5310.5599    38.740587    39.300546    23.441556 
 3992400    223.48392   -254.32495    216156.16   -22122.443    1415.5966    -23538.04   -426.87844    5311.0726    38.743164    39.301524    23.435976 
 3992600    224.18546   -255.51087    216156.16   -22107.037    1420.0403   -23527.077    -413.2373    5312.1183    38.745336      39.3029    23.439536 
 3992800    226.83666   -198.46983    216156.16   -22108.864    1436.8336   -23545.697     -199.381    5313.1125    38.745391    39.304348     23.44361 
 3993000    219.30612    -175.1698    216156.16   -22198.901    1389.1335   -23588.035   -54.456696    5313.2109     38.74676    39.305428    23.443372 
 3993200    225.52674   -235.40236    216156.16   -22113.933    1428.5363   -23542.469   -336.56615    5312.2484    38.745773    39.305177    23.433446 
 3993400    222.53371   -206.97042    216156.16   -22070.457    1409.5778   -23480.034   -242.64568    5311.7732    38.745554    39.306053    23.430414 
 3993600    224.79529   -172.13477    216156.16   -22088.259    1423.9031   -23512.162   -99.188226    5312.6371    38.745546     39.30613    23.433252 
 3993800    226.17076   -217.79178    216156.16   -22105.967    1432.6156   -23538.582   -246.96236    5311.8185    38.747151    39.306637    23.435561 
 3994000    220.25731   -213.60349    216156.16   -22118.457    1395.1586   -23513.616   -249.83878    5313.3014    38.747027    39.306912    23.435766 
 3994200    226.55443   -181.17271    216156.16   -22149.735    1435.0459   -23584.781   -121.49695     5312.186    38.747699    39.308335    23.439865 
 3994400    223.11854   -170.87758    216156.16    -22117.97    1413.2822   -23531.252   -57.812424    5311.1969    38.747703    39.309307    23.438789 
 3994600    214.01702    -224.9841    216156.16   -22179.202    1355.6312   -23534.833   -274.44819    5311.7974    38.745718    39.309032     23.43824 
 3994800    229.00023   -191.57046    216156.16   -22087.777    1450.5381   -23538.315   -146.26949    5313.5018    38.745225    39.309299     23.44256 
 3995000    222.84981     -190.709    216156.16   -22104.254      1411.58   -23515.834     -189.072    5311.8805    38.744129    39.309209     23.44391 
 3995200    217.71894   -239.05574    216156.16    -22159.03      1379.08    -23538.11   -356.96939    5313.3183    38.743297    39.308627    23.440548 
 3995400    227.70006   -267.51155    216156.16   -22102.029    1442.3026   -23544.331   -465.43152    5313.4107    38.742986    39.310837    23.444872 
 3995600    234.04039   -154.38858    216156.16   -22047.303    1482.4637   -23529.767   -22.500046    5312.9385    38.741518    39.310066    23.446004 
 3995800    227.43484   -166.30383    216156.16   -22068.356    1440.6226   -23508.978   -65.094881    5313.3241    38.739655    39.309861    23.448345 
 3996000    234.52695    -232.4103    216156.16   -22012.821    1485.5456   -23498.366   -343.88162    5313.3217     38.73766    39.309772    23.444372 
 3996200    222.62088   -171.74437    216156.16   -22088.882      1410.13   -23499.012   -98.904974    5311.7352    38.736112    39.309291     23.44545 
 3996400    224.71503    -205.8589    216156.16   -22132.432    1423.3947   -23555.826   -234.42934    5312.2907    38.734843    39.309417    23.451394 
 3996600    222.97513   -248.43199    216156.16   -22106.236    1412.3738   -23518.609   -381.89558    5313.8325    38.733878     39.31005    23.455372 
 3996800    221.68837   -246.51097    216156.16   -22133.748    1404.2232   -23537.971    -433.7694    5312.6708    38.732839    39.312999    23.439535 
 3997000    236.10866   -171.19535    216156.16    -22024.15    1495.5645   -23519.714   -84.806775    5311.1274    38.731375    39.313878    23.443379 
 3997200    227.56303   -200.33183    216156.16   -22080.161    1441.4346   -23521.596   -178.73974    5310.7598     38.73091    39.314447    23.441633 
 3997400    222.37024   -161.85117    216156.16   -22138.325    1408.5423   -23546.867   -28.666662    5310.8857    38.730564    39.314615    23.435512 
 3997600    225.17435   -180.55118    216156.16    -22068.67    1426.3042   -23494.974    -152.3855    5310.5899    38.728384    39.313695    23.441894 
 3997800    221.49315    -217.6058    216156.16   -22208.779    1402.9866   -23611.765   -277.05249    5310.5913    38.725381    39.313014     23.44176 
 3998000    224.02319   -306.17664    216156.16   -22128.684    1419.0125   -23547.697   -640.42334    5311.5919    38.722791    39.312265    23.441064 
 3998200    222.36776   -380.05867    216156.16   -22171.334    1408.5266   -23579.861   -998.55343     5310.238     38.72232    39.312835     23.44285 
 3998400    225.47744   -100.04703    216156.16   -22050.078     1428.224   -23478.302    245.88142    5308.9335    38.720768    39.312799    23.444278 
 3998600    220.62789   -130.80269    216156.16   -22141.284    1397.5059   -23538.789    116.48578     5309.265    38.719867    39.313321    23.439865 
 3998800    223.34224   -229.88598    216156.16   -22135.052    1414.6992   -23549.751   -302.11826     5309.598    38.717592    39.312897    23.449121 
 3999000    226.15251   -218.88325    216156.16   -22073.504       1432.5   -23506.004    -244.6518    5309.1337    38.716055    39.311665    23.446327 
 3999200    230.15522   -73.689634    216156.16   -22129.923    1457.8541   -23587.777    400.31955    5310.0098    38.716199    39.311138    23.450689 
 3999400    224.86986    -121.7892    216156.16   -22156.417    1424.3755   -23580.793    181.64972    5311.2893    38.713883    39.309544     23.45086 
 3999600    220.38965   -298.91087    216156.16    -22167.66    1395.9968   -23563.656   -628.49274    5310.2617    38.713474    39.309315     23.44364 
 3999800    232.04734   -264.03205    216156.16   -22090.677    1469.8392   -23560.517   -465.38549    5309.9102    38.711847    39.309243    23.441632 
 4000000    224.95975   -218.84581    216156.16   -22091.673    1424.9448   -23516.618   -273.13119    5310.9402     38.71045    39.309566    23.445986 
Loop time of 6210.23 on 120 procs for 4000000 steps with 9422 atoms

Performance: 556.501 ns/day, 0.043 hours/ns, 644.099 timesteps/s
98.1% CPU use with 120 MPI tasks x no OpenMP threads

MPI task timing breakdown:
Section |  min time  |  avg time  |  max time  |%varavg| %total
---------------------------------------------------------------
Pair    | 0.32018    | 1608.1     | 4852       |3827.9 | 25.89
Neigh   | 2.8039     | 97.383     | 292.46     |1041.0 |  1.57
Comm    | 363.13     | 2359.6     | 4803.9     |3045.5 | 37.99
Output  | 71.15      | 71.211     | 72.824     |   1.8 |  1.15
Modify  | 309.04     | 2035.4     | 5729.6     |4895.7 | 32.78
Other   |            | 38.51      |            |       |  0.62

Nlocal:    78.5167 ave 207 max 0 min
Histogram: 32 28 16 4 0 0 0 2 17 21
Nghost:    692.433 ave 907 max 528 min
Histogram: 32 1 13 3 18 13 13 4 10 13
Neighs:    0 ave 0 max 0 min
Histogram: 120 0 0 0 0 0 0 0 0 0
FullNghs:  7927.25 ave 25039 max 0 min
Histogram: 69 11 0 0 0 0 0 8 18 14

Total # of neighbors = 951270
Ave neighs/atom = 100.963
Neighbor list builds = 425503
Dangerous builds = 0
write_data 		${DIR}/data.${NAME}_run
write_data 		run_16/data.${NAME}_run
write_data 		run_16/data.ibeam_cooling_16_run
Total wall time: 1:43:46
