
### Dimensions ###
variable Z_G equal 10.062000000000001
variable Z_W equal 23.803019087

variable	XDIM string 78.752
variable 	YDIM string 80.86108639999017


### IMPORT ATOMS ###
read_data ../Box_Setup/data.Ibeam_240K
  orthogonal box = (0 0 0) to (78.752 80.8611 33.9443)
  5 by 8 by 3 MPI processor grid
  reading atoms ...
  9422 atoms
  reading velocities ...
  9422 velocities
group water type 2
2126 atoms in group water
group graphite type 1
7296 atoms in group graphite


# Define potential
#
pair_style          sw
pair_coeff * * MLC_e.sw C mW

# Add velocity/set timestep
#

fix		1 graphite setforce 0.0 0.0 0.0
velocity 	graphite set 0.0 0.0 0.0
velocity            water create ${START_TEMP} ${SEED} rot yes dist gaussian
velocity            water create 235 ${SEED} rot yes dist gaussian
velocity            water create 235 27985 rot yes dist gaussian
timestep            5.0

# Define output
#
compute 1 water msd
compute 2 water temp


thermo	            100
thermo_style custom step c_2 press vol etotal ke pe c_1[4] density

# Neighbor lists
#
neigh_modify        delay 0 every 1 check yes


# Set fixes
#
fix                 2 water momentum 10 linear 1 1 1 rescale
fix                 3 all nve
fix                 4 water temp/csvr ${START_TEMP} ${START_TEMP} 500.0 928347
fix                 4 water temp/csvr 235 ${START_TEMP} 500.0 928347
fix                 4 water temp/csvr 235 235 500.0 928347

# Run 0.05 ns equilibration
#
dump                1 all custom 100 ${DIR}/eq.${NAME}.dump id type x y z vx vy vz
dump                1 all custom 100 run_16/eq.${NAME}.dump id type x y z vx vy vz
dump                1 all custom 100 run_16/eq.ibeam_cooling_16.dump id type x y z vx vy vz
run                 10000
Neighbor list info ...
  update every 1 steps, delay 0 steps, check yes
  max neighbors/atom: 2000, page size: 100000
  master list distance cutoff = 6.67472
  ghost atom cutoff = 6.67472
  binsize = 3.33736, bins = 24 25 11
  1 neighbor lists, perpetual/occasional/extra = 1 0 0
  (1) pair sw, perpetual
      attributes: full, newton on
      pair build: full/bin/atomonly
      stencil: full/bin/3d
      bin: standard
Per MPI rank memory allocation (min/avg/max) = 3.374 | 4.228 | 4.744 Mbytes
Step c_2 Press Volume TotEng KinEng PotEng c_1[4] Density 
       0          235   -349.74665    216156.16   -20108.674     1488.542   -21597.216            0   0.96737059 
     100    235.68833   -363.33504    216156.16   -20125.558    1492.9021    -21618.46   0.86118661   0.96737059 
     200    233.52671   -441.23706    216156.16   -20166.782    1479.2098   -21645.991    1.3227664   0.96737059 
     300    242.23507   -388.91883    216156.16   -20181.133    1534.3706   -21715.504    1.8072247   0.96737059 
     400    231.25728   -380.02364    216156.16   -20203.092    1464.8348   -21667.927    2.4322445   0.96737059 
     500    231.23576   -415.88124    216156.16   -20191.457    1464.6985   -21656.155    2.8153219   0.96737059 
     600    239.65057   -322.64165    216156.16   -20133.836    1517.9997   -21651.835    3.2839558   0.96737059 
     700    235.08126   -506.05105    216156.16   -20157.463    1489.0567    -21646.52    3.6538895   0.96737059 
     800    234.79206   -478.99661    216156.16   -20140.801    1487.2249   -21628.025    3.8436866   0.96737059 
     900    237.40778   -477.31301    216156.16   -20177.527    1503.7934    -21681.32     4.064655   0.96737059 
    1000    238.59127   -360.35961    216156.16   -20237.952    1511.2899   -21749.242    4.3844461   0.96737059 
    1100     233.9794   -325.66912    216156.16   -20206.719    1482.0773   -21688.797    4.7634389   0.96737059 
    1200    228.51203   -528.83739    216156.16    -20197.12    1447.4458   -21644.565    4.9514649   0.96737059 
    1300    239.39122   -209.73323    216156.16   -20152.165     1516.357   -21668.522    5.3117159   0.96737059 
    1400    237.66975   -294.87341    216156.16   -20187.874    1505.4528   -21693.327    5.6250643   0.96737059 
    1500    226.60374   -348.19277    216156.16   -20203.951    1435.3583   -21639.309    5.9046157   0.96737059 
    1600    234.88749   -402.55631    216156.16   -20166.061    1487.8293   -21653.891    6.4117098   0.96737059 
    1700    237.80291   -418.05935    216156.16   -20172.419    1506.2963   -21678.715    6.8965739   0.96737059 
    1800    232.77566   -298.58581    216156.16   -20154.529    1474.4525   -21628.982     7.129744   0.96737059 
    1900    236.10338   -355.96902    216156.16   -20110.601    1495.5311   -21606.133    7.3987022   0.96737059 
    2000    246.80055    -438.9424    216156.16   -20105.533    1563.2893   -21668.822    7.7812981   0.96737059 
    2100    237.45914   -400.97531    216156.16   -20199.785    1504.1188   -21703.904    8.1066567   0.96737059 
    2200    231.00947   -327.62419    216156.16   -20170.433    1463.2651   -21633.698    8.3881996   0.96737059 
    2300    239.45035   -499.96092    216156.16   -20161.766    1516.7315   -21678.497    8.7460138   0.96737059 
    2400    234.64088   -294.23686    216156.16    -20177.09    1486.2673   -21663.357    8.9588178   0.96737059 
    2500      234.361   -354.69619    216156.16   -20205.911    1484.4945   -21690.406      9.23243   0.96737059 
    2600    230.29869    -329.0941    216156.16   -20225.799    1458.7629   -21684.562    9.5013492   0.96737059 
    2700    232.36062   -332.75115    216156.16   -20202.773    1471.8236   -21674.596    9.7073878   0.96737059 
    2800    244.62432    -458.7985    216156.16    -20152.92    1549.5046   -21702.425    10.029729   0.96737059 
    2900    239.44642   -196.84349    216156.16   -20153.806    1516.7066   -21670.513    10.423527   0.96737059 
    3000    242.37388   -420.46083    216156.16   -20155.783    1535.2498   -21691.033    10.738967   0.96737059 
    3100    237.08785   -374.37432    216156.16   -20160.117    1501.7669   -21661.884    11.213736   0.96737059 
    3200    233.09852   -255.46243    216156.16   -20216.991    1476.4976   -21693.489    11.571149   0.96737059 
    3300    227.38078   -398.28094    216156.16   -20297.869    1440.2802   -21738.149    12.030148   0.96737059 
    3400    229.13971   -409.89486    216156.16   -20231.193    1451.4216   -21682.615     12.35415   0.96737059 
    3500    240.35435   -291.58821    216156.16   -20217.642    1522.4576   -21740.099    12.418029   0.96737059 
    3600    236.38911   -468.05619    216156.16   -20204.254    1497.3409   -21701.595    12.831835   0.96737059 
    3700    232.98736   -309.33585    216156.16   -20172.433    1475.7935   -21648.227    13.030166   0.96737059 
    3800    237.87854   -469.30808    216156.16    -20179.92    1506.7753   -21686.696    13.234823   0.96737059 
    3900    233.88645   -474.80456    216156.16   -20178.333    1481.4886   -21659.822    13.529767   0.96737059 
    4000    236.52536   -301.01584    216156.16   -20205.968     1498.204   -21704.173    13.728479   0.96737059 
    4100    234.42849   -359.07407    216156.16   -20191.905    1484.9219   -21676.827     13.83707   0.96737059 
    4200    237.17154   -507.96693    216156.16   -20190.207     1502.297   -21692.504    14.110991   0.96737059 
    4300    229.95723   -291.74852    216156.16   -20245.475       1456.6   -21702.075    14.517093   0.96737059 
    4400    235.03317   -255.90176    216156.16    -20204.16    1488.7521   -21692.912    15.163889   0.96737059 
    4500    233.61909   -317.69113    216156.16   -20245.635     1479.795    -21725.43    15.744388   0.96737059 
    4600    231.00641   -347.74855    216156.16   -20261.495    1463.2457   -21724.741    16.083394   0.96737059 
    4700     234.5647   -363.86866    216156.16   -20206.246    1485.7848   -21692.031    16.342441   0.96737059 
    4800    239.76172   -311.03971    216156.16   -20172.257    1518.7038   -21690.961    16.828958   0.96737059 
    4900    242.31223   -276.83601    216156.16   -20140.223    1534.8593   -21675.082    16.959531   0.96737059 
    5000    236.21293   -302.97142    216156.16   -20214.105     1496.225    -21710.33    17.156432   0.96737059 
    5100    235.92403   -282.90026    216156.16   -20185.816     1494.395   -21680.211     17.34641   0.96737059 
    5200    229.72212   -266.47768    216156.16   -20214.102    1455.1108   -21669.213    17.578577   0.96737059 
    5300    234.51355   -121.09591    216156.16   -20271.102    1485.4607   -21756.563    17.884196   0.96737059 
    5400    236.88563   -304.50588    216156.16   -20252.493     1500.486   -21752.979    18.201216   0.96737059 
    5500     240.1302   -335.84979    216156.16   -20248.562    1521.0378     -21769.6    18.370696   0.96737059 
    5600    231.34946   -305.59548    216156.16   -20280.386    1465.4187   -21745.805    18.454187   0.96737059 
    5700    234.75463   -426.13685    216156.16   -20260.905    1486.9878   -21747.893    18.630209   0.96737059 
    5800     235.9414    -389.3914    216156.16   -20243.412     1494.505   -21737.917    19.021417   0.96737059 
    5900    236.68431   -434.55325    216156.16   -20271.168    1499.2108   -21770.379    19.721659   0.96737059 
    6000    233.42821   -178.74025    216156.16   -20277.668    1478.5859   -21756.253    19.790245   0.96737059 
    6100    230.21839   -244.52903    216156.16   -20299.946    1458.2542     -21758.2    20.049376   0.96737059 
    6200    230.10588   -479.03278    216156.16   -20306.352    1457.5416   -21763.893    20.357532   0.96737059 
    6300    233.87027   -329.96483    216156.16   -20238.719    1481.3861   -21720.105    20.449097   0.96737059 
    6400    233.02935   -273.29259    216156.16    -20281.79    1476.0595   -21757.849    20.670282   0.96737059 
    6500    235.75593   -396.23826    216156.16   -20294.616    1493.3303   -21787.947    21.087508   0.96737059 
    6600    235.92595   -366.28019    216156.16   -20313.625    1494.4072   -21808.032    21.339952   0.96737059 
    6700    232.31537   -324.33865    216156.16   -20329.269     1471.537   -21800.806    21.921126   0.96737059 
    6800    232.50832   -313.19166    216156.16   -20315.197    1472.7591   -21787.957    21.785386   0.96737059 
    6900    232.97662   -277.05306    216156.16    -20282.27    1475.7255   -21757.995    22.272374   0.96737059 
    7000    240.99426    -570.3792    216156.16   -20289.114     1526.511   -21815.625    22.353498   0.96737059 
    7100    235.21964   -348.09143    216156.16   -20286.088    1489.9332   -21776.022    22.625452   0.96737059 
    7200    227.81492   -390.24859    216156.16   -20346.067    1443.0301   -21789.097    22.927862   0.96737059 
    7300    227.15667   -421.74801    216156.16   -20365.387    1438.8606   -21804.248    23.306606   0.96737059 
    7400     237.0608    -283.7648    216156.16   -20333.073    1501.5956   -21834.668    23.717968   0.96737059 
    7500    232.47462   -352.76245    216156.16    -20296.44    1472.5457   -21768.986    24.358413   0.96737059 
    7600    241.42418   -420.11581    216156.16   -20254.228    1529.2342   -21783.462    24.605754   0.96737059 
    7700    233.97772   -336.15865    216156.16   -20293.457    1482.0667   -21775.524    24.752148   0.96737059 
    7800    230.23681   -335.40177    216156.16   -20360.895    1458.3709   -21819.266    24.607133   0.96737059 
    7900    232.46936   -220.18583    216156.16    -20309.77    1472.5124   -21782.282    24.837471   0.96737059 
    8000    233.31701   -478.83998    216156.16   -20250.964    1477.8816   -21728.846    25.295461   0.96737059 
    8100    232.90408   -441.79686    216156.16   -20224.437     1475.266   -21699.703    25.373369   0.96737059 
    8200    236.03095   -331.08592    216156.16   -20225.582    1495.0723   -21720.654    25.253289   0.96737059 
    8300    234.50889   -246.65164    216156.16   -20191.767    1485.4312   -21677.198    25.612195   0.96737059 
    8400    237.93156   -394.69757    216156.16   -20173.151    1507.1112   -21680.262    26.031883   0.96737059 
    8500     228.8661   -411.83486    216156.16   -20219.235    1449.6885   -21668.923    26.274132   0.96737059 
    8600    239.19469   -470.08924    216156.16   -20215.177    1515.1121   -21730.289    26.980131   0.96737059 
    8700    236.05458   -363.90876    216156.16   -20232.674     1495.222   -21727.896    27.326954   0.96737059 
    8800    236.34986   -368.08927    216156.16   -20232.058    1497.0924    -21729.15    27.172493   0.96737059 
    8900     235.6145   -317.96841    216156.16   -20253.501    1492.4344   -21745.935    27.623489   0.96737059 
    9000    231.71505   -156.71231    216156.16   -20230.837    1467.7344   -21698.571    27.699429   0.96737059 
    9100    233.75559   -554.82688    216156.16   -20249.251    1480.6597    -21729.91    28.114042   0.96737059 
    9200     239.5869   -291.94093    216156.16   -20213.941    1517.5964   -21731.538    28.444981   0.96737059 
    9300    230.49705    -294.5805    216156.16   -20266.673    1460.0193   -21726.692    28.449301   0.96737059 
    9400    232.14897   -175.77694    216156.16   -20251.584    1470.4829   -21722.067     28.67517   0.96737059 
    9500    235.21973   -331.36878    216156.16   -20280.312    1489.9339   -21770.246    28.954741   0.96737059 
    9600    235.55275   -245.93855    216156.16    -20277.58    1492.0433   -21769.624    29.275957   0.96737059 
    9700    231.76156     -523.656    216156.16   -20236.506     1468.029   -21704.535     29.84464   0.96737059 
    9800    242.95369   -353.77209    216156.16    -20207.57    1538.9224   -21746.492    29.898629   0.96737059 
    9900    242.57731   -352.21772    216156.16    -20231.67    1536.5384   -21768.208    30.209166   0.96737059 
   10000    230.50417   -456.92577    216156.16   -20242.624    1460.0644   -21702.689    30.755861   0.96737059 
Loop time of 15.8947 on 120 procs for 10000 steps with 9422 atoms

Performance: 271.789 ns/day, 0.088 hours/ns, 629.140 timesteps/s
98.0% CPU use with 120 MPI tasks x no OpenMP threads

MPI task timing breakdown:
Section |  min time  |  avg time  |  max time  |%varavg| %total
---------------------------------------------------------------
Pair    | 0.0007658  | 4.2587     | 13.143     | 199.9 | 26.79
Neigh   | 0.0036702  | 0.13092    | 0.39172    |  37.6 |  0.82
Comm    | 0.27736    | 5.9284     | 12.671     | 161.6 | 37.30
Output  | 0.16272    | 0.16286    | 0.16971    |   0.2 |  1.02
Modify  | 0.7127     | 5.2943     | 15.324     | 252.1 | 33.31
Other   |            | 0.1196     |            |       |  0.75

Nlocal:    78.5167 ave 206 max 0 min
Histogram: 33 31 11 5 0 0 0 2 14 24
Nghost:    695.542 ave 924 max 528 min
Histogram: 32 2 14 1 28 3 14 2 14 10
Neighs:    0 ave 0 max 0 min
Histogram: 120 0 0 0 0 0 0 0 0 0
FullNghs:  7989.02 ave 24914 max 0 min
Histogram: 68 12 0 0 0 0 0 8 16 16

Total # of neighbors = 958682
Ave neighs/atom = 101.749
Neighbor list builds = 564
Dangerous builds = 0
write_data 	    ${DIR}/data.${NAME}_eq
write_data 	    run_16/data.${NAME}_eq
write_data 	    run_16/data.ibeam_cooling_16_eq

undump              1
unfix               4



################################################
#######         Run Simulation         #########
################################################

reset_timestep      0
timestep	    10.0
log                 ${DIR}/log.run_${NAME}
log                 run_16/log.run_${NAME}
log                 run_16/log.run_ibeam_cooling_16
