
### Dimensions ###
variable Z_G equal 10.062000000000001
variable Z_W equal 23.803019087

variable	XDIM string 78.752
variable 	YDIM string 80.86108639999017


### IMPORT ATOMS ###
read_data ../Box_Setup/data.Ibeam_240K
  orthogonal box = (0 0 0) to (78.752 80.8611 33.9443)
  5 by 8 by 3 MPI processor grid
  reading atoms ...
  9422 atoms
  reading velocities ...
  9422 velocities
group water type 2
2126 atoms in group water
group graphite type 1
7296 atoms in group graphite


# Define potential
#
pair_style          sw
pair_coeff * * MLC_e.sw C mW

# Add velocity/set timestep
#

fix		1 graphite setforce 0.0 0.0 0.0
velocity 	graphite set 0.0 0.0 0.0
velocity            water create ${START_TEMP} ${SEED} rot yes dist gaussian
velocity            water create 235 ${SEED} rot yes dist gaussian
velocity            water create 235 21002 rot yes dist gaussian
timestep            5.0

# Define output
#
compute 1 water msd
compute 2 water temp


thermo	            100
thermo_style custom step c_2 press vol etotal ke pe c_1[4] density

# Neighbor lists
#
neigh_modify        delay 0 every 1 check yes


# Set fixes
#
fix                 2 water momentum 10 linear 1 1 1 rescale
fix                 3 all nve
fix                 4 water temp/csvr ${START_TEMP} ${START_TEMP} 500.0 928347
fix                 4 water temp/csvr 235 ${START_TEMP} 500.0 928347
fix                 4 water temp/csvr 235 235 500.0 928347

# Run 0.05 ns equilibration
#
dump                1 all custom 100 ${DIR}/eq.${NAME}.dump id type x y z vx vy vz
dump                1 all custom 100 run_20/eq.${NAME}.dump id type x y z vx vy vz
dump                1 all custom 100 run_20/eq.ibeam_cooling_20.dump id type x y z vx vy vz
run                 10000
Neighbor list info ...
  update every 1 steps, delay 0 steps, check yes
  max neighbors/atom: 2000, page size: 100000
  master list distance cutoff = 6.67472
  ghost atom cutoff = 6.67472
  binsize = 3.33736, bins = 24 25 11
  1 neighbor lists, perpetual/occasional/extra = 1 0 0
  (1) pair sw, perpetual
      attributes: full, newton on
      pair build: full/bin/atomonly
      stencil: full/bin/3d
      bin: standard
Per MPI rank memory allocation (min/avg/max) = 3.374 | 4.228 | 4.744 Mbytes
Step c_2 Press Volume TotEng KinEng PotEng c_1[4] Density 
       0          235   -349.74665    216156.16   -20108.674     1488.542   -21597.216            0   0.96737059 
     100    237.31288   -474.25716    216156.16   -20119.627    1503.1923   -21622.819   0.84798539   0.96737059 
     200    242.29512   -497.87801    216156.16   -20161.129    1534.7509    -21695.88    1.2982267   0.96737059 
     300    238.98509    -457.6006    216156.16   -20178.133    1513.7845   -21691.917    1.7780108   0.96737059 
     400    233.79515   -422.59957    216156.16   -20187.907    1480.9103   -21668.818    2.1945276   0.96737059 
     500    239.50043   -473.92039    216156.16   -20179.233    1517.0488   -21696.282     2.574921   0.96737059 
     600    241.61468    -412.8805    216156.16   -20127.598    1530.4409   -21658.039    3.1247534   0.96737059 
     700    239.41424   -506.44818    216156.16   -20139.233    1516.5028   -21655.736    3.4895727   0.96737059 
     800    239.51863   -207.00999    216156.16   -20126.522     1517.164   -21643.686    3.7442788   0.96737059 
     900    227.08112   -390.57962    216156.16   -20147.362    1438.3821   -21585.744    4.2465551   0.96737059 
    1000     237.6174    -269.6951    216156.16   -20206.265    1505.1212   -21711.386    4.5541673   0.96737059 
    1100    234.94064   -382.37802    216156.16   -20186.509     1488.166   -21674.675    4.8406876   0.96737059 
    1200    237.65062   -414.55425    216156.16   -20190.269    1505.3316     -21695.6    5.1433585   0.96737059 
    1300    235.26669   -392.62572    216156.16   -20156.591    1490.2313   -21646.822    5.4598886   0.96737059 
    1400    243.23091   -231.98666    216156.16   -20186.361    1540.6784   -21727.039     5.561282   0.96737059 
    1500    236.23749   -508.36602    216156.16   -20229.883    1496.3806   -21726.264    5.7518611   0.96737059 
    1600    239.05523   -440.33088    216156.16   -20211.626    1514.2287   -21725.854    6.0259023   0.96737059 
    1700    232.32981   -554.09731    216156.16    -20221.04    1471.6284   -21692.669    6.2821865   0.96737059 
    1800    232.28529   -287.97799    216156.16    -20195.18    1471.3464   -21666.527    6.6012132   0.96737059 
    1900     237.0211   -244.23567    216156.16   -20145.256    1501.3441     -21646.6    6.8494738   0.96737059 
    2000    242.47922   -488.30992    216156.16   -20112.412    1535.9171   -21648.329    7.1115801   0.96737059 
    2100    234.44234    -364.0488    216156.16   -20205.491    1485.0097   -21690.501    7.3808812   0.96737059 
    2200    244.58448   -538.43064    216156.16   -20189.743    1549.2522   -21738.995    7.5945883   0.96737059 
    2300    242.56557   -388.01393    216156.16   -20181.087     1536.464   -21717.551    8.0162537   0.96737059 
    2400    242.73485    -345.4076    216156.16   -20201.396    1537.5363   -21738.932    8.5702586   0.96737059 
    2500    237.36166   -450.19043    216156.16   -20228.146    1503.5013   -21731.647    8.9841401   0.96737059 
    2600    237.08717   -426.95981    216156.16   -20250.845    1501.7626   -21752.607    9.2038867   0.96737059 
    2700    243.07426   -467.47873    216156.16   -20240.554    1539.6861    -21780.24     9.461825   0.96737059 
    2800    239.80698   -363.41111    216156.16   -20188.248    1518.9905   -21707.238    9.8315833   0.96737059 
    2900    235.61454   -593.01223    216156.16   -20189.916    1492.4346   -21682.351    10.028796   0.96737059 
    3000    243.68411   -268.22797    216156.16   -20185.443    1543.5491   -21728.992    10.041873   0.96737059 
    3100    238.89871   -419.44301    216156.16   -20203.948    1513.2373   -21717.185    10.405608   0.96737059 
    3200    237.00665   -309.76674    216156.16   -20254.595    1501.2526   -21755.848    10.767564   0.96737059 
    3300    230.18985   -225.26193    216156.16   -20344.347    1458.0735    -21802.42     11.05322   0.96737059 
    3400    232.24431   -468.92973    216156.16   -20286.808    1471.0868   -21757.895    11.445818   0.96737059 
    3500     236.5977   -522.81724    216156.16   -20277.017    1498.6622    -21775.68     11.69728   0.96737059 
    3600    235.49433   -386.06202    216156.16   -20273.659    1491.6732   -21765.332    12.012407   0.96737059 
    3700    239.64207   -387.36994    216156.16   -20230.693    1517.9459   -21748.639      12.3421   0.96737059 
    3800    237.03637   -468.40408    216156.16   -20224.756    1501.4409   -21726.197    12.875923   0.96737059 
    3900    233.67877    -422.9898    216156.16   -20230.983     1480.173   -21711.156    13.436642   0.96737059 
    4000    237.50807   -210.11273    216156.16   -20257.008    1504.4287   -21761.437    13.775812   0.96737059 
    4100    239.18864   -295.61608    216156.16   -20258.949    1515.0738   -21774.023    14.084888   0.96737059 
    4200    234.47667   -404.27291    216156.16    -20258.09    1485.2271   -21743.317    14.524664   0.96737059 
    4300    233.83336   -315.30666    216156.16   -20321.458    1481.1523    -21802.61    14.953051   0.96737059 
    4400    238.28629   -444.48775    216156.16   -20283.208    1509.3581   -21792.567    15.022705   0.96737059 
    4500    230.33167   -414.38484    216156.16   -20317.798    1458.9718    -21776.77    15.217408   0.96737059 
    4600    237.59245   -464.41985    216156.16   -20349.896    1504.9632   -21854.859    15.497904   0.96737059 
    4700    236.67031   -466.81202    216156.16    -20273.84    1499.1221   -21772.962    15.707775   0.96737059 
    4800    237.81332   -512.44659    216156.16   -20255.551    1506.3622   -21761.913    15.925685   0.96737059 
    4900    239.52841   -313.89206    216156.16   -20225.729    1517.2259   -21742.955    15.971603   0.96737059 
    5000    233.38642   -353.95293    216156.16   -20288.286    1478.3212   -21766.607    16.224116   0.96737059 
    5100    241.08408   -314.70975    216156.16   -20265.819    1527.0799   -21792.899    16.318904   0.96737059 
    5200    238.18722   -263.73347    216156.16   -20298.601    1508.7306   -21807.332    16.636424   0.96737059 
    5300    228.29246   -380.88893    216156.16   -20353.909     1446.055   -21799.964    16.875381   0.96737059 
    5400     235.3989   -315.42999    216156.16   -20336.828    1491.0688   -21827.896    17.172736   0.96737059 
    5500    238.32025   -221.61989    216156.16   -20347.661    1509.5732   -21857.234    17.674866   0.96737059 
    5600    233.02207   -355.57844    216156.16   -20374.997    1476.0133    -21851.01    18.353405   0.96737059 
    5700    235.51216    -537.1971    216156.16   -20354.699    1491.7862   -21846.485     18.74745   0.96737059 
    5800    237.28325   -401.59821    216156.16    -20329.78    1503.0046   -21832.784     19.15829   0.96737059 
    5900     236.2208   -319.47148    216156.16   -20356.665    1496.2748    -21852.94    19.167582   0.96737059 
    6000    234.16807   -430.63074    216156.16   -20370.602    1483.2724   -21853.874     19.51133   0.96737059 
    6100     232.9996    -403.7238    216156.16   -20391.773     1475.871   -21867.644    19.781175   0.96737059 
    6200    236.65262   -390.97614    216156.16   -20390.995    1499.0101   -21890.005    20.053329   0.96737059 
    6300    238.83289   -346.63373    216156.16   -20328.967    1512.8204   -21841.788    20.643353   0.96737059 
    6400    231.48753   -291.76232    216156.16   -20358.951    1466.2933   -21825.245    20.924925   0.96737059 
    6500    230.51844   -368.53834    216156.16    -20362.17    1460.1548   -21822.325    21.110134   0.96737059 
    6600    231.30246   -289.39067    216156.16    -20367.75     1465.121   -21832.871    21.223976   0.96737059 
    6700    231.44546   -468.97848    216156.16   -20392.298    1466.0268   -21858.324    21.744924   0.96737059 
    6800     232.5779   -451.02094    216156.16   -20370.945    1473.1999   -21844.145    21.974663   0.96737059 
    6900    235.84229   -151.60578    216156.16   -20326.061    1493.8773   -21819.938    22.166512   0.96737059 
    7000    231.19226   -429.35758    216156.16   -20316.158    1464.4229   -21780.581    22.269906   0.96737059 
    7100    231.17273   -320.95167    216156.16   -20307.135    1464.2992   -21771.434    22.640874   0.96737059 
    7200    226.96554   -354.20642    216156.16   -20356.745      1437.65   -21794.395    22.832098   0.96737059 
    7300    229.02599   -274.92614    216156.16   -20373.877    1450.7013   -21824.578     22.68238   0.96737059 
    7400    234.27238   -435.51828    216156.16   -20324.826    1483.9331   -21808.759    22.466663   0.96737059 
    7500    228.89729   -299.70719    216156.16   -20271.836    1449.8861   -21721.722    22.510291   0.96737059 
    7600     238.1813   -280.99026    216156.16   -20209.825    1508.6931   -21718.518    22.540221   0.96737059 
    7700      236.172   -360.06546    216156.16   -20245.623    1495.9657   -21741.589    22.735164   0.96737059 
    7800    226.53475   -478.05994    216156.16   -20297.707    1434.9212   -21732.628    23.042849   0.96737059 
    7900    236.11971   -357.09237    216156.16   -20265.834    1495.6345   -21761.468    23.340348   0.96737059 
    8000    235.92442   -389.43511    216156.16   -20217.837    1494.3975   -21712.235    23.671159   0.96737059 
    8100    242.11104   -389.82039    216156.16   -20206.744    1533.5849   -21740.329    24.163764   0.96737059 
    8200     234.8564   -468.03506    216156.16   -20231.413    1487.6324   -21719.045    24.448655   0.96737059 
    8300    236.22798   -453.91228    216156.16   -20204.223    1496.3203   -21700.543    24.809892   0.96737059 
    8400    244.24255   -376.30625    216156.16   -20189.904    1547.0864    -21736.99    24.815892   0.96737059 
    8500    233.30388   -322.87042    216156.16   -20236.471    1477.7984   -21714.269    25.076656   0.96737059 
    8600    231.89923   -223.05316    216156.16   -20244.425     1468.901   -21713.326      25.6631   0.96737059 
    8700    232.03895   -271.04408    216156.16   -20276.341    1469.7861   -21746.127    25.908448   0.96737059 
    8800    232.61783   -446.05538    216156.16   -20283.852    1473.4528   -21757.304    26.070531   0.96737059 
    8900    236.25279   -402.46408    216156.16   -20304.911    1496.4775   -21801.389    26.305773   0.96737059 
    9000     234.8031   -389.50648    216156.16   -20274.665    1487.2948    -21761.96    26.603116   0.96737059 
    9100    228.29993   -424.04914    216156.16   -20289.365    1446.1023   -21735.468    26.769985   0.96737059 
    9200    236.68189   -355.77022    216156.16       -20237    1499.1955   -21736.195    26.775773   0.96737059 
    9300    235.86129   -336.68387    216156.16   -20305.059    1493.9976   -21799.057     26.89895   0.96737059 
    9400    238.12398   -442.60958    216156.16   -20290.377      1508.33   -21798.707    26.927934   0.96737059 
    9500    231.67495   -462.69774    216156.16   -20315.028    1467.4804   -21782.508    26.923616   0.96737059 
    9600     236.7312   -332.95586    216156.16   -20323.462    1499.5078    -21822.97    26.586543   0.96737059 
    9700     236.2453   -383.73731    216156.16   -20281.793      1496.43   -21778.223    26.643604   0.96737059 
    9800    234.69772   -465.70502    216156.16   -20260.868    1486.6273   -21747.496     26.75767   0.96737059 
    9900     230.0071   -341.88481    216156.16     -20280.5    1456.9159   -21737.416    26.667195   0.96737059 
   10000    236.71929   -325.71536    216156.16   -20279.382    1499.4324   -21778.815    26.748617   0.96737059 
Loop time of 16.0275 on 120 procs for 10000 steps with 9422 atoms

Performance: 269.536 ns/day, 0.089 hours/ns, 623.926 timesteps/s
98.0% CPU use with 120 MPI tasks x no OpenMP threads

MPI task timing breakdown:
Section |  min time  |  avg time  |  max time  |%varavg| %total
---------------------------------------------------------------
Pair    | 0.0007565  | 4.2772     | 12.915     | 201.0 | 26.69
Neigh   | 0.0037408  | 0.13404    | 0.43031    |  38.3 |  0.84
Comm    | 0.2485     | 6.0425     | 12.769     | 161.0 | 37.70
Output  | 0.17261    | 0.17281    | 0.17971    |   0.2 |  1.08
Modify  | 0.81226    | 5.288      | 15.488     | 251.7 | 32.99
Other   |            | 0.113      |            |       |  0.71

Nlocal:    78.5167 ave 207 max 0 min
Histogram: 33 30 13 4 0 0 0 2 15 23
Nghost:    695.65 ave 935 max 528 min
Histogram: 32 1 15 3 29 1 13 8 10 8
Neighs:    0 ave 0 max 0 min
Histogram: 120 0 0 0 0 0 0 0 0 0
FullNghs:  7998.83 ave 24990 max 0 min
Histogram: 67 13 0 0 0 0 0 8 14 18

Total # of neighbors = 959860
Ave neighs/atom = 101.874
Neighbor list builds = 568
Dangerous builds = 0
write_data 	    ${DIR}/data.${NAME}_eq
write_data 	    run_20/data.${NAME}_eq
write_data 	    run_20/data.ibeam_cooling_20_eq

undump              1
unfix               4



################################################
#######         Run Simulation         #########
################################################

reset_timestep      0
timestep	    10.0
log                 ${DIR}/log.run_${NAME}
log                 run_20/log.run_${NAME}
log                 run_20/log.run_ibeam_cooling_20
