
# Set production fixes - Nose/Hoover
#
fix                 4 water temp/csvr ${START_TEMP} ${END_TEMP} 500.0 928347
fix                 4 water temp/csvr 235 ${END_TEMP} 500.0 928347
fix                 4 water temp/csvr 235 225 500.0 928347


## divide "droplet" into core and surface
#region		core_reg cylinder z 135 135 44.6 20 INF units box
#region		surface_reg cylinder z 135 135 44.6 20 INF units box side out
#group		core dynamic all region core_reg
#group		surface dynamic all region surface_reg

## compute pressure core
#compute        peratom_core core stress/atom NULL
#compute        p_core core reduce sum c_peratom_core[1] c_peratom_core[2] c_peratom_core[3]
#variable       press_core equal -(c_p_core[1]+c_p_core[2]+c_p_core[3])/(3*1249982.5)


## compute pressure surface
#compute        peratom_surf surface stress/atom NULL
#compute        p_surf surface reduce sum c_peratom_surf[1] c_peratom_surf[2] #c_peratom_surf[3]
#variable       press_surf equal -(c_p_surf[1]+c_p_surf[2]+c_p_surf[3])/(3*42395)

## compute total pressure of drop
compute        peratom water stress/atom NULL
compute        p water reduce sum c_peratom[1] c_peratom[2] c_peratom[3]
variable       press equal -(c_p[1]+c_p[2]+c_p[3])/(3*50402)


# compute order parameter
compute        3 all orientorder/atom nnn NULL cutoff 3.5

# compute center of mass of bridge
compute 	4 water com

# Run simulation
thermo_style        custom step c_2 press vol etotal ke pe v_press c_1[4] c_4[*]
thermo              200
dump		     1 water custom 400 ${DIR}/prod.${NAME}.dump id type x y z vx vy vz c_3[*] c_peratom[*]
dump		     1 water custom 400 run_20/prod.${NAME}.dump id type x y z vx vy vz c_3[*] c_peratom[*]
dump		     1 water custom 400 run_20/prod.ibeam_cooling_20.dump id type x y z vx vy vz c_3[*] c_peratom[*]
run                 ${STEPS}
run                 4000000
Neighbor list info ...
  update every 1 steps, delay 0 steps, check yes
  max neighbors/atom: 2000, page size: 100000
  master list distance cutoff = 6.67472
  ghost atom cutoff = 6.67472
  binsize = 3.33736, bins = 24 25 11
  2 neighbor lists, perpetual/occasional/extra = 1 1 0
  (1) pair sw, perpetual
      attributes: full, newton on
      pair build: full/bin/atomonly
      stencil: full/bin/3d
      bin: standard
  (2) compute orientorder/atom, occasional, copy from (1)
      attributes: full, newton on
      pair build: copy
      stencil: none
      bin: none
Per MPI rank memory allocation (min/avg/max) = 6.149 | 6.79 | 7.275 Mbytes
Step c_2 Press Volume TotEng KinEng PotEng v_press c_1[4] c_4[1] c_4[2] c_4[3] 
       0    236.71929   -325.71536    216156.16   -20279.382    1499.4324   -21778.815   -684.45223    26.748617    39.424159    39.230307    23.773315 
     200    231.42002   -487.62175    216156.16   -20287.101    1465.8656   -21752.967   -1453.7186     27.15605    39.424249    39.232709    23.784293 
     400    236.86767   -456.74743    216156.16   -20265.042    1500.3722   -21765.414   -1235.3842    28.124134    39.423118    39.234299    23.793128 
     600    239.58768   -324.59568    216156.16   -20156.718    1517.6014   -21674.319    -725.4237    28.917106     39.42186    39.234398    23.779568 
     800    247.45979   -426.77461    216156.16   -20143.511    1567.4651   -21710.977   -1163.6646    29.814768    39.423003    39.232281    23.778354 
    1000    233.15792   -426.77823    216156.16   -20248.373    1476.8739   -21725.247   -1178.5309    30.913303    39.421563    39.230959    23.783362 
    1200    239.15963   -461.63182    216156.16   -20224.671      1514.89   -21739.561   -1319.6268     32.68905    39.419186    39.229685     23.79908 
    1400    234.98247   -508.74656    216156.16   -20193.385     1488.431   -21681.816   -1495.2076    34.247776    39.417722    39.229207      23.7874 
    1600    234.65863   -473.09185    216156.16   -20184.314    1486.3797   -21670.694    -1327.121    35.008054    39.416617    39.229127    23.780943 
    1800    237.48362   -269.40307    216156.16   -20160.962    1504.2738   -21665.236   -460.56344    35.378369    39.416435    39.228067     23.79328 
    2000    237.23155   -292.36314    216156.16   -20105.926    1502.6772   -21608.603    -539.4064    35.765766    39.413742    39.227114    23.800361 
    2200    240.47055   -250.78359    216156.16   -20213.388    1523.1937   -21736.582   -377.52256    37.034126    39.412917    39.227461    23.811186 
    2400    239.59334   -257.86903    216156.16   -20198.718    1517.6372   -21716.355   -433.54116    38.812188    39.413206    39.228174    23.804657 
    2600    229.71916   -153.72273    216156.16   -20227.746     1455.092   -21682.838    24.399843    39.413823    39.411415    39.228766    23.820069 
    2800    237.84727   -423.52077    216156.16   -20125.807    1506.5772   -21632.384   -1113.4795    40.763191    39.410038    39.230135    23.817578 
    3000    235.74971   -472.00702    216156.16   -20125.732    1493.2909   -21619.023   -1324.6655    41.475425    39.407717    39.231819    23.822082 
    3200    231.91441   -386.27733    216156.16   -20214.023    1468.9972    -21683.02   -963.53084    43.145011    39.408991    39.232099    23.853465 
    3400    238.31538   -326.14825    216156.16   -20186.902    1509.5424   -21696.444   -713.46432    44.160187    39.405958    39.232685    23.863675 
    3600    236.15077    -325.0317    216156.16   -20210.432    1495.8312   -21706.263   -730.82839    45.174213     39.40462    39.236184    23.861525 
    3800    237.20532   -345.01941    216156.16    -20192.69     1502.511   -21695.201   -814.15554    47.149683    39.401151    39.239301    23.872062 
    4000    235.29007   -494.98934    216156.16   -20200.027    1490.3794   -21690.407   -1454.5842     47.86481    39.400897    39.239097    23.868664 
    4200     228.6582   -487.01946    216156.16   -20178.808    1448.3717    -21627.18   -1376.5248    48.841441    39.398119    39.238813    23.854664 
    4400    233.43628    -507.5921    216156.16   -20192.781     1478.637   -21671.418    -1480.619    49.712664    39.397541    39.239012    23.827158 
    4600    231.86559   -307.12074    216156.16    -20230.92     1468.688   -21699.608   -583.22729    51.286406    39.396599    39.238917    23.829891 
    4800    231.26419   -383.34469    216156.16   -20132.189    1464.8786   -21597.068   -935.07622     52.05893    39.397862    39.239004    23.793373 
    5000    229.44174   -477.00191    216156.16   -20202.421    1453.3348   -21655.755   -1373.5824    53.026058    39.397577    39.240048    23.776215 
    5200    233.72697    -401.7821    216156.16   -20220.638    1480.4784   -21701.117   -1055.9954    53.635548    39.397491    39.241359    23.779824 
    5400    236.05492   -281.70657    216156.16   -20250.351    1495.2241   -21745.575   -534.42485    54.582069    39.396942    39.240471    23.783367 
    5600    234.04151   -304.47517    216156.16   -20256.787    1482.4708   -21739.258   -635.45962    55.095808    39.395708    39.242034    23.767073 
    5800    233.15224   -321.44498    216156.16   -20183.315    1476.8379   -21660.153   -737.73785    56.278097    39.394827    39.242531    23.761741 
    6000    229.79735    -545.1048    216156.16   -20209.408    1455.5873   -21664.995   -1642.7412    57.003883    39.396232    39.243262    23.761907 
    6200    235.88847   -479.38452    216156.16    -20230.39    1494.1698    -21724.56   -1358.4726    57.459355     39.39619    39.241867    23.756152 
    6400    230.80707   -356.33851    216156.16   -20203.221    1461.9831   -21665.204   -854.29848    58.254618    39.397988    39.240574    23.764842 
    6600    234.82136   -561.74168    216156.16   -20212.938    1487.4105   -21700.348   -1741.7612    59.574966    39.400561    39.240221    23.765017 
    6800    238.58385   -422.02538    216156.16   -20207.428    1511.2429   -21718.671   -1095.3351    59.923486    39.402744    39.241792    23.748251 
    7000    233.88508   -465.81501    216156.16   -20165.006    1481.4799   -21646.485   -1308.1821     60.43679    39.401111    39.243345    23.748573 
    7200    235.02719    -367.2634    216156.16   -20251.577    1488.7143   -21740.291   -842.91855    62.141041    39.400788    39.243947    23.757623 
    7400    234.88509    -441.4274    216156.16   -20253.164    1487.8141   -21740.978   -1214.4367    63.174523    39.396804    39.244973    23.783683 
    7600    239.85807   -435.10768    216156.16   -20159.038    1519.3141   -21678.352   -1230.6147    64.067211    39.395901    39.245941    23.768182 
    7800    229.00679   -441.34914    216156.16   -20262.899    1450.5797   -21713.478   -1208.6795    65.153161    39.398037    39.246721    23.740588 
    8000    237.47995   -543.75742    216156.16   -20149.657    1504.2506   -21653.907   -1702.5934    66.139762    39.398874    39.248868    23.747603 
    8200    237.81559   -325.70072    216156.16   -20116.498    1506.3766   -21622.875   -772.94924    67.733962    39.400456    39.250854    23.733461 
    8400    244.52343   -380.81244    216156.16   -20065.241    1548.8655   -21614.106   -962.28632    68.767215    39.400578    39.250144    23.752347 
    8600    239.25787   -368.78953    216156.16    -20149.91    1515.5123   -21665.422   -938.84732      69.7365    39.399192    39.253342    23.733641 
    8800    228.67213   -561.74092    216156.16   -20160.672    1448.4599   -21609.132    -1714.206    71.029815    39.398411    39.252896    23.737201 
    9000    237.62906   -229.34884    216156.16   -20116.209    1505.1951   -21621.404   -271.71572    71.801338    39.398026    39.252104     23.72455 
    9200    238.26214   -13.229193    216156.16   -20100.726    1509.2051   -21609.931    629.28216    72.841238     39.39785    39.252451     23.71732 
    9400    237.85164   -362.67395    216156.16   -20184.312     1506.605   -21690.917   -837.87783    73.738209    39.399139    39.253394    23.713432 
    9600     235.7327   -397.56178    216156.16   -20186.745    1493.1831   -21679.929   -977.78017     75.52904    39.398078    39.252313    23.718405 
    9800    234.07346   -409.11441    216156.16   -20136.743    1482.6731   -21619.416   -1038.2907    76.882228    39.396368    39.253872    23.731113 
   10000    231.91188   -317.85198    216156.16    -20155.95    1468.9812   -21624.931   -707.82603    77.780149    39.395944    39.255461    23.746211 
   10200    238.05821   -204.22777    216156.16   -20093.613    1507.9134   -21601.527   -234.81828    78.664894    39.397525    39.255082    23.759857 
   10400    240.72674   -407.84766    216156.16   -20133.839    1524.8164   -21658.656   -1103.1317    80.795187    39.397735    39.255651    23.764401 
   10600    230.52815   -442.70759    216156.16    -20235.72    1460.2163   -21695.937   -1205.2998     80.28825    39.395396    39.253609    23.765351 
   10800    228.42842   -304.09238    216156.16    -20299.71    1446.9162   -21746.626   -667.77671    81.305904    39.395497    39.252578    23.763955 
   11000    230.30529    -253.0593    216156.16   -20275.296    1458.8047   -21734.101   -418.76842    82.346247    39.394898    39.251201    23.780262 
   11200     229.3179   -308.77858    216156.16   -20250.336    1452.5503   -21702.886   -679.56129    82.659841    39.391537    39.249219    23.802979 
   11400     232.8434    -378.4788    216156.16   -20218.762    1474.8816   -21693.644   -935.09695    84.469126    39.390847    39.249794    23.809113 
   11600    240.18545   -479.25263    216156.16   -20141.693    1521.3878   -21663.081   -1415.1139    86.407273    39.390229    39.251228    23.810095 
   11800    230.96155   -435.94988    216156.16   -20129.289    1462.9616   -21592.251   -1190.6785    87.204749    39.385825    39.251471    23.820272 
   12000    241.33747   -305.81483    216156.16   -20125.455     1528.685    -21654.14   -623.07766    87.316553     39.38452    39.252657    23.832717 
   12200    241.58405   -440.69417    216156.16   -20159.206    1530.2469   -21689.453   -1183.3573    88.136483    39.385212    39.250154    23.830916 
   12400     239.3325   -358.05395    216156.16   -20206.286     1515.985   -21722.271    -836.6897    89.557498    39.385224    39.249782    23.831255 
   12600    233.82445   -348.36493    216156.16    -20106.49    1481.0958   -21587.586   -835.89553    89.785303    39.386091    39.249858    23.823094 
   12800    237.35016   -377.35222    216156.16    -20133.35    1503.4285   -21636.778   -1005.6435    92.254225    39.383419    39.249786    23.843071 
   13000    228.53177   -340.20112    216156.16   -20138.773    1447.5708   -21586.344   -786.72109    92.720395    39.382246    39.248643    23.833165 
   13200    232.03673   -444.22057    216156.16   -20154.529     1469.772   -21624.301   -1251.1509     92.86839    39.380383    39.249745    23.798552 
   13400    231.49664   -296.80645    216156.16   -20230.395    1466.3509   -21696.746    -583.2134    94.770205    39.379329     39.25175    23.779541 
   13600     236.4005   -365.43304    216156.16   -20213.549    1497.4131   -21710.962   -892.21213    96.447123       39.379    39.251769      23.7841 
   13800    238.37268   -371.66373    216156.16   -20155.961    1509.9053   -21665.866   -934.92356    97.466658    39.381161    39.252716    23.776379 
   14000    239.43987   -333.77839    216156.16   -20101.159    1516.6651   -21617.824   -781.79272    99.049856    39.380642    39.253549    23.781206 
   14200    238.32255   -422.27245    216156.16   -20153.782    1509.5878    -21663.37   -1152.1388    99.823283     39.37744    39.253473    23.787709 
   14400    232.38716   -268.98953    216156.16   -20214.212    1471.9917   -21686.204   -499.50024    100.33285    39.377585    39.255399     23.77493 
   14600    224.62206   -440.78166    216156.16   -20184.555    1422.8059   -21607.361   -1242.3282    101.62651    39.376857    39.255618    23.773046 
   14800    239.50073   -224.63281    216156.16   -20141.268    1517.0507   -21658.319    -309.5692    101.56867    39.374492    39.256279    23.772955 
   15000    229.62522   -389.61891    216156.16   -20197.977     1454.497   -21652.474   -1018.8465    103.00422    39.375385    39.257806    23.775645 
   15200    235.36079   -403.56632    216156.16   -20142.495    1490.8273   -21633.322   -1048.0706    104.05535    39.375267     39.25732    23.783929 
   15400    233.22228   -373.63565    216156.16   -20193.605    1477.2816   -21670.887   -913.55885    104.68986    39.376736    39.257872    23.798964 
   15600    239.80144   -504.38134    216156.16   -20060.854    1518.9554    -21579.81   -1445.3331    105.95687    39.378189    39.259508    23.788531 
   15800    242.88423   -456.03852    216156.16   -20125.066    1538.4825   -21663.549   -1273.0873    107.28169    39.378866    39.259487     23.77413 
   16000    234.32364   -256.33163    216156.16   -20157.622    1484.2578   -21641.879   -450.80167     108.4754    39.381095    39.258129    23.768227 
   16200    238.96581   -310.51779    216156.16   -20125.785    1513.6624   -21639.447   -693.13465    108.55112    39.382762    39.257009     23.76886 
   16400    237.64622   -441.94842    216156.16   -20195.728    1505.3037   -21701.031   -1211.5744    109.83389    39.380207    39.256799    23.774964 
   16600    237.20531   -400.97479    216156.16   -20116.493    1502.5109   -21619.004   -1034.0586     110.6197     39.37795    39.257739    23.756931 
   16800    239.01867   -200.93559    216156.16   -20176.767    1513.9972   -21690.764   -198.71523    111.38147    39.374849    39.257413     23.75052 
   17000    235.86398   -367.94263    216156.16   -20223.234    1494.0147   -21717.248   -903.76365    113.36841    39.379094    39.256928    23.763102 
   17200    233.36954   -347.80265    216156.16   -20235.473    1478.2143   -21713.687   -789.76114    113.52019    39.381388    39.256635    23.760518 
   17400    234.18136   -396.96238    216156.16   -20302.061    1483.3565   -21785.418   -1009.8595    114.13526    39.380212    39.253958    23.754196 
   17600    232.23341   -338.36475    216156.16   -20265.744    1471.0179   -21736.762   -809.82521    115.13482    39.378954    39.253789    23.767404 
   17800    233.83618    -414.9432    216156.16   -20291.451    1481.1701   -21772.621    -1091.057    116.62465    39.377602    39.254738    23.795682 
   18000    234.21142    -344.5759    216156.16   -20245.698    1483.5469   -21729.245   -801.22722      117.563    39.380308    39.256031    23.781109 
   18200    232.12438   -266.96429    216156.16    -20244.99    1470.3272   -21715.317   -549.99159    119.66248     39.38032    39.254605    23.766713 
   18400    236.36018   -343.16948    216156.16   -20211.641    1497.1577   -21708.799   -831.97931    120.45685    39.381591     39.25195    23.720264 
   18600    239.01439   -337.00177    216156.16   -20194.117    1513.9701   -21708.087   -833.11544    122.30366    39.381767    39.253059     23.69004 
   18800    235.33991   -388.24609    216156.16   -20258.734    1490.6951   -21749.429   -1003.7061    122.62315    39.382018    39.254627    23.687825 
   19000    236.95185   -511.80084    216156.16   -20168.431    1500.9054   -21669.336   -1515.8862    123.82047    39.380973     39.25516       23.673 
   19200     240.2434   -280.55194    216156.16   -20211.495    1521.7549    -21733.25   -587.26217    125.53478    39.379951    39.254933    23.667364 
   19400    233.84984   -387.52661    216156.16   -20154.932    1481.2566   -21636.189   -976.21966    125.72704    39.380387    39.255346    23.668975 
   19600    239.93657   -199.24308    216156.16   -20194.264    1519.8113   -21714.075   -193.49924    127.14458    39.382157     39.25748    23.655497 
   19800    234.27223   -457.88351    216156.16   -20200.069    1483.9322   -21684.001   -1246.9763    128.09543    39.384648    39.260478    23.670928 
   20000    232.18435   -522.91325    216156.16   -20230.158     1470.707   -21700.865   -1574.7509    129.07633    39.386694    39.262686    23.642759 
   20200    230.50668   -445.36369    216156.16   -20282.716    1460.0804   -21742.796   -1189.1236    129.10954    39.387811    39.264609    23.647287 
   20400    234.13954   -287.31921    216156.16   -20209.332    1483.0917   -21692.424   -547.78227    130.61889    39.390441    39.265728    23.647824 
   20600    230.15021   -463.98061    216156.16   -20249.582    1457.8224   -21707.405   -1303.2274    131.65942    39.392118    39.266316    23.649491 
   20800    240.32386    -367.3942    216156.16    -20179.66    1522.2645   -21701.924   -888.88446    131.90056    39.393812    39.265922     23.63894 
   21000    234.33926   -353.24815    216156.16   -20225.056    1484.3568   -21709.412   -774.38444    133.29702    39.396713    39.264834    23.667305 
   21200    239.26782   -521.42781    216156.16   -20220.244    1515.5754    -21735.82   -1582.9037    133.48452    39.397309    39.261382    23.644801 
   21400    232.51579   -446.00847    216156.16   -20268.269    1472.8065   -21741.076   -1224.1769    134.09936    39.396605    39.260884    23.651901 
   21600    238.92765   -409.15061    216156.16   -20170.449    1513.4206    -21683.87   -1103.2804    135.50452    39.397504    39.262048    23.653704 
   21800    232.77051   -424.23773    216156.16   -20296.462      1474.42   -21770.882   -1112.2034    135.67851    39.396981    39.262229    23.648017 
   22000    235.29416   -493.51239    216156.16   -20362.431    1490.4053   -21852.836   -1360.8885    137.02237    39.393776    39.262471    23.645321 
   22200    227.22516   -364.90399    216156.16    -20373.32    1439.2945   -21812.615   -877.15718    137.49551    39.393527    39.262941    23.625829 
   22400    234.07385   -414.74175    216156.16    -20242.94    1482.6756   -21725.616   -1145.4597    137.02917    39.392114    39.266369    23.614935 
   22600    237.08091   -370.20737    216156.16   -20237.549     1501.723   -21739.272   -915.29792    138.28654    39.390824    39.266918    23.610446 
   22800    236.67383   -322.27254    216156.16   -20190.923    1499.1444   -21690.067   -743.77567    138.10354    39.390509    39.265863    23.613216 
   23000    231.83929   -154.57651    216156.16   -20288.285    1468.5214   -21756.806    33.027409    137.64835    39.388929    39.267755    23.609819 
   23200    233.53691   -306.55479    216156.16   -20217.896    1479.2745   -21697.171   -632.27602    139.99478    39.389556    39.267937    23.593679 
   23400    231.02402   -326.56522    216156.16   -20217.581    1463.3573   -21680.939   -747.42814    140.20056    39.389694    39.265329    23.599964 
   23600    242.41515   -368.73239    216156.16   -20164.164    1535.5112   -21699.675   -930.99677    140.63295    39.387936    39.265155    23.596394 
   23800    236.09151   -552.67536    216156.16   -20161.273    1495.4559   -21656.729   -1700.8331    142.39946    39.387422    39.266068    23.585863 
   24000     235.6908   -317.97821    216156.16   -20195.447    1492.9177   -21688.365   -669.22709    142.93994     39.38637    39.267215    23.602645 
   24200    228.71882   -459.89064    216156.16   -20227.705    1448.7556   -21676.461   -1305.7638     143.1631    39.385988    39.265598    23.620899 
   24400    239.01727   -519.39303    216156.16   -20238.768    1513.9883   -21752.756   -1539.1753    143.89229    39.385144    39.264711    23.617879 
   24600    228.06848   -252.03679    216156.16   -20281.563    1444.6362     -21726.2   -413.86706    144.34295    39.385222    39.264468    23.630431 
   24800    230.90157   -381.86287    216156.16   -20247.825    1462.5816   -21710.407   -974.16345    144.78569    39.385893    39.262448    23.625174 
   25000    237.16178   -356.09372    216156.16   -20242.995    1502.2352   -21745.231   -869.06299    145.09294    39.386206    39.264152    23.606356 
   25200    224.34398   -433.41241    216156.16   -20378.265    1421.0444   -21799.309   -1137.9766    146.34476    39.388275    39.266573    23.587044 
   25400    234.84617   -465.84592    216156.16   -20270.927    1487.5676   -21758.495   -1318.6221    147.20114    39.388907     39.26693    23.588266 
   25600    240.74423   -412.87349    216156.16   -20130.215    1524.9273   -21655.143   -1102.5588    147.40642    39.388145    39.267364    23.609503 
   25800    246.13116   -374.21509    216156.16   -20191.327    1559.0492   -21750.377    -938.2124    149.48743    39.387357    39.265667    23.620855 
   26000    230.09752   -497.98953    216156.16   -20257.488    1457.4886   -21714.977   -1479.4113    150.41655    39.388353      39.2647    23.600287 
   26200    235.39272   -229.40608    216156.16   -20234.217    1491.0296   -21725.247   -374.02552    151.11958    39.386963    39.267873    23.607902 
   26400     230.1346   -447.59953    216156.16   -20265.861    1457.7235   -21723.584   -1296.0299    153.17875    39.385261    39.270298    23.616166 
   26600    240.84506   -368.07234    216156.16    -20166.94    1525.5659   -21692.506   -901.47024    154.43133    39.385339    39.271989    23.592672 
   26800    236.93725   -306.08955    216156.16   -20210.458     1500.813   -21711.271   -648.02373    155.43407    39.385586    39.275407     23.59646 
   27000    238.34332   -498.10042    216156.16   -20142.792    1509.7194   -21652.512   -1466.9914    156.82626    39.387215    39.274199    23.602753 
   27200    234.07143   -466.35957    216156.16   -20143.974    1482.6603   -21626.634   -1332.8945    159.28932    39.387164    39.276328    23.628765 
   27400     233.2812   -281.61202    216156.16   -20132.031    1477.6547   -21609.685   -527.37834    159.78682    39.386099    39.278481    23.621619 
   27600    231.03712   -451.31914    216156.16   -20244.971    1463.4403   -21708.411   -1292.8441     161.4968    39.383436    39.278561    23.636721 
   27800    231.19048   -492.64361    216156.16   -20142.121    1464.4117   -21606.533   -1418.3315     162.4105    39.379622    39.276809    23.622316 
   28000    232.20058    -535.4754    216156.16   -20235.352    1470.8098   -21706.162   -1625.4558    163.04573    39.379362    39.276123    23.616677 
   28200    234.37976   -470.35401    216156.16   -20235.729    1484.6133   -21720.342   -1321.7129    164.07927    39.378892    39.277262    23.629714 
   28400    232.28746   -530.86915    216156.16   -20198.324    1471.3602   -21669.684   -1588.5182    163.74929    39.379054    39.276621    23.622191 
   28600    229.85207   -450.55291    216156.16   -20178.216    1455.9339    -21634.15   -1275.7095    163.13457    39.380105    39.276531    23.619592 
   28800    232.59935   -211.25513    216156.16   -20187.603    1473.3357   -21660.938   -297.44842    164.13435    39.379592    39.278272    23.614556 
   29000    235.32881   -446.48944    216156.16   -20148.407    1490.6248   -21639.032   -1231.0802    164.88016    39.380392    39.278314    23.588082 
   29200    238.37876   -427.21976    216156.16   -20112.577    1509.9438   -21622.521   -1172.7174    165.49344    39.380253    39.278543    23.601283 
   29400    234.31486   -411.85408    216156.16   -20127.845    1484.2022   -21612.047   -1087.8682    167.05306    39.380482    39.276769    23.598096 
   29600    237.67748   -340.27809    216156.16   -20126.316    1505.5018   -21631.818   -789.78728    166.90137    39.383173    39.275669    23.601568 
   29800    228.20833   -462.17346    216156.16   -20247.487    1445.5221   -21693.009   -1336.5305    167.50376    39.384591    39.277233    23.600302 
   30000    223.72959   -470.26517    216156.16   -20287.892    1417.1527   -21705.045   -1321.1807    169.01398    39.383116    39.273833    23.625959 
   30200    235.94481   -281.76688    216156.16   -20215.722    1494.5267   -21710.248   -524.60699    170.03578    39.382978    39.269968    23.620991 
   30400    233.61016   -376.89258    216156.16    -20198.93    1479.7385   -21678.668   -967.00591    170.28527    39.383962     39.26615    23.623202 
   30600    225.45771   -244.96743    216156.16    -20234.84     1428.099   -21662.939   -426.23109    170.86403    39.383181    39.267374    23.592919 
   30800    231.78677   -373.46446    216156.16    -20159.55    1468.1887   -21627.739   -962.67802    171.34366    39.386333     39.26698    23.582445 
   31000    231.97265   -336.84653    216156.16   -20160.348    1469.3661   -21629.715    -787.6487    173.46041    39.387508    39.268086    23.578563 
   31200    237.52204   -470.22194    216156.16   -20146.787    1504.5172   -21651.304    -1352.385    174.46643    39.384517    39.268527    23.588885 
   31400    233.44648   -448.72542    216156.16   -20170.638    1478.7017    -21649.34   -1220.5916    174.76782    39.385227    39.268083    23.590417 
   31600    231.37616   -335.76052    216156.16   -20177.679    1465.5878   -21643.267     -777.255    175.61561    39.384477    39.270562     23.58239 
   31800    233.62499   -429.57946    216156.16   -20118.608    1479.8324   -21598.441   -1146.9802    175.35102    39.384792    39.269553    23.565429 
   32000    235.66864   -284.73207    216156.16   -20204.518    1492.7774   -21697.295    -558.3621    177.58565    39.384926    39.267786    23.557873 
   32200    228.28012   -319.07314    216156.16   -20205.435    1445.9768   -21651.412   -692.17849     177.7041    39.384975    39.265841    23.562935 
   32400    229.89266   -373.52879    216156.16   -20232.386     1456.191   -21688.577   -938.03893    180.10165    39.383777    39.265105    23.570502 
   32600    240.61261   -348.36097    216156.16   -20175.368    1524.0935   -21699.462    -811.8205    180.31071    39.383292    39.264607    23.559108 
   32800    233.29402   -493.95524    216156.16   -20153.647     1477.736   -21631.383   -1454.8898    181.00831     39.38301    39.264517    23.552524 
   33000    241.84313   -342.92179    216156.16   -20140.562    1531.8879    -21672.45   -777.44935    182.38458    39.383334    39.265982    23.547251 
   33200    242.86647   -237.19855    216156.16   -20211.725      1538.37   -21750.095   -344.67153     182.0575     39.38041    39.267539    23.535723 
   33400    227.70735   -264.26981    216156.16   -20237.395    1442.3487   -21679.744   -463.33318    182.72267    39.378819    39.266372    23.536728 
   33600    228.77076   -297.20191    216156.16   -20241.367    1449.0846   -21690.451   -637.89473    183.61971    39.379147    39.265114    23.531729 
   33800    243.09392   -425.91188    216156.16   -20099.828    1539.8107   -21639.639   -1196.8905    185.04703    39.377524     39.26595    23.543059 
   34000    232.96357   -494.26839    216156.16    -20217.83    1475.6428   -21693.473   -1441.6732    186.18289    39.376665    39.263039    23.585951 
   34200    230.35733   -247.69283    216156.16   -20185.821    1459.1343   -21644.955   -373.74657    187.86651    39.375606    39.265482    23.601238 
   34400    233.29585   -372.25392    216156.16   -20259.043    1477.7475    -21736.79    -971.6858    189.47394     39.37873    39.265908    23.578941 
   34600    236.73422   -260.29376    216156.16   -20114.986    1499.5269   -21614.513   -414.44806    189.88024    39.376652    39.265061    23.572766 
   34800    232.46416    -403.6318    216156.16   -20211.197    1472.4794   -21683.677   -1063.7755    190.11015    39.375551    39.262501    23.579455 
   35000     230.3469   -293.42307    216156.16   -20228.776    1459.0682   -21687.844   -557.31897    193.21574    39.374576    39.260619    23.573716 
   35200    242.72771   -549.22368    216156.16   -20152.303    1537.4911   -21689.794   -1670.5615    192.66694    39.372667    39.261152    23.576713 
   35400     232.5459    -349.6183    216156.16   -20151.316    1472.9972   -21624.313   -846.24758    193.88715    39.371343    39.263387    23.568766 
   35600    233.44565   -508.22268    216156.16     -20153.2    1478.6964   -21631.896   -1473.8404    194.95014    39.371912    39.262664    23.562758 
   35800    243.54508   -411.69131    216156.16   -20101.465    1542.6685   -21644.133   -1082.6015    195.51595    39.370455    39.262185    23.549373 
   36000    228.20685   -431.55662    216156.16    -20231.62    1445.5127   -21677.132   -1191.3721    195.88053    39.371412    39.261798    23.546265 
   36200    230.88414   -388.81986    216156.16   -20249.557    1462.4712   -21712.028   -966.26237    196.38783    39.373153    39.263408    23.544607 
   36400    236.29474   -379.45213    216156.16   -20226.111    1496.7432   -21722.854   -948.37816    197.37739     39.37497    39.266684    23.566705 
   36600     235.5549   -515.67924    216156.16   -20209.382    1492.0569   -21701.438   -1527.3406    197.85909    39.375013    39.271019    23.573471 
   36800    225.31313   -536.09711    216156.16   -20246.728    1427.1832   -21673.911   -1651.5044    198.51545    39.372996    39.273085    23.568079 
   37000    227.63872   -410.71402    216156.16   -20265.902    1441.9141   -21707.817   -1086.8193    198.64197    39.374079    39.274888    23.575768 
   37200    230.03793   -274.49285    216156.16   -20263.345    1457.1112   -21720.456   -544.26407    199.35746    39.375285    39.275816    23.574098 
   37400    234.38131    -383.1472    216156.16    -20248.98    1484.6231   -21733.603   -972.25336    200.24313     39.37621    39.276489    23.564382 
   37600    233.41877    -353.5226    216156.16   -20294.331    1478.5262   -21772.857   -869.63835    201.23341    39.377421    39.278791    23.560959 
   37800    227.95656   -410.64742    216156.16   -20311.854    1443.9273   -21755.781   -1113.7669    203.20603    39.377854    39.277377    23.553992 
   38000    233.62541   -540.47447    216156.16   -20223.415     1479.835    -21703.25   -1672.2014    205.69858    39.380635    39.279827    23.569823 
   38200    239.86884    -246.4266    216156.16   -20175.971    1519.3823   -21695.353   -381.23932    205.71239    39.381412    39.279468    23.562695 
   38400    243.06603   -290.05874    216156.16    -20137.42     1539.634   -21677.054   -594.86406    206.48712    39.381187    39.279786    23.569395 
   38600    232.11367   -441.46229    216156.16   -20201.205    1470.2593   -21671.464   -1258.2141    205.69234       39.381    39.279488    23.571863 
   38800     230.9507   -418.05287    216156.16   -20190.393    1462.8929   -21653.286   -1148.7498    206.10297    39.379233    39.278558    23.578351 
   39000    236.12745    -357.8458    216156.16   -20126.745    1495.6835   -21622.428   -890.09437    206.15001    39.375323    39.279891     23.57758 
   39200    226.70125   -330.14232    216156.16   -20206.744    1435.9759    -21642.72   -728.39472    207.66168    39.374863    39.280914     23.59174 
   39400    240.93478   -272.01982    216156.16   -20212.283    1526.1342   -21738.417   -542.13585    208.44223    39.377196    39.282811    23.617397 
   39600     242.5114   -326.73918    216156.16   -20169.846    1536.1209   -21705.967   -720.84404     209.3679    39.376169    39.283478    23.615748 
   39800    231.33641   -394.96923    216156.16   -20200.938    1465.3361   -21666.274   -1051.9757    210.45378    39.377863    39.286133    23.613984 
   40000    232.82415   -483.36908    216156.16    -20166.21    1474.7597    -21640.97   -1368.2773    210.62118    39.377898    39.284747    23.619937 
   40200    237.82116   -400.80249    216156.16   -20175.985    1506.4119   -21682.397   -1075.4955    211.56026    39.375712    39.284442    23.613358 
   40400    226.25547    -453.2893    216156.16   -20207.662    1433.1522   -21640.814   -1309.2932     213.3382    39.375399    39.282446    23.590792 
   40600    230.19082   -535.44128    216156.16     -20097.4    1458.0796    -21555.48   -1627.8081    214.52503    39.375226    39.280323    23.584997 
   40800    232.59351    -414.6579    216156.16    -20155.81    1473.2988   -21629.109   -1102.8315    215.07265    39.375641    39.279719      23.5807 
   41000    231.25645   -390.61705    216156.16   -20150.396    1464.8296   -21615.226   -1014.8219    214.61137    39.376613    39.278203    23.573197 
   41200    239.21556   -283.36782    216156.16   -20085.495    1515.2443    -21600.74   -544.10853     214.1594    39.376156    39.278141    23.589189 
   41400     239.4747   -398.88717    216156.16    -20143.11    1516.8857   -21659.996   -1072.6146    214.72431    39.375974    39.277559    23.597485 
   41600    241.96845   -374.05091    216156.16   -20124.342    1532.6817   -21657.024   -910.56011    214.70287     39.37354    39.279427    23.582747 
   41800    233.58054   -487.79737    216156.16   -20114.325    1479.5508   -21593.875   -1428.4871    216.52909    39.375759     39.27953    23.573855 
   42000    231.29344   -472.60964    216156.16   -20147.309    1465.0638   -21612.373   -1402.7978     217.1709    39.378081    39.279503    23.575305 
   42200    228.95881   -273.18839    216156.16   -20183.458    1450.2758   -21633.734   -505.51547    218.68989    39.377534    39.277691    23.551852 
   42400    237.63141   -313.05303    216156.16    -20133.18    1505.2099    -21638.39    -707.8242    219.08484    39.379405    39.278329    23.563486 
   42600    231.60816    -408.2052    216156.16   -20188.107    1467.0574   -21655.165   -1087.3443    219.21342    39.379944    39.279311    23.580857 
   42800    242.14887   -460.15534    216156.16   -20137.729    1533.8245   -21671.553   -1309.6791     220.6653        39.38    39.277835    23.582793 
   43000    236.44105   -550.64926    216156.16   -20161.359      1497.67   -21659.029   -1699.8472    220.99641    39.382294    39.277352    23.578209 
   43200    230.11561   -381.67784    216156.16   -20184.802    1457.6032   -21642.405   -969.68621    222.01666    39.383912    39.278719    23.574527 
   43400    239.18246   -403.51793    216156.16   -20152.249    1515.0346   -21667.284   -1048.7895    221.66507    39.383966    39.278522    23.562508 
   43600    233.91729   -528.24598    216156.16   -20158.772    1481.6839   -21640.456   -1557.6474    223.32294    39.384086    39.279037    23.579705 
   43800    237.69455   -438.27986    216156.16   -20214.232    1505.6099   -21719.842   -1192.7634    224.31684    39.384402    39.281132    23.595387 
   44000    236.69912   -526.75361    216156.16   -20252.738    1499.3046   -21752.043   -1613.5582    226.75449    39.385119    39.279358    23.590408 
   44200    234.91467   -402.92996    216156.16   -20190.276    1488.0015   -21678.278   -1022.8488    227.08811    39.384042    39.277735    23.617306 
   44400    232.60175    -351.6572    216156.16   -20168.726     1473.351   -21642.077   -871.30761    228.37552    39.384658     39.27702    23.618626 
   44600    226.81237    -363.5182    216156.16    -20173.71    1436.6798    -21610.39   -897.84224    228.70725     39.38545    39.278668     23.63568 
   44800    230.16637     -400.246    216156.16   -20187.788    1457.9247   -21645.713   -1058.1821    230.62682    39.386332    39.278916    23.637778 
   45000    236.68198   -411.63696    216156.16   -20158.419     1499.196   -21657.615   -1141.5483    232.97835    39.388309    39.279872    23.620532 
   45200    238.86321   -329.89276    216156.16   -20127.332    1513.0125   -21640.345   -733.80133    232.77121    39.386367    39.281074    23.621305 
   45400    234.31002   -338.97362    216156.16   -20176.606    1484.1715   -21660.778   -780.67966    234.93246    39.386631    39.281221    23.611734 
   45600    238.33568   -472.98769    216156.16   -20076.601     1509.671   -21586.272   -1383.7952     238.0206    39.386588    39.281501    23.604713 
   45800    236.51448   -571.16997    216156.16   -20128.348    1498.1351   -21626.483    -1751.802    239.63593    39.384788     39.28146    23.614972 
   46000    244.17279   -428.03913    216156.16   -20093.154    1546.6445   -21639.799   -1167.0423    240.02123    39.382272    39.280961    23.635972 
   46200    243.52035   -453.91493    216156.16   -20132.106    1542.5118   -21674.618   -1274.8784    239.55374    39.382885    39.280855    23.642361 
   46400    233.46415   -386.25544    216156.16   -20244.714    1478.8136   -21723.528   -984.06573    239.93213    39.380236    39.282295    23.644396 
   46600    235.63855   -249.83909    216156.16   -20218.356    1492.5867   -21710.943    -410.2193    240.96105    39.380271    39.283698    23.636336 
   46800    237.33859   -340.97623    216156.16   -20195.527    1503.3552   -21698.883   -835.00748    242.08021    39.379274    39.284393    23.623257 
   47000    236.28919   -395.85463    216156.16   -20198.513    1496.7081   -21695.221   -1034.2423    242.74471    39.378467    39.285528    23.613859 
   47200     230.8358   -471.78529    216156.16   -20293.684    1462.1651   -21755.849   -1379.9493    243.30714    39.377911     39.28728    23.611167 
   47400    233.21759   -305.64399    216156.16   -20238.551    1477.2519   -21715.803   -624.62339    243.51002    39.380239    39.288752     23.61296 
   47600    237.26142   -399.60495    216156.16   -20261.518    1502.8664   -21764.384   -1031.9467    242.23713    39.381557    39.291025     23.62745 
   47800    234.43608    -461.9177    216156.16   -20243.719      1484.97   -21728.689   -1281.3159    244.15704    39.381848    39.292787    23.626672 
   48000    232.40179   -309.09078    216156.16   -20216.004    1472.0844   -21688.088   -636.35549    243.70821    39.380825    39.294769    23.619075 
   48200    234.54742   -233.76806    216156.16   -20225.985    1485.6753    -21711.66   -372.82684    244.05016    39.381135    39.298939    23.628895 
   48400    235.41569   -392.69902    216156.16   -20218.028    1491.1751   -21709.203   -977.86917    245.83246    39.379288    39.300296     23.61671 
   48600    227.91945   -367.45124    216156.16   -20274.447    1443.6922    -21718.14   -907.53011    246.62996    39.379096    39.301369     23.63035 
   48800    229.32652    -562.0428    216156.16   -20256.434    1452.6049   -21709.039   -1730.7107    248.89028    39.378588    39.296756    23.634812 
   49000    229.45477   -346.57964    216156.16   -20239.685    1453.4173   -21693.103   -787.85421     249.5033    39.378744    39.294302    23.632738 
   49200    234.77912   -366.63049    216156.16   -20189.473    1487.1429   -21676.616   -932.15601    250.05113    39.379509    39.294659    23.629235 
   49400    232.57631   -235.09613    216156.16   -20249.021    1473.1898   -21722.211   -325.64158     251.3907    39.381576    39.291836    23.642665 
   49600    232.65435   -261.92546    216156.16   -20207.718    1473.6841   -21681.402   -449.38634    253.33372    39.381525    39.291105    23.624881 
   49800    231.07939   -516.83508    216156.16   -20201.101     1463.708   -21664.809   -1516.0625    254.27533    39.382714    39.292522    23.614386 
   50000    237.23953   -425.82463    216156.16   -20212.723    1502.7277   -21715.451   -1160.3149    255.47343    39.380925    39.293479    23.623707 
   50200    235.17322   -464.37072    216156.16   -20134.631    1489.6392    -21624.27   -1255.3559    256.74001    39.381473    39.292282    23.612818 
   50400    234.36699   -352.53409    216156.16   -20180.277    1484.5324    -21664.81   -820.37618    257.23536    39.382313    39.293512    23.618379 
   50600    240.23106   -297.57849    216156.16   -20072.597    1521.6767   -21594.274   -551.97654    257.87862    39.384188     39.29092     23.60758 
   50800    228.92551   -298.91174    216156.16   -20264.027    1450.0648   -21714.092   -661.53645    259.02236    39.384051    39.292766    23.621439 
   51000     233.5804   -300.05373    216156.16   -20225.285      1479.55   -21704.835    -606.3262    259.19844    39.384497    39.291966    23.630483 
   51200    234.11272   -300.44314    216156.16   -20195.008    1482.9218    -21677.93   -583.10091    261.97892    39.385426    39.290048    23.638874 
   51400    234.35644   -470.29629    216156.16   -20200.813    1484.4656   -21685.279   -1309.1972    263.05229    39.387225    39.289217    23.643347 
   51600    230.45743   -567.95629    216156.16   -20208.664    1459.7684   -21668.432   -1732.9673    263.86298    39.384948    39.292631    23.640208 
   51800    238.36087   -450.97139    216156.16   -20132.001    1509.8305   -21641.832   -1246.4139    263.18614    39.381641     39.29345    23.642012 
   52000    228.19506   -343.16925    216156.16   -20232.813     1445.438   -21678.251   -774.23477    263.14109     39.38097    39.295396    23.645442 
   52200    231.22157   -502.97084    216156.16   -20266.224    1464.6086   -21730.833   -1475.2623    265.44307    39.376898    39.293101    23.647156 
   52400    222.52044   -455.21235    216156.16   -20338.945    1409.4937   -21748.439   -1278.7477    266.26137     39.37505    39.293658    23.635794 
   52600    238.76783   -462.24105    216156.16   -20236.532    1512.4083   -21748.941     -1301.96    267.77176    39.372865    39.292102    23.647917 
   52800    237.65916   -534.28569    216156.16   -20164.079    1505.3857   -21669.464    -1579.223    267.81682    39.373357    39.290302    23.638628 
   53000    236.70283   -333.70297    216156.16   -20148.242    1499.3281   -21647.571   -755.56914    268.63167    39.375297    39.288778    23.619114 
   53200    232.25101   -332.54381    216156.16    -20240.68    1471.1293   -21711.809   -707.53617    269.03678    39.376893    39.287787    23.606136 
   53400    232.96164   -491.28045    216156.16   -20234.496    1475.6306   -21710.126   -1459.1786    269.78931    39.375151    39.288336    23.608598 
   53600    232.37525   -559.72181    216156.16   -20320.376    1471.9163   -21792.292   -1667.4418    271.30926    39.378485    39.289451     23.60254 
   53800    232.58544   -349.07477    216156.16   -20236.138    1473.2477   -21709.386   -795.13346    271.70881    39.380512    39.290473    23.600088 
   54000    227.66339   -419.98984    216156.16   -20214.201    1442.0703   -21656.271   -1104.0243    272.14905     39.38322    39.289484    23.607765 
   54200    240.06455   -320.80372    216156.16   -20166.751     1520.622   -21687.373   -690.51889    272.13605    39.383841    39.288235    23.626538 
   54400    241.41348   -436.18227    216156.16   -20133.269    1529.1664   -21662.435   -1178.1903    272.93851    39.385681    39.285525    23.602691 
   54600    235.47272   -401.44083    216156.16   -20169.041    1491.5363   -21660.577   -1066.5575    274.55194    39.386605    39.282413    23.611624 
   54800    232.78735   -382.36838    216156.16   -20164.656    1474.5266   -21639.183   -926.62874    274.38573    39.384698    39.284441    23.607154 
   55000    236.96828   -604.10013    216156.16   -20130.864    1501.0096   -21631.874   -1898.6583    275.17161    39.382828    39.284158    23.599069 
   55200     227.1245   -223.75168    216156.16   -20301.032    1438.6569   -21739.689   -285.02265    275.98772    39.383134    39.285074    23.592128 
   55400    236.80119   -430.51496    216156.16    -20249.51    1499.9511   -21749.461    -1170.566    276.82156    39.382164     39.28512    23.601941 
   55600    232.15399    -259.7206    216156.16   -20202.054    1470.5148   -21672.568   -414.10321    276.80509    39.383237    39.285022    23.602774 
   55800    238.00059   -461.43671    216156.16   -20115.702    1507.5484    -21623.25   -1306.6667    280.00437    39.383749     39.28431    23.606596 
   56000    238.69592   -471.59138    216156.16   -20147.602    1511.9528   -21659.555   -1341.8143    281.23055    39.381911    39.284438    23.603103 
   56200    238.01273   -491.72404    216156.16   -20135.772    1507.6253   -21643.397   -1415.0136     283.3132    39.383991    39.285286    23.582169 
   56400    236.98887    -432.3057    216156.16   -20214.623    1501.1399   -21715.762   -1132.5011    283.54084    39.385736     39.28465    23.557361 
   56600    224.87041   -393.54438    216156.16   -20294.737    1424.3789   -21719.116   -1006.0628    283.86934    39.385004    39.282268    23.556107 
   56800    232.90457   -223.23811    216156.16   -20204.833    1475.2691   -21680.102   -276.42162    285.84284    39.386841    39.284749    23.530578 
   57000     228.0417   -275.13499    216156.16   -20265.292    1444.4666   -21709.758   -470.46369    286.45314    39.386329     39.28621    23.510803 
   57200    243.76983   -274.48639    216156.16   -20204.298     1544.092    -21748.39   -494.47796    288.66562    39.386673    39.287211    23.509773 
   57400     228.6022   -459.78713    216156.16   -20262.865     1448.017   -21710.882   -1316.5273    288.56061    39.387855    39.287713    23.524569 
   57600    234.77646   -473.62826    216156.16   -20307.266    1487.1261   -21794.392   -1373.6834    288.60035    39.386022     39.28635    23.520774 
   57800    236.46781   -382.34852    216156.16   -20247.381    1497.8394   -21745.221   -992.67224    289.62731    39.384266    39.285491    23.497004 
   58000    239.09203   -499.06181    216156.16    -20249.15    1514.4618   -21763.612   -1444.4585    290.21344    39.383492    39.284327    23.482513 
   58200    239.41583   -518.30901    216156.16    -20215.59    1516.5129   -21732.103   -1508.2569    289.46319    39.385877    39.282914     23.49755 
   58400     238.0777   -292.45852    216156.16   -20226.162    1508.0368   -21734.199   -564.46231    288.18086    39.382148    39.282252    23.518177 
   58600    238.94738   -260.42005    216156.16   -20272.144    1513.5456    -21785.69   -437.72821    288.16563    39.379782    39.282892    23.527936 
   58800    239.36436   -504.18356    216156.16   -20251.537    1516.1869   -21767.724   -1484.3478    290.85186    39.377551    39.283973    23.531911 
   59000    237.34233   -451.02211    216156.16   -20185.942    1503.3789   -21689.321    -1261.957    291.76061    39.377102    39.283054    23.526222 
   59200    233.98195   -521.80522    216156.16   -20221.461    1482.0935   -21703.554   -1552.0099    291.19059    39.377968    39.281375    23.535661 
   59400    232.62071   -495.36901    216156.16   -20219.058     1473.471   -21692.529   -1463.9616    291.56925    39.377886    39.281539    23.551095 
   59600    228.38329   -598.15366    216156.16   -20260.381    1446.6303   -21707.011   -1896.4351    292.27737    39.378377    39.282306    23.549426 
   59800     233.2616   -278.42363    216156.16   -20211.201    1477.5306   -21688.731   -507.84277    292.32921    39.379495    39.283382    23.553193 
   60000    237.52781   -418.51504    216156.16   -20203.106    1504.5537   -21707.659   -1115.4304    294.02804    39.379625    39.284204    23.547847 
   60200    228.69545   -437.63872    216156.16   -20253.021    1448.6076   -21701.628   -1211.4909    296.10155    39.379029    39.286209    23.542161 
   60400    238.83207    -376.8196    216156.16   -20208.272    1512.8152   -21721.087   -898.32975     296.2226     39.37682    39.284414    23.552204 
   60600    238.82107   -413.79884    216156.16   -20168.337    1512.7455   -21681.083   -1114.3629    296.71127    39.374872    39.284206    23.548125 
   60800    235.69312   -325.33472    216156.16   -20117.534    1492.9324   -21610.467   -677.03399    297.59658    39.372794    39.284879    23.567121 
   61000    235.37649   -323.21064    216156.16   -20207.458    1490.9268   -21698.385   -681.85098     297.2636    39.372876    39.288416    23.553137 
   61200    240.08898   -291.92954    216156.16   -20139.621    1520.7767   -21660.398   -567.92832     297.5619    39.372905    39.289054    23.546345 
   61400    237.39916   -393.57383    216156.16    -20158.14    1503.7388   -21661.879   -999.55547    296.87601    39.370696    39.286897    23.570707 
   61600    234.90355    -372.2115    216156.16   -20181.216    1487.9311   -21669.147   -967.00514    297.61744    39.373119    39.286526    23.573612 
   61800    227.24339   -399.71742    216156.16   -20231.256    1439.4099   -21670.666   -1048.0154      298.413     39.37349    39.287467    23.556484 
   62000    234.43032   -494.93427    216156.16   -20172.794    1484.9336   -21657.727   -1453.4418     299.9696    39.372327    39.288484    23.567183 
   62200    243.34284   -414.66172    216156.16   -20176.049    1541.3874   -21717.436   -1141.5056    300.70943    39.373236    39.287273    23.554484 
   62400     235.5458   -543.32175    216156.16    -20156.08    1491.9992   -21648.079   -1623.6855    302.61493    39.372403    39.287112    23.570034 
   62600    228.72476   -151.74043    216156.16   -20217.365    1448.7932   -21666.159    36.859057    301.65043    39.370776    39.287701      23.5599 
   62800    233.03953   -277.10625    216156.16   -20304.149     1476.124   -21780.273    -537.3593    300.81483    39.368978    39.286088    23.535897 
   63000    236.62333   -462.56073    216156.16   -20178.451    1498.8246   -21677.275   -1285.4762    301.82033    39.368166    39.283074    23.537001 
   63200    239.94092   -376.06335    216156.16   -20186.091    1519.8389    -21705.93   -972.89298     302.2316    39.369226    39.282593    23.542531 
   63400    226.05742   -404.12264    216156.16   -20242.578    1431.8977   -21674.475   -1039.0196    302.99848    39.370457    39.285296    23.504722 
   63600    233.58243   -266.06334    216156.16    -20265.48    1479.5628   -21745.043   -438.61778    303.38012    39.371064    39.288208    23.494939 
   63800    227.94541   -352.06565    216156.16   -20265.501    1443.8567   -21709.358     -776.629    306.85046    39.367478    39.290301    23.508581 
   64000    240.75968   -414.68171    216156.16   -20155.858    1525.0251   -21680.883    -1090.976    307.18483     39.36735    39.290241    23.522305 
   64200    238.96285   -384.18679    216156.16   -20211.843    1513.6436   -21725.486   -961.15398    307.09845    39.367499    39.290514    23.517056 
   64400    231.10512   -349.28148    216156.16   -20240.578     1463.871   -21704.449   -810.32418    307.71559     39.36989    39.290627    23.519057 
   64600    231.50026   -673.63642    216156.16   -20292.928    1466.3739   -21759.302    -2188.344     308.8613    39.369835    39.292177    23.505564 
   64800    242.44838   -458.47363    216156.16   -20247.107    1535.7217   -21782.828   -1248.6147    310.10142    39.370697    39.293509    23.469007 
   65000     234.7889   -433.03606    216156.16    -20174.52    1487.2049   -21661.725   -1180.8709    310.42142    39.369899    39.297025     23.47481 
   65200    233.63484   -499.66582    216156.16   -20237.304    1479.8948   -21717.199   -1496.5871    312.17165    39.369711    39.298496    23.458692 
   65400     238.0319   -385.15287    216156.16   -20239.281    1507.7467   -21747.028   -950.92122    311.96428    39.366934     39.29714    23.441855 
   65600    235.64063     -299.755    216156.16   -20166.155    1492.5999   -21658.755   -608.88468    313.53831    39.366763    39.297775     23.45065 
   65800    232.31297   -512.45025    216156.16   -20187.395    1471.5218   -21658.917   -1540.1168    315.36897    39.368515    39.298676    23.441203 
   66000    231.57532   -441.55638    216156.16   -20156.448    1466.8493   -21623.297   -1192.9805    316.47008    39.371238    39.299065    23.448939 
   66200    230.97169   -273.61528    216156.16   -20208.015    1463.0258   -21671.041   -509.86512    316.47708    39.370451    39.300119    23.448436 
   66400    230.84184   -258.04379    216156.16   -20148.354    1462.2033   -21610.557   -448.68308    316.03084    39.369175    39.299358    23.439191 
   66600    228.91139   -275.41375    216156.16   -20166.753    1449.9754   -21616.729    -516.1516    318.40719    39.370676    39.298992    23.435789 
   66800    232.11207   -494.88104    216156.16   -20153.494    1470.2492   -21623.743   -1489.9674    319.35273    39.374088    39.300325    23.437766 
   67000    228.70947   -309.75741    216156.16   -20218.585    1448.6964   -21667.281   -679.01142    320.30212    39.376014    39.301344    23.435753 
   67200    232.46558     -448.697    216156.16   -20186.505    1472.4885   -21658.994   -1331.4627     322.8687    39.377932     39.30156    23.445129 
   67400    237.96654   -354.53704    216156.16   -20166.937    1507.3327    -21674.27   -917.55279    321.74857    39.378278    39.302803    23.444796 
   67600    244.20847   -342.39018    216156.16   -20103.698    1546.8705   -21650.568   -828.17617    320.11409    39.379367    39.303895     23.44775 
   67800    229.25684    -392.0639    216156.16   -20142.034    1452.1636   -21594.197    -1051.995    321.70482    39.380116     39.30437    23.464252 
   68000    238.81308   -450.65745    216156.16   -20197.503    1512.6949   -21710.198   -1278.8942    322.79074    39.378292    39.303891    23.484552 
   68200    229.12789   -353.24746    216156.16   -20209.544    1451.3468   -21660.891   -847.13017    324.98017    39.379317    39.301778    23.501544 
   68400    238.94382   -298.84628    216156.16   -20185.483     1513.523   -21699.006   -620.63115    324.55066    39.380577    39.302138    23.516752 
   68600    235.84544   -430.76604    216156.16   -20188.607    1493.8972   -21682.504   -1188.3578    326.72875    39.381152    39.300894    23.524004 
   68800    235.18768   -389.60394    216156.16   -20135.836    1489.7308   -21625.566   -976.92332    329.84107    39.382181    39.301382     23.52495 
   69000    235.40647   -441.21584    216156.16   -20142.708    1491.1167   -21633.825   -1229.9897    329.21331    39.382363    39.300066    23.512192 
   69200     229.9093   -432.42457    216156.16   -20220.701    1456.2964   -21676.997   -1204.0122    328.99917    39.381787    39.301909    23.514465 
   69400    229.72598    -385.2444    216156.16   -20262.567    1455.1352   -21717.703    -1002.525    330.74645    39.382522     39.30216    23.509667 
   69600    242.43922   -305.76388    216156.16   -20068.667    1535.6637   -21604.331   -702.30382    331.60263    39.383714    39.303724    23.496811 
   69800    234.55492   -350.86726    216156.16   -20197.196    1485.7228   -21682.919   -836.00918    333.68782    39.386177    39.302792    23.484617 
   70000    242.43669   -380.03976    216156.16   -20199.968    1535.6476   -21735.616   -922.32355    332.01581    39.386339    39.301217    23.482889 
   70200    230.03617   -362.96665    216156.16   -20179.401       1457.1   -21636.501   -928.75833    333.03543    39.386246    39.300761    23.505985 
   70400    234.28906   -329.64137    216156.16   -20112.153    1484.0388   -21596.192   -734.68168    335.56225     39.38557     39.30099    23.503159 
   70600     230.7633   -333.72433    216156.16   -20166.723    1461.7059   -21628.429   -753.02053    336.66682    39.385535    39.301086    23.522432 
   70800    233.44262   -501.31486    216156.16   -20192.164    1478.6772   -21670.841     -1499.54    337.09896    39.387408    39.300862    23.522044 
   71000     229.1713   -333.05429    216156.16   -20200.223    1451.6217   -21651.845   -732.69148    336.15332    39.386833    39.302616    23.537592 
   71200    232.67938    -358.1833    216156.16   -20187.157    1473.8427       -21661   -886.97276    336.05658    39.387238    39.304937    23.546212 
   71400    229.22108   -441.71936    216156.16   -20194.529     1451.937   -21646.466   -1235.1259    337.05803    39.387878    39.306631    23.542669 
   71600    231.67689   -248.86146    216156.16   -20118.619    1467.4927   -21586.112    -391.8917     338.4955    39.389513    39.307398    23.551388 
   71800    226.17797   -451.14276    216156.16   -20224.988    1432.6613   -21657.649    -1264.967    338.21261    39.392418    39.309378    23.569992 
   72000    234.46719   -395.18305    216156.16   -20200.815    1485.1671   -21685.982   -1072.6861    339.30921    39.393068    39.312144    23.579933 
   72200    249.21805   -395.15814    216156.16   -20072.985    1578.6023   -21651.587   -1018.8338      340.018    39.394795    39.310923    23.591406 
   72400     234.7419   -375.43144    216156.16   -20165.868    1486.9071   -21652.775    -993.8383    341.87697    39.394191    39.312284    23.582655 
   72600    239.80317   -389.06332    216156.16    -20144.78    1518.9664   -21663.746   -1006.1996    343.93726    39.393782    39.312303    23.570266 
   72800    230.00215   -318.44054    216156.16     -20199.8    1456.8845   -21656.684   -709.33514    344.14017     39.39547     39.31212    23.545368 
   73000    228.39427   -333.52383    216156.16   -20240.899    1446.6999   -21687.599   -775.43311    346.30947    39.395974     39.31074    23.541572 
   73200    236.83079    -250.3503    216156.16   -20164.502    1500.1386   -21664.641   -417.49004    345.11309    39.397693    39.310957    23.530666 
   73400    235.80899   -437.19392    216156.16   -20159.695    1493.6664   -21653.361   -1241.2771    346.72816     39.39855    39.311554    23.504479 
   73600    232.23166   -432.88023    216156.16    -20151.24    1471.0068   -21622.246   -1181.3359    347.02401    39.398779    39.314397    23.494623 
   73800    231.51227   -393.99855    216156.16   -20258.876      1466.45   -21725.326   -1066.7985    348.43812    39.399025    39.314826    23.477319 
   74000    227.53769   -391.15465    216156.16   -20241.623    1441.2741   -21682.897   -1034.1354    350.32761    39.400427    39.312369    23.490186 
   74200    233.61767   -464.06249    216156.16   -20107.681    1479.7861   -21587.467   -1322.4826    351.86263    39.400125    39.311323    23.496077 
   74400    239.45253   -422.87451    216156.16   -20119.136    1516.7453   -21635.881   -1141.2353     351.8638    39.399817    39.309401    23.478971 
   74600    233.07463   -369.55109    216156.16   -20209.892    1476.3463   -21686.238   -921.82923    352.89211     39.40047    39.309334    23.463135 
   74800    234.91216   -177.16334    216156.16   -20219.711    1487.9856   -21707.697    -60.64082    352.98505    39.400849    39.307742    23.477503 
   75000    232.08411   -394.89007    216156.16   -20230.504    1470.0721   -21700.576    -1038.213    353.50064     39.40153    39.308411     23.49515 
   75200    234.93502    -424.3645    216156.16   -20164.159    1488.1304   -21652.289   -1140.7837     355.7043    39.402752    39.307284    23.472982 
   75400    235.94942   -311.54335    216156.16   -20244.892    1494.5558   -21739.448   -723.03389    355.76375    39.406239    39.305296    23.470351 
   75600    234.30977   -504.11679    216156.16   -20198.662      1484.17   -21682.832    -1436.556    357.99925    39.407231    39.306243    23.465557 
   75800    237.62778    -235.7521    216156.16   -20143.818    1505.1869   -21649.005   -355.71889    358.07206    39.409432    39.307984    23.474237 
   76000    235.84259   -401.29429    216156.16   -20111.309    1493.8792   -21605.188   -1077.2461    357.34369    39.408733    39.309986    23.475645 
   76200    228.84291   -423.44983    216156.16   -20221.509    1449.5416    -21671.05   -1161.9223    357.44168     39.40883    39.311683    23.487156 
   76400    229.60599   -191.76987    216156.16   -20197.639    1454.3752   -21652.014    -198.1831    358.48122    39.409167    39.310416    23.484287 
   76600    234.28651   -479.13552    216156.16   -20187.714    1484.0226   -21671.736   -1373.6203    358.42454    39.407311    39.310558    23.487075 
   76800    232.07353    -429.3562    216156.16   -20186.841    1470.0051   -21656.846   -1191.4718    357.69925    39.406193      39.3113    23.474409 
   77000    239.44875    -293.5962    216156.16    -20188.51    1516.7214   -21705.231   -585.62996    358.30149    39.407571    39.308229    23.486275 
   77200    233.04811   -428.49102    216156.16   -20147.193    1476.1783   -21623.371    -1189.918    359.45347    39.407005    39.306646    23.477005 
   77400    239.46138   -302.48151    216156.16   -20170.307    1516.8014   -21687.108   -653.13433    360.24603    39.402397     39.30694    23.479308 
   77600    236.13648   -341.16504    216156.16   -20225.533    1495.7407   -21721.273   -757.44521    360.75729     39.40051     39.30427    23.489523 
   77800    236.52047   -186.39961    216156.16   -20207.318     1498.173   -21705.491   -88.133876    361.15047    39.401009    39.305876    23.499891 
   78000    232.06771   -289.72126    216156.16   -20246.249    1469.9683   -21716.218   -538.82367    363.23611    39.400328      39.3046    23.500238 
   78200    243.01519   -427.51852    216156.16   -20177.571     1539.312   -21716.883   -1135.8172    364.21093     39.39831    39.304369    23.496245 
   78400    235.42518   -376.71175    216156.16   -20186.075    1491.2352    -21677.31    -981.5101    366.64805     39.39685    39.301789     23.47898 
   78600    238.85077   -401.59821    216156.16   -20197.678    1512.9336   -21710.612   -1008.4644    366.81804    39.395572    39.301014    23.473586 
   78800    229.19485   -325.63804    216156.16    -20200.16    1451.7709   -21651.931   -670.66282    368.95242    39.395422    39.301547    23.490239 
   79000    234.98389   -377.78332    216156.16   -20163.975      1488.44   -21652.415   -963.55558    367.85224    39.393256    39.301385    23.473976 
   79200    233.74426   -210.99306    216156.16   -20162.571    1480.5879   -21643.159   -277.28591     366.5035    39.395455    39.302086    23.468936 
   79400    238.48034   -169.97771    216156.16   -20132.703    1510.5873    -21643.29   -24.025757    368.46837    39.396266    39.302012    23.470112 
   79600    228.68289   -419.22568    216156.16   -20252.372     1448.528     -21700.9   -1117.0511    369.15757    39.396563    39.301109    23.499406 
   79800     232.0667   -309.73358    216156.16   -20206.065    1469.9618   -21676.027   -686.31339     369.4971    39.395551    39.301737    23.503088 
   80000    234.66787   -387.45366    216156.16   -20212.922    1486.4382    -21699.36   -985.15122     369.6361     39.39708    39.303192    23.519611 
   80200    229.62591   -344.75527    216156.16   -20212.095    1454.5013   -21666.596   -803.75659    370.53389    39.395366    39.300559    23.543268 
   80400     229.7206   -230.38428    216156.16   -20174.107    1455.1012   -21629.208   -323.29337    372.59665    39.395226    39.300707    23.555066 
   80600    232.54722   -295.19095    216156.16   -20170.226    1473.0056   -21643.231   -612.15282     372.2567    39.394128    39.302487    23.550003 
   80800    238.81612   -556.13124    216156.16   -20194.751    1512.7142   -21707.465   -1726.0576    373.34077    39.391612    39.305822    23.554776 
   81000    235.94107   -402.24526    216156.16   -20183.353     1494.503   -21677.856   -1057.1085    374.69339    39.390074    39.308355    23.539304 
   81200    235.73903   -397.65703    216156.16    -20157.42    1493.2232   -21650.643   -1037.2739    377.52558    39.389262    39.309429    23.544301 
   81400    235.02289   -423.65653    216156.16   -20137.474     1488.687   -21626.161    -1162.523    377.32101    39.386751    39.309728    23.586192 
   81600    229.58127   -280.75612    216156.16   -20206.108    1454.2186   -21660.327   -563.42674    378.10889    39.384471    39.311948    23.607666 
   81800    225.16416   -455.19385    216156.16   -20208.754    1426.2396   -21634.994   -1280.9726    378.22389     39.38571     39.31452    23.581531 
   82000    231.60721   -391.26489    216156.16   -20155.952    1467.0513   -21623.003   -1003.3059    377.39466    39.385262    39.312055    23.577566 
   82200    239.20603   -346.13707    216156.16   -20089.056     1515.184    -21604.24   -852.49328    378.43771    39.385387    39.311817    23.589643 
   82400     225.9687    -385.6736    216156.16   -20130.646    1431.3357   -21561.982   -992.89012    379.14527    39.386004    39.312692    23.605292 
   82600     236.9398   -472.00778    216156.16   -20044.616    1500.8292   -21545.445   -1330.0851    381.29992    39.386876    39.313678    23.595831 
   82800    239.68274   -299.45596    216156.16   -20127.326    1518.2035    -21645.53   -646.12401    382.65745    39.388984    39.312809    23.606219 
   83000    226.66235   -588.53689    216156.16   -20054.821    1435.7295   -21490.551   -1864.9781    383.41989    39.390677    39.314707    23.595288 
   83200    235.06537   -476.01047    216156.16   -20097.069    1488.9561   -21586.025     -1383.97    382.58197    39.390881     39.31533    23.602353 
   83400    231.92535   -447.20401    216156.16   -20136.875    1469.0665   -21605.942   -1233.4568    383.59746    39.390672    39.317669    23.590131 
   83600    237.91439   -396.61411    216156.16   -20198.034    1507.0024   -21705.036   -1049.1863    380.96675    39.391792    39.317161    23.608917 
   83800    235.59486   -210.77747    216156.16   -20164.555      1492.31   -21656.865   -267.72908    381.86351    39.394035    39.321076    23.635416 
   84000    240.38244   -334.27166    216156.16   -20157.331    1522.6356   -21679.967   -779.62024    382.19393    39.394639    39.322345    23.624149 
   84200    236.02523   -531.76654    216156.16   -20148.606     1495.036   -21643.642   -1578.8736    382.88969    39.394788    39.320846    23.615137 
   84400    231.48549   -338.40064    216156.16    -20173.62    1466.2803     -21639.9    -783.9795    384.16365    39.394959    39.319637    23.646388 
   84600    239.50211   -299.43878    216156.16   -20090.665    1517.0594   -21607.725   -655.14339    382.38279    39.394623     39.32054    23.667118 
   84800    237.55467   -387.30226    216156.16   -20160.313    1504.7239   -21665.037   -968.51968    384.32504    39.392331    39.319135    23.682861 
   85000    233.31813   -393.60061    216156.16   -20158.818    1477.8887   -21636.707   -1010.9523    385.72696    39.394496     39.31751    23.695224 
   85200    232.99916   -374.11697    216156.16   -20164.814    1475.8683   -21640.682   -936.90297    386.85558    39.395162    39.315873    23.679032 
   85400    228.75986   -417.86981    216156.16   -20201.135    1449.0156   -21650.151   -1153.8294    388.85673    39.395309    39.314323    23.682984 
   85600    233.61697   -458.88007    216156.16   -20167.607    1479.7816   -21647.389   -1295.9681    388.82477     39.39476    39.313156    23.693715 
   85800    239.18945   -507.55433    216156.16   -20103.649    1515.0789   -21618.728   -1524.9022    390.81921    39.392453    39.315216    23.689759 
   86000    236.34268   -221.29475    216156.16   -20145.384    1497.0468    -21642.43   -288.15092    390.12514    39.393151    39.316196    23.678549 
   86200    234.91244   -287.69715    216156.16   -20124.179    1487.9874   -21612.166    -536.7838    393.35569    39.392153     39.31944    23.699058 
   86400    231.69486   -445.27349    216156.16   -20182.456    1467.6065   -21650.063   -1234.8599    393.11952    39.390781    39.320342    23.700115 
   86600    236.50497   -355.04118    216156.16   -20119.637    1498.0748   -21617.712   -855.43628    393.78826    39.389497    39.321061     23.71944 
   86800    228.82833   -438.11985    216156.16   -20204.931    1449.4493    -21654.38    -1209.474    394.84468    39.388069    39.320032    23.719553 
   87000    233.85114   -357.98797    216156.16   -20162.384    1481.2649   -21643.649   -870.88819    395.77314    39.388693    39.319338    23.711071 
   87200      239.431   -424.12817    216156.16   -20113.241    1516.6089    -21629.85   -1176.6901    397.45929    39.389949      39.3181    23.719401 
   87400    231.46144   -442.68574    216156.16   -20205.911     1466.128   -21672.039   -1283.6213    399.59754    39.390314    39.315933    23.725594 
   87600    237.85526   -464.74218    216156.16   -20111.046    1506.6279   -21617.674   -1351.2184    400.57854    39.390759    39.314732    23.742193 
   87800    231.30383   -309.61522    216156.16   -20144.996    1465.1297   -21610.126    -740.4735    402.63031    39.391126    39.313098    23.733194 
   88000    237.48832    -391.1145    216156.16   -20100.385    1504.3036   -21604.689   -1040.3133    402.70805    39.390965    39.314067     23.70253 
   88200    229.62735   -149.36745    216156.16   -20138.402    1454.5105   -21592.912    11.414795     402.8477    39.392727    39.314689    23.715191 
   88400    233.16626   -594.24794    216156.16   -20104.866    1476.9267   -21581.793   -1923.0908     403.5381     39.39533    39.312938    23.713302 
   88600    235.43153   -461.55414    216156.16    -20171.07    1491.2754   -21662.346   -1307.6046    403.62123    39.393989    39.312249    23.694683 
   88800    233.27076   -495.02957    216156.16    -20187.71    1477.5886   -21665.299   -1415.4667    405.69133    39.394276    39.312478    23.697475 
   89000    238.92394   -358.63263    216156.16   -20198.029    1513.3971   -21711.426   -888.00167    405.92851    39.393775    39.311783    23.675531 
   89200    239.08292   -214.28214    216156.16   -20178.371    1514.4042   -21692.775   -257.11004    407.28742    39.394323    39.311584    23.686351 
   89400    237.47205   -405.53681    216156.16   -20125.842    1504.2005   -21630.042   -1058.4968    408.21921    39.395508    39.313864    23.677602 
   89600    230.23827   -396.54867    216156.16   -20270.399    1458.3802   -21728.779   -1051.2535    407.32877    39.396314    39.313942    23.697308 
   89800    235.76805   -281.40349    216156.16   -20164.277     1493.407   -21657.684   -516.94202    408.17963    39.395438     39.31368    23.718846 
   90000    232.56623   -337.61346    216156.16    -20182.87     1473.126   -21655.996   -787.68933    410.32797    39.396853      39.3133    23.699413 
   90200    230.69054   -313.67837    216156.16   -20200.037    1461.2449   -21661.281   -654.32774    408.60375    39.396747    39.316169    23.692202 
   90400    235.29766   -248.69561    216156.16   -20167.101    1490.4275   -21657.528   -410.07222    409.07828    39.397324    39.315131    23.691374 
   90600    235.19281   -377.26613    216156.16   -20192.165    1489.7633   -21681.928   -931.33706    410.82974    39.397978    39.314484    23.672979 
   90800    232.10481   -250.70864    216156.16    -20179.42    1470.2032   -21649.624    -395.8842     411.8914    39.399339    39.314405    23.671629 
   91000    236.65316    -271.0542    216156.16   -20220.614    1499.0135   -21719.627   -474.20868    411.61067    39.399672    39.314954    23.671353 
   91200    224.78318   -379.57883    216156.16   -20273.276    1423.8264   -21697.102   -924.81043    409.72101    39.400949    39.314571    23.680602 
   91400    235.14738   -367.74923    216156.16   -20187.247    1489.4756   -21676.723   -910.86184    409.40947    39.401052    39.313998    23.704567 
   91600    236.97217   -484.68573    216156.16   -20125.954    1501.0342   -21626.988   -1402.3567    410.80527    39.397848    39.314906    23.723882 
   91800     237.9058   -289.19526    216156.16    -20118.19     1506.948   -21625.138   -597.34253    408.66654    39.397918    39.314786    23.719822 
   92000    240.03671   -354.67973    216156.16    -20138.35    1520.4456   -21658.796   -909.07312    409.48892    39.398996    39.314898    23.731241 
   92200      232.685   -472.34802    216156.16   -20156.092    1473.8783   -21629.971   -1358.2977     409.7842    39.399066    39.312586    23.728514 
   92400     237.1907   -396.47227    216156.16   -20131.021    1502.4184    -21633.44   -1081.7433    409.50187    39.397026    39.316109    23.731095 
   92600    236.36473   -264.20345    216156.16   -20084.331    1497.1865   -21581.518   -520.54745    409.94363    39.401728    39.315114    23.703445 
   92800    231.52726   -349.92276    216156.16   -20151.246    1466.5449   -21617.791    -821.9877     411.3276    39.400098    39.315753    23.711157 
   93000    232.05788    -320.9788    216156.16   -20166.063     1469.906   -21635.969   -721.51581    412.89884    39.397613    39.316405     23.72626 
   93200    235.93051    -332.7336    216156.16   -20170.797    1494.4361   -21665.233   -753.98498    414.13813    39.399209    39.318417    23.744807 
   93400    226.12589    -324.8793    216156.16   -20230.698    1432.3314    -21663.03   -749.82882     413.2266    39.399416    39.317134    23.745316 
   93600    237.07122    -282.2665    216156.16   -20177.058    1501.6616   -21678.719    -537.1081    415.84116    39.401449    39.319184    23.741347 
   93800    231.45736   -301.05613    216156.16   -20212.003    1466.1022   -21678.105   -641.78814    417.72853    39.404971     39.31973    23.739693 
   94000     230.6201   -346.94431    216156.16   -20205.079    1460.7987   -21665.878   -800.75552    417.59986    39.403786    39.322753    23.714013 
   94200    236.68506   -381.50787    216156.16   -20112.728    1499.2156   -21611.944    -936.3702    418.68277    39.402963    39.323101    23.720202 
   94400    227.71989    -457.5767    216156.16   -20167.839    1442.4282   -21610.267    -1300.798    418.68914    39.403208    39.324469    23.714875 
   94600    236.47796   -380.24028    216156.16   -20176.191    1497.9038   -21674.095   -1016.3097    419.00246    39.402891    39.324471    23.694084 
   94800    239.54769   -428.71843    216156.16   -20176.088    1517.3481   -21693.436    -1178.697    419.62012    39.401878    39.323421    23.699114 
   95000    232.45277   -384.27007    216156.16   -20243.661    1472.4073   -21716.068   -1044.3728    419.95244    39.403482    39.323059    23.717178 
   95200    235.57829   -414.22021    216156.16    -20192.84    1492.2051   -21685.045   -1121.6604    420.75686    39.403605    39.319924    23.720627 
   95400    236.69607   -548.32837    216156.16   -20148.606    1499.2853   -21647.891   -1685.1769    421.67343    39.403756    39.318533    23.719338 
   95600    238.29079   -573.44252    216156.16   -20150.478    1509.3866   -21659.864   -1761.8462    424.15498    39.404355    39.318897    23.716013 
   95800    237.96344   -404.18722    216156.16   -20144.181    1507.3131   -21651.494   -1071.9291    425.22018    39.402021    39.318971    23.717117 
   96000    245.51491   -295.61882    216156.16   -20131.258    1555.1458   -21686.404   -592.76261    424.14212     39.40083    39.322302    23.714517 
   96200    237.49413   -349.56292    216156.16   -20086.332    1504.3404   -21590.673   -812.10946    426.83358    39.402135    39.321178    23.726189 
   96400    230.39773   -389.61845    216156.16    -20186.87    1459.3902   -21646.261   -974.32448    428.33871     39.40362    39.321495    23.711807 
   96600    231.24823   -393.24269    216156.16   -20211.512    1464.7775   -21676.289   -993.24882    429.90199    39.401074    39.320935    23.704076 
   96800    236.77786   -293.63807    216156.16   -20136.443    1499.8034   -21636.246   -600.14679    428.64561    39.401187    39.320601    23.704677 
   97000    231.18219   -331.57067    216156.16   -20185.938    1464.3592   -21650.297   -762.13311    430.37963    39.399224    39.322006    23.688589 
   97200    230.97277   -309.00975    216156.16   -20189.916    1463.0326   -21652.949    -647.2625    430.69502    39.399367    39.323067    23.705029 
   97400    238.46349   -354.97333    216156.16   -20177.628    1510.4805   -21688.109   -827.00235     431.3138      39.3991    39.322058    23.706436 
   97600    235.36272    -321.1728    216156.16    -20103.72    1490.8396   -21594.559   -710.92898    432.55881    39.398762    39.322157    23.685391 
   97800    235.04876   -383.43669    216156.16   -20134.735    1488.8509   -21623.586   -948.84367    433.69118    39.398312    39.321502    23.663292 
   98000    234.40814   -269.65999    216156.16   -20193.009     1484.793   -21677.802   -456.22414    433.83006    39.398952    39.320868    23.658361 
   98200    235.68512   -332.64508    216156.16   -20185.494    1492.8817   -21678.376   -780.64133    434.02391    39.401445    39.320849    23.652232 
   98400    236.76485   -355.99839    216156.16   -20160.051     1499.721   -21659.772   -822.53124    436.38624    39.402705    39.318412    23.635536 
   98600    232.77243   -384.99991    216156.16   -20158.966    1474.4321   -21633.398   -943.05117    437.13002    39.402117    39.316434    23.639559 
   98800    236.73818    -462.4523    216156.16   -20133.951     1499.552   -21633.503   -1290.5348    438.24643    39.402469    39.315629    23.630981 
   99000    233.20862   -444.43193    216156.16   -20159.473     1477.195   -21636.668   -1210.6893     438.9106    39.402369    39.315075    23.621376 
   99200    236.49137   -494.43839    216156.16   -20130.785    1497.9887   -21628.774   -1413.2757    439.11304    39.402642    39.315336    23.622278 
   99400    234.22993    -193.3817    216156.16   -20137.494    1483.6642   -21621.159   -168.96811    439.29215    39.402948    39.314792    23.623636 
   99600    233.70292   -430.22664    216156.16   -20122.922     1480.326   -21603.248   -1173.0516    440.69915    39.402571    39.312323    23.637332 
   99800    240.25597   -331.26183    216156.16   -20146.633    1521.8345   -21668.467   -763.09728    439.09701    39.400478    39.309823    23.650604 
  100000    235.75253   -427.55669    216156.16    -20140.01    1493.3087   -21633.319   -1197.6721     439.8579    39.398209    39.309239    23.642804 
  100200    228.34609   -258.28325    216156.16   -20234.059    1446.3947   -21680.454   -473.10855    441.78628    39.398021    39.306854     23.62391 
  100400    237.21417   -414.91897    216156.16   -20160.215    1502.5671   -21662.782   -1119.1572    442.33139    39.398728    39.306049    23.619384 
  100600    238.68085   -237.65467    216156.16   -20181.305    1511.8573   -21693.162   -353.28046    442.26199    39.401441    39.304835    23.640146 
  100800    230.68397   -331.01833    216156.16   -20240.955    1461.2034   -21702.158   -763.36247    442.57507     39.40171    39.304747    23.644816 
[...]
 3975800    229.24749   -151.32146    216156.16   -22085.581    1452.1043   -23537.685    48.994737    3894.3847    39.529767     40.41708    23.576928 
 3976000    222.98727   -85.782353    216156.16   -22126.537    1412.4507   -23538.988     311.5098    3892.8638    39.530699    40.417526    23.585107 
 3976200     216.1657   -94.108191    216156.16   -22132.991    1369.2414   -23502.233    267.07449    3894.1308    39.531684    40.417707    23.585647 
 3976400    220.03116   -253.03201    216156.16   -22139.179    1393.7261   -23532.905   -460.10411    3894.8033     39.53182    40.418992    23.583363 
 3976600    224.82963   -156.23618    216156.16   -22139.904    1424.1206   -23564.025   -26.369158    3894.2224    39.531913     40.42101    23.580762 
 3976800    227.76216   -106.51705    216156.16   -22090.164     1442.696    -23532.86    233.75271      3893.79    39.534594    40.420791    23.579192 
 3977000    218.78414   -109.91772    216156.16   -22184.489    1385.8271   -23570.316    181.89023    3895.7561    39.535013    40.422478    23.572189 
 3977200    227.17531   -230.45237    216156.16   -22101.387    1438.9787   -23540.366   -310.27254    3894.9074    39.534408    40.422799    23.573602 
 3977400    227.45149   -218.82949    216156.16   -22100.277    1440.7281   -23541.006   -287.40814    3893.9581    39.533488    40.422734     23.57768 
 3977600    218.91942   -117.11547    216156.16   -22113.212    1386.6841   -23499.896    181.44802    3894.6015    39.534705    40.423736    23.577862 
 3977800    223.17187   -58.509069    216156.16   -22112.451      1413.62   -23526.071     443.6037    3894.0392    39.535971    40.423911    23.572861 
 3978000    224.88862   -106.32913    216156.16   -22132.488    1424.4943   -23556.982      246.829    3894.6606    39.536049    40.423606    23.576486 
 3978200    224.23747   -268.85536    216156.16   -22070.371    1420.3698    -23490.74   -500.98643    3893.9714    39.534567    40.422729    23.577952 
 3978400    223.35254   -122.40327    216156.16   -22133.441    1414.7644   -23548.205    106.59714    3893.5678    39.534367    40.423199    23.579149 
 3978600    222.87751   -196.87572    216156.16   -22096.765    1411.7555    -23508.52   -201.35104    3893.9287    39.534839    40.423572    23.570385 
 3978800     227.4635   -126.26344    216156.16   -22077.317    1440.8042   -23518.121    130.70692    3895.1046    39.535485    40.423879    23.571673 
 3979000    225.17722   -149.71029    216156.16   -22107.565    1426.3224   -23533.887    19.375536    3893.6072    39.535811    40.424461    23.570621 
 3979200    225.58938   -182.58873    216156.16   -22140.833    1428.9331   -23569.766   -104.96708    3893.8315    39.535465     40.42561    23.578793 
 3979400    222.24008   -79.241774    216156.16   -22098.868    1407.7179   -23506.586    349.26815    3893.6536    39.537165    40.426856    23.572325 
 3979600    229.09291   -152.63784    216156.16   -22120.322    1451.1252   -23571.447    55.647027    3894.0537    39.537898    40.426979    23.576396 
 3979800    218.36732   -228.77874    216156.16   -22105.317     1383.187   -23488.504   -312.42496    3894.7739     39.53828    40.426948    23.581968 
 3980000    221.21134   -132.83448    216156.16   -22116.177    1401.2016   -23517.379    73.134041    3893.2019    39.538788    40.427381    23.581741 
 3980200    227.59063   -82.730847    216156.16   -22112.969    1441.6094   -23554.578    321.47513    3893.3426    39.539685    40.427202    23.589947 
 3980400    227.60206   -240.75918    216156.16   -22076.459    1441.6818   -23518.141   -348.97489    3894.6787    39.540066    40.426729    23.587333 
 3980600    236.75535   -186.82161    216156.16   -22026.719    1499.6608    -23526.38   -115.19491    3894.7111    39.540547    40.425912     23.59119 
 3980800    224.64171   -50.297305    216156.16   -22062.765    1422.9303   -23485.695    449.79702    3894.8803    39.539643    40.425271    23.580584 
 3981000    224.19007   -99.278138    216156.16   -22086.962    1420.0695   -23507.032    254.69177    3893.9412    39.538692    40.424294    23.580252 
 3981200    226.44848   -221.36714    216156.16   -22077.956    1434.3748   -23512.331   -242.33931    3895.1846    39.539571    40.422622    23.583288 
 3981400    227.30132   -191.54547    216156.16    -22051.31    1439.7769   -23491.087   -85.727782    3894.2922    39.540722    40.422464    23.582632 
 3981600    228.99056   -76.174454    216156.16   -22103.309    1450.4769   -23553.785    346.93562     3894.727    39.542606    40.423843    23.575146 
 3981800    223.33857   -98.591527    216156.16    -22076.39     1414.676   -23491.066    262.61428    3894.7685    39.544478    40.424238    23.576361 
 3982000    226.38023   -157.27158    216156.16   -22111.062    1433.9425   -23545.005    55.036466    3894.7714     39.54667    40.422999    23.574245 
 3982200    216.54776   -153.94915    216156.16   -22165.737    1371.6614   -23537.399    20.333778    3895.3153    39.549654    40.423917    23.573002 
 3982400    225.56444   -36.849725    216156.16   -22088.596    1428.7751   -23517.371    518.73297    3893.7061    39.550535    40.425649    23.570775 
 3982600    223.15069   -82.726446    216156.16    -22097.57    1413.4858   -23511.056    340.62302     3895.041    39.550097    40.426324     23.56446 
 3982800    226.79509   -158.22623    216156.16    -22046.31    1436.5703    -23482.88   -1.5370112    3895.1166    39.551198    40.425734    23.570259 
 3983000    231.01192   -75.566959    216156.16   -22011.206    1463.2806   -23474.487    403.78738    3894.6694    39.553631    40.425579    23.578237 
 3983200    226.08042   -106.78968    216156.16   -22034.554    1432.0434   -23466.597    259.35194    3894.3472    39.553258    40.426306    23.572506 
 3983400     229.5173   -128.25143    216156.16   -22002.534    1453.8134   -23456.348    152.15669    3894.0258     39.55221    40.425462    23.572907 
 3983600    226.46729   -85.091956    216156.16   -22073.898     1434.494   -23508.392    336.09685    3894.6845    39.552731    40.424524    23.567943 
 3983800    223.36969   -221.31638    216156.16    -22077.09     1414.873   -23491.963   -270.71564    3894.6569    39.552855    40.424636    23.568162 
 3984000    227.32191   -246.76982    216156.16   -22078.259    1439.9073   -23518.167   -363.02932    3895.3387    39.553131    40.424331    23.574891 
 3984200    230.01634   -129.57924    216156.16   -22056.358    1456.9744   -23513.333    98.577814    3894.6516    39.554033    40.424762    23.575718 
 3984400    223.05701   -67.154907    216156.16   -22107.643    1412.8925   -23520.535    392.67658    3894.7299    39.555589    40.425036    23.575989 
 3984600     222.4711   -143.94415    216156.16   -22118.701    1409.1812   -23527.882    44.023349    3895.4153    39.557387    40.424969    23.587216 
 3984800    222.92569   -285.59646    216156.16   -22081.943    1412.0607   -23494.004   -512.34994    3895.6125    39.557591    40.426351    23.587177 
 3985000     221.3626    -183.6473    216156.16    -22127.97    1402.1597    -23530.13   -101.31502    3895.0696    39.558317     40.42606    23.584503 
 3985200    222.33718   -73.659839    216156.16   -22082.399    1408.3329   -23490.732    417.94524    3893.6123    39.560027    40.426227    23.584658 
 3985400    227.23877   -113.40442    216156.16     -22100.9    1439.3807   -23540.281    191.67248    3895.7624    39.560748    40.427245    23.577445 
 3985600    223.67764   -235.92035    216156.16   -22055.943    1416.8237   -23472.766   -327.12496     3895.263    39.560813    40.428141    23.572089 
 3985800    223.63964   -218.45657    216156.16   -22070.914     1416.583   -23487.497   -216.28644    3894.7545    39.560815    40.429328     23.57666 
 3986000     231.2937   -103.74808    216156.16    -21998.41    1465.0655   -23463.476    209.27646     3894.479    39.560832    40.428823    23.573649 
 3986200    228.40976   -41.179256    216156.16   -22029.103     1446.798   -23475.901    455.98656    3894.9039    39.560932    40.428955    23.575878 
 3986400    219.27869   -176.23596    216156.16   -22125.024    1388.9598   -23513.984   -59.239471    3895.0074    39.560521    40.429269    23.574092 
 3986600    221.63257   -237.96836    216156.16   -22086.666    1403.8697   -23490.536   -322.53369    3895.1108    39.560192    40.430391    23.564949 
 3986800    221.74787   -119.98223    216156.16    -22092.99    1404.6001    -23497.59    162.86212    3895.8565    39.560034    40.430663    23.570805 
 3987000    222.19483   -139.98025    216156.16   -22063.907    1407.4312   -23471.338    106.17234    3894.5822     39.56069    40.431612    23.570097 
 3987200     221.6557   -228.14857    216156.16   -22159.532    1404.0163   -23563.548   -274.49054     3893.547    39.560041    40.431486    23.572798 
 3987400    223.52631   -103.30698    216156.16   -22115.749    1415.8651   -23531.615    233.94983    3893.5456    39.560531    40.430551    23.577676 
 3987600    226.77935   -76.061671    216156.16   -22059.854    1436.4706   -23496.324    356.96787    3894.2822    39.558389    40.431351    23.579097 
 3987800    223.74259   -155.10963    216156.16   -22110.857    1417.2351   -23528.092  -0.28091396    3894.5081    39.557876    40.432478    23.577046 
 3988000     228.0015   -263.11625    216156.16   -22069.414     1444.212   -23513.626   -419.42071     3894.484     39.55893    40.432496    23.578939 
 3988200    222.61534   -160.66287    216156.16   -22101.851    1410.0948   -23511.946    5.9985433    3894.4856    39.559559    40.432742    23.576076 
 3988400    226.76992   -117.81413    216156.16    -22082.14    1436.4109   -23518.551    186.35539    3893.1238    39.559283    40.432716    23.571408 
 3988600    224.64494     7.215349    216156.16   -22138.276    1422.9508   -23561.227    692.77499    3892.2595    39.558581    40.433835    23.576614 
 3988800    224.81826   -221.36459    216156.16   -22144.776    1424.0486   -23568.825   -233.96189    3895.4956    39.558399    40.434758    23.576646 
 3989000    228.13567   -236.09317    216156.16   -22064.869    1445.0619   -23509.931   -353.19768    3893.7671    39.557787    40.436306    23.568982 
 3989200    221.83959   -51.974616    216156.16   -22103.141    1405.1811   -23508.323    465.38143    3893.2922    39.558686    40.437238    23.573465 
 3989400    217.87703   -76.316924    216156.16   -22128.321    1380.0813   -23508.402    351.55754    3894.0368    39.558627     40.43828    23.586622 
 3989600    228.57197   -138.99071    216156.16   -22036.971    1447.8254   -23484.797    46.799005    3893.8748    39.558086    40.439628    23.583062 
 3989800    224.69414   -120.64345    216156.16   -22064.769    1423.2624   -23488.032    181.03647    3894.3184    39.557135    40.439121     23.58742 
 3990000    225.55272   -213.97462    216156.16    -22117.33    1428.7008   -23546.031   -199.97494    3893.0769    39.556484    40.438838    23.583287 
 3990200    228.68213   -90.754917    216156.16    -22121.88    1448.5232   -23570.403    323.07686    3893.7443    39.557159    40.439744    23.578791 
 3990400     225.6264   -107.02629    216156.16   -22104.284    1429.1675   -23533.452    277.26376    3894.8851    39.557249    40.440659    23.582353 
 3990600    225.00097    -121.0927    216156.16   -22130.088     1425.206   -23555.294    197.78081    3894.3724    39.558757    40.441552    23.581274 
 3990800    227.93752   -96.341311    216156.16   -22106.192    1443.8067   -23549.999    274.54948     3894.037    39.559171    40.442722    23.571297 
 3991000    226.66513   -93.225533    216156.16   -22073.292    1435.7471   -23509.039     306.0061    3894.4322    39.559809    40.445011    23.574807 
 3991200    227.94773   -122.19354    216156.16   -22051.973    1443.8714   -23495.844    173.16076    3894.2663    39.559424    40.446063    23.572128 
 3991400    235.49835   -236.40769    216156.16   -22056.769    1491.6987   -23548.468   -311.75329      3893.61    39.558981    40.447162    23.574307 
 3991600    221.03816   -160.53984    216156.16   -22099.555    1400.1046   -23499.659    -39.92673    3894.5297    39.559027    40.446657    23.570476 
 3991800    219.84415   -175.86752    216156.16   -22168.686    1392.5415   -23561.227    -82.90036    3892.6582    39.559151    40.445683    23.577333 
 3992000    223.11486   -177.43132    216156.16   -22118.069    1413.2589   -23531.328   -98.439573    3892.6259     39.55935    40.446184    23.580548 
 3992200    222.60329   -148.96905    216156.16   -22094.039    1410.0185   -23504.058    34.309272    3894.2958     39.55877    40.446737    23.578953 
 3992400    225.74923   -178.57686    216156.16   -22103.783    1429.9456   -23533.728   -89.123955    3894.9913    39.558394    40.446033    23.581086 
 3992600     220.6896   -115.40478    216156.16   -22097.201    1397.8968   -23495.098    220.38364    3893.0641    39.558211    40.445353    23.574295 
 3992800    225.84774   -113.73809    216156.16   -22094.642    1430.5696   -23525.212    205.34204    3893.6266    39.559272    40.444594    23.566853 
 3993000    216.49044   -144.30335    216156.16   -22182.647    1371.2984   -23553.946     56.74826    3894.1815    39.558917    40.445069     23.57309 
 3993200    226.78512   -185.41143    216156.16   -22094.994    1436.5071   -23531.501   -83.361964    3894.2151    39.560027    40.445246     23.57596 
 3993400    226.06567   -119.13799    216156.16   -22064.641      1431.95   -23496.591    112.40017    3892.4552     39.56004    40.446456    23.574235 
 3993600    225.34783   -80.425297    216156.16   -22082.833     1427.403   -23510.236    329.99555    3894.1842    39.560575    40.447412    23.571555 
 3993800    225.10536   -177.54281    216156.16   -22096.227    1425.8672   -23522.094   -44.548952    3892.7481    39.560115    40.448766    23.580167 
 3994000     220.6363   -204.33536    216156.16   -22107.309    1397.5592   -23504.868   -214.58609    3893.2698    39.560766     40.45043    23.576977 
 3994200    219.46102   -71.236401    216156.16   -22124.276    1390.1147   -23514.391    330.57136    3892.9313    39.562212    40.451629    23.568725 
 3994400    216.36511   -139.79246    216156.16   -22094.162    1370.5045   -23464.667    58.791796    3892.9098     39.56214    40.453559    23.575116 
 3994600    220.46657   -226.38769    216156.16   -22156.807     1396.484   -23553.291   -307.99699    3893.1468    39.562502    40.453692    23.578082 
 3994800    224.91886   -301.09013    216156.16   -22062.711    1424.6859   -23487.396   -594.04853    3894.4583    39.561701    40.454588    23.569064 
 3995000    225.11239   -176.74237    216156.16   -22070.493    1425.9117   -23496.404   -61.092995    3894.7174    39.561598    40.456239    23.569652 
 3995200    222.74394     24.80486    216156.16   -22132.363    1410.9094   -23543.272    786.72666    3892.3082    39.562253    40.458616    23.567152 
 3995400    225.42248   -110.75299    216156.16   -22073.313    1427.8759   -23501.189    203.99468    3892.1118    39.561951    40.459698    23.563961 
 3995600    234.10453   -143.01781    216156.16   -22018.186    1482.8699   -23501.056    67.683747    3893.5357     39.56123    40.460565    23.556348 
 3995800    226.46929   -175.22452    216156.16   -22044.874    1434.5066    -23479.38   -43.956439    3893.7895    39.561632    40.461875    23.563766 
 3996000     228.0405   -36.979241    216156.16   -21978.976     1444.459   -23423.435    540.11659    3892.0251    39.562536    40.463267    23.568046 
 3996200    224.45296   -164.92711    216156.16   -22065.591    1421.7347   -23487.326    -44.44997    3892.8682    39.562756    40.463851    23.573313 
 3996400    225.29663   -216.60905    216156.16   -22092.992    1427.0787   -23520.071   -262.65614    3892.6273    39.562405    40.464123    23.575901 
 3996600    225.37727    -84.53225    216156.16   -22081.756    1427.5895   -23509.346    353.39188    3891.1563    39.562664    40.465242    23.579153 
 3996800    222.30714   -114.78399    216156.16   -22129.993    1408.1426   -23538.136    178.08683    3891.8272     39.56311    40.466641    23.579813 
 3997000    224.15227   -202.08955    216156.16   -22021.251    1419.8301   -23441.082   -158.56428    3892.5233    39.564394    40.466536    23.580085 
 3997200    229.69478   -100.28641    216156.16   -22077.164    1454.9376   -23532.102    257.95059    3892.4863     39.56445     40.46781    23.576421 
 3997400    218.25447   -75.413822    216156.16   -22130.393    1382.4721   -23512.866    394.88826    3892.8956    39.565622    40.467709    23.573598 
 3997600    231.37305   -140.63959    216156.16   -22064.725    1465.5681   -23530.293    81.998149    3892.0581    39.564993    40.467934    23.573724 
 3997800    216.74874   -50.495228    216156.16   -22184.204    1372.9345   -23557.138    458.08124    3892.6142    39.565266    40.469254    23.582645 
 3998000    218.90359   -209.34665    216156.16   -22111.798    1386.5838   -23498.382   -201.12483    3891.6387    39.565965    40.469193    23.583479 
 3998200    221.69492   -260.49127    216156.16   -22159.267    1404.2647   -23563.531   -453.87624    3892.4485    39.565887    40.469426    23.581895 
 3998400    233.48043   -117.69862    216156.16   -22022.086    1478.9167   -23501.003    210.48984    3890.9098    39.565728    40.470245      23.5743 
 3998600    225.98118   -126.03118    216156.16   -22107.937    1431.4148   -23539.351    128.17682    3892.1286    39.564836    40.470857    23.571497 
 3998800    221.22645   -115.58226    216156.16   -22105.025    1401.2973   -23506.322     181.0355    3892.5899    39.564741    40.471295    23.572246 
 3999000    224.72179   -157.71167    216156.16   -22054.462    1423.4376   -23477.899   -60.372022    3891.8911    39.564977    40.471647    23.571972 
 3999200    225.39656   -177.80003    216156.16   -22107.404    1427.7117   -23535.115   -80.442523    3892.7779    39.565884    40.471469    23.579218 
 3999400    223.53521   -110.20479    216156.16   -22142.218    1415.9215    -23558.14     247.4426    3893.1682    39.566766    40.471261    23.579439 
 3999600    215.73719   -110.87468    216156.16   -22156.598    1366.5271   -23523.126    203.85884    3891.2239    39.567581    40.471066    23.582382 
 3999800    233.17703   -153.45793    216156.16   -22077.737    1476.9949   -23554.731    22.334389    3892.5982    39.568906    40.470687    23.586976 
 4000000    226.82514   -217.64061    216156.16     -22066.8    1436.7606    -23503.56     -223.168    3894.1383    39.568952    40.470253    23.588233 
Loop time of 5986.57 on 120 procs for 4000000 steps with 9422 atoms

Performance: 577.292 ns/day, 0.042 hours/ns, 668.162 timesteps/s
98.1% CPU use with 120 MPI tasks x no OpenMP threads

MPI task timing breakdown:
Section |  min time  |  avg time  |  max time  |%varavg| %total
---------------------------------------------------------------
Pair    | 0.31233    | 1569.7     | 4738.2     |3767.1 | 26.22
Neigh   | 2.7168     | 96.294     | 314.95     |1043.0 |  1.61
Comm    | 310.73     | 2278.6     | 4687.4     |2983.6 | 38.06
Output  | 70.131     | 70.19      | 71.636     |   1.6 |  1.17
Modify  | 296.69     | 1932.9     | 5560.2     |4826.5 | 32.29
Other   |            | 38.92      |            |       |  0.65

Nlocal:    78.5167 ave 207 max 0 min
Histogram: 32 32 12 4 0 0 0 2 16 22
Nghost:    691.683 ave 908 max 528 min
Histogram: 32 1 14 2 23 9 14 4 10 11
Neighs:    0 ave 0 max 0 min
Histogram: 120 0 0 0 0 0 0 0 0 0
FullNghs:  7941.65 ave 25123 max 0 min
Histogram: 65 15 0 0 0 0 0 8 21 11

Total # of neighbors = 952998
Ave neighs/atom = 101.146
Neighbor list builds = 418478
Dangerous builds = 0
write_data 		${DIR}/data.${NAME}_run
write_data 		run_20/data.${NAME}_run
write_data 		run_20/data.ibeam_cooling_20_run
Total wall time: 1:40:03
