
### Dimensions ###


### IMPORT ATOMS ###
read_data ../Box_Setup/data.Ibeam_240K
Reading data file ...
  orthogonal box = (0.0000000 0.0000000 0.0000000) to (68.908000 85.848302 27.975384)
  8 by 8 by 2 MPI processor grid
  reading atoms ...
  8493 atoms
  reading velocities ...
  8493 velocities
  read_data CPU = 0.020 seconds
group water type 2
1689 atoms in group water
group graphite type 1
6804 atoms in group graphite


# Define potential
#
pair_style          sw
pair_coeff * * MLC_e.sw C mW

# Add velocity/set timestep
#

fix		1 graphite setforce 0.0 0.0 0.0
velocity 	graphite set 0.0 0.0 0.0
velocity            water create ${START_TEMP} ${SEED} rot yes dist gaussian
velocity            water create 240 ${SEED} rot yes dist gaussian
velocity            water create 240 14494 rot yes dist gaussian
timestep            5.0

# Define output
#
compute 1 water msd
compute 2 water temp


thermo	            100
thermo_style custom step c_2 press vol etotal ke pe c_1[4] density

# Neighbor lists
#
neigh_modify        delay 0 every 1 check yes


# Set fixes
#
fix                 2 water momentum 10 linear 1 1 1 rescale
fix                 3 all nve
fix                 4 water temp/csvr ${START_TEMP} ${START_TEMP} 500.0 928347
fix                 4 water temp/csvr 240 ${START_TEMP} 500.0 928347
fix                 4 water temp/csvr 240 240 500.0 928347

# Run 0.05 ns equilibration
#
dump                1 all custom 100 ${DIR}/eq.${NAME}.dump id type x y z vx vy vz
dump                1 all custom 100 run_8/eq.${NAME}.dump id type x y z vx vy vz
dump                1 all custom 100 run_8/eq.ibeam_cooling_8.dump id type x y z vx vy vz
run                 10000
Neighbor list info ...
  update every 1 steps, delay 0 steps, check yes
  max neighbors/atom: 2000, page size: 100000
  master list distance cutoff = 6.6747184
  ghost atom cutoff = 6.6747184
  binsize = 3.3373592, bins = 21 26 9
  1 neighbor lists, perpetual/occasional/extra = 1 0 0
  (1) pair sw, perpetual
      attributes: full, newton on
      pair build: full/bin/atomonly
      stencil: full/bin/3d
      bin: standard
Per MPI rank memory allocation (min/avg/max) = 3.603 | 4.507 | 4.728 Mbytes
Step c_2 Press Volume TotEng KinEng PotEng c_1[4] Density 
       0          240   -298.97748    165492.15   -16025.669    1207.5858   -17233.255            0    1.1252403 
     100    249.18987   -551.72689    165492.15   -16003.357    1253.8256   -17257.182   0.92399881    1.1252403 
     200    243.10151   -354.47583    165492.15   -16057.192    1223.1914   -17280.384    1.4602177    1.1252403 
     300    240.40357   -283.99914    165492.15   -16047.098    1209.6164   -17256.715    1.8940943    1.1252403 
     400    243.52711   -510.99679    165492.15   -16052.635    1225.3328   -17277.968    2.3176291    1.1252403 
     500    236.48832   -355.14656    165492.15   -16065.658    1189.9164   -17255.574    2.7536021    1.1252403 
     600    237.60599   -403.29469    165492.15   -16155.441    1195.5401   -17350.981    3.1352859    1.1252403 
     700    234.94239   -433.78489    165492.15    -16135.79    1182.1378   -17317.928    3.7479814    1.1252403 
     800    228.81438   -370.12462    165492.15   -16173.505    1151.3041   -17324.809    4.0487423    1.1252403 
     900    240.41217   -487.41767    165492.15   -16144.517    1209.6597   -17354.177    4.3047006    1.1252403 
    1000    239.65435   -431.20446    165492.15   -16095.296    1205.8466   -17301.143    4.8205147    1.1252403 
    1100    235.27365   -567.14577    165492.15    -16105.81    1183.8046   -17289.615    5.1921445    1.1252403 
    1200    235.00286   -617.06553    165492.15   -16142.205    1182.4421   -17324.647     5.476637    1.1252403 
    1300    237.49749     -385.242    165492.15   -16102.047    1194.9941   -17297.041    5.7685712    1.1252403 
    1400    240.28688   -506.02257    165492.15   -16037.521    1209.0292    -17246.55    6.1957795    1.1252403 
    1500    247.90886   -692.75943    165492.15    -16037.72      1247.38     -17285.1    6.4940318    1.1252403 
    1600    246.37111    -562.6399    165492.15   -16027.106    1239.6427   -17266.749    6.8157682    1.1252403 
    1700    248.66271   -423.43055    165492.15   -16055.784    1251.1731   -17306.957    7.0982457    1.1252403 
    1800    242.57278    -617.2376    165492.15   -16062.524     1220.531   -17283.055    7.3318762    1.1252403 
    1900    248.12473   -576.15897    165492.15   -15986.376    1248.4662   -17234.842    7.8836201    1.1252403 
    2000    245.60221   -703.32969    165492.15   -15969.863    1235.7739   -17205.637    8.3176716    1.1252403 
    2100    245.63789   -661.00609    165492.15   -15969.443    1235.9534   -17205.397    8.7406657    1.1252403 
    2200    246.15261   -429.70517    165492.15   -15967.701    1238.5433   -17206.245    9.0665815    1.1252403 
    2300    238.36669   -511.95773    165492.15   -16009.531    1199.3676   -17208.898    9.4402907    1.1252403 
    2400    239.50384   -602.19135    165492.15   -15996.605    1205.0893   -17201.694    9.7415966    1.1252403 
    2500    241.01107   -489.67794    165492.15   -16002.319    1212.6731   -17214.992    10.222781    1.1252403 
    2600    238.89044   -504.67234    165492.15   -16042.671    1202.0029   -17244.674    10.413355    1.1252403 
    2700    241.92105   -349.57677    165492.15   -16023.782    1217.2517   -17241.034    10.872302    1.1252403 
    2800    246.30485   -454.23237    165492.15   -16035.819    1239.3093   -17275.129    11.428905    1.1252403 
    2900    234.73124   -575.05136    165492.15   -16086.186    1181.0755   -17267.261     11.82488    1.1252403 
    3000    236.73379   -406.08829    165492.15   -16113.263    1191.1515   -17304.415    12.088897    1.1252403 
    3100    238.95845   -450.04984    165492.15   -16110.807    1202.3451   -17313.152    12.350114    1.1252403 
    3200    236.02523   -610.79862    165492.15   -16128.884    1187.5863    -17316.47    12.802222    1.1252403 
    3300    236.23762   -427.23319    165492.15   -16085.686     1188.655   -17274.341    13.272985    1.1252403 
    3400    234.55986   -477.63454    165492.15   -16093.702    1180.2131   -17273.915    13.615711    1.1252403 
    3500    241.43173   -534.99966    165492.15   -16097.274    1214.7897   -17312.064    13.855983    1.1252403 
    3600    237.28444   -432.39968    165492.15   -16095.002    1193.9221   -17288.924    14.129806    1.1252403 
    3700    238.68059   -335.85775    165492.15   -16129.295     1200.947   -17330.242    14.036903    1.1252403 
    3800    236.24194   -547.22675    165492.15    -16121.91    1188.6767   -17310.587    14.220332    1.1252403 
    3900    236.30272   -431.12157    165492.15   -16133.176    1188.9825   -17322.159    14.516759    1.1252403 
    4000    235.19741   -497.34059    165492.15   -16152.236     1183.421   -17335.657    14.889263    1.1252403 
    4100    236.99301   -344.72854    165492.15   -16112.033    1192.4558   -17304.488    15.328014    1.1252403 
    4200    241.68757   -598.40165    165492.15    -16086.45     1216.077   -17302.527    15.972549    1.1252403 
    4300    254.23932   -473.28644    165492.15   -16019.644    1279.2324   -17298.876    16.249588    1.1252403 
    4400    240.42772    -564.1116    165492.15   -16024.714    1209.7379   -17234.452     16.92559    1.1252403 
    4500    235.41069   -434.55177    165492.15   -16068.132    1184.4942   -17252.626    17.212176    1.1252403 
    4600    245.42106   -311.76049    165492.15   -16082.017    1234.8624   -17316.879    17.782621    1.1252403 
    4700     239.9843   -464.86536    165492.15   -16107.026    1207.5068   -17314.533    18.473277    1.1252403 
    4800    248.42113   -673.61087    165492.15   -16080.684    1249.9576   -17330.642    18.903791    1.1252403 
    4900    245.37112   -368.85104    165492.15   -16098.988    1234.6111   -17333.599    19.174229    1.1252403 
    5000    238.98718   -403.90139    165492.15   -16128.784    1202.4897   -17331.274     19.26407    1.1252403 
    5100    233.56706   -721.12245    165492.15   -16137.321    1175.2177   -17312.539    19.486831    1.1252403 
    5200    237.21664   -362.42298    165492.15   -16097.612     1193.581   -17291.193    19.583123    1.1252403 
    5300    231.41931    -479.6478    165492.15   -16149.274    1164.4111   -17313.685    19.752508    1.1252403 
    5400    241.34956   -457.53221    165492.15   -16117.066    1214.3762   -17331.442    19.820784    1.1252403 
    5500    234.92139   -350.63361    165492.15   -16151.254    1182.0322   -17333.286    19.876017    1.1252403 
    5600    235.66924   -505.59614    165492.15   -16165.535    1185.7951    -17351.33    20.144986    1.1252403 
    5700    239.50855    -439.2165    165492.15   -16143.754     1205.113   -17348.867    20.758646    1.1252403 
    5800    249.21474   -404.19662    165492.15   -16061.338    1253.9507   -17315.289    21.255113    1.1252403 
    5900    239.21839    -510.3292    165492.15   -16084.907     1203.653    -17288.56     21.76476    1.1252403 
    6000    228.23665   -583.75347    165492.15   -16159.914    1148.3972   -17308.311    21.935316    1.1252403 
    6100    233.91313   -372.96828    165492.15    -16150.33     1176.959   -17327.289    22.408059    1.1252403 
    6200    240.45061   -584.61445    165492.15    -16100.44     1209.853   -17310.293    22.835575    1.1252403 
    6300    243.15588   -358.73659    165492.15   -16082.834    1223.4649   -17306.299    23.381638    1.1252403 
    6400    242.26811   -356.72759    165492.15   -16073.371     1218.998   -17292.369    23.690862    1.1252403 
    6500    241.88033   -556.53602    165492.15   -16100.112    1217.0468   -17317.159    24.067573    1.1252403 
    6600    235.62248    -470.1128    165492.15   -16133.323    1185.5598   -17318.883    24.153423    1.1252403 
    6700    234.52511   -505.21945    165492.15   -16165.041    1180.0382   -17345.079    24.188999    1.1252403 
    6800    244.07181    -421.8958    165492.15   -16136.312    1228.0735   -17364.386    24.523779    1.1252403 
    6900    230.25424   -510.15068    165492.15    -16168.76    1158.5489   -17327.309     24.78942    1.1252403 
    7000     233.7409   -527.66981    165492.15   -16154.395    1176.0924   -17330.487    25.030347    1.1252403 
    7100    247.33215   -487.14751    165492.15   -16084.769    1244.4783   -17329.247    25.292932    1.1252403 
    7200     235.8391   -447.65635    165492.15   -16098.471    1186.6498   -17285.121    25.353071    1.1252403 
    7300    229.96756   -485.40319    165492.15   -16169.277    1157.1065   -17326.383    25.695238    1.1252403 
    7400    234.15563   -531.55965    165492.15   -16164.322    1178.1792   -17342.501    26.121957    1.1252403 
    7500    236.08876   -384.53581    165492.15   -16190.479    1187.9059   -17378.385    26.536826    1.1252403 
    7600    230.34727   -179.72902    165492.15   -16209.203     1159.017    -17368.22    26.995189    1.1252403 
    7700    235.93991   -531.94744    165492.15   -16190.075     1187.157   -17377.232    27.338151    1.1252403 
    7800    238.83638    -361.5945    165492.15   -16137.106    1201.7309   -17338.837    27.692652    1.1252403 
    7900    238.03436   -442.89624    165492.15   -16135.894    1197.6954   -17333.589     28.26415    1.1252403 
    8000    238.35046   -310.86408    165492.15   -16123.089    1199.2859   -17322.375    28.692261    1.1252403 
    8100    246.16656   -416.54137    165492.15   -16147.668    1238.6135   -17386.281     28.76838    1.1252403 
    8200    226.63792   -545.46565    165492.15    -16182.51     1140.353   -17322.863    28.761869    1.1252403 
    8300    233.20354   -511.39446    165492.15   -16175.799    1173.3886   -17349.188    28.992941    1.1252403 
    8400    237.09655   -539.69593    165492.15   -16153.917    1192.9768   -17346.894    29.300728    1.1252403 
    8500     237.1677   -525.65544    165492.15   -16170.409    1193.3347   -17363.744    29.381309    1.1252403 
    8600    240.41985    -213.5685    165492.15   -16127.139    1209.6983   -17336.837    29.777643    1.1252403 
    8700    233.20126   -494.84873    165492.15   -16196.396    1173.3772   -17369.774    30.056708    1.1252403 
    8800     239.3527   -399.84233    165492.15     -16134.3    1204.3288   -17338.628    30.318037    1.1252403 
    8900    234.18966   -503.00297    165492.15   -16156.673    1178.3504   -17335.023    30.332895    1.1252403 
    9000    243.77807    -459.4676    165492.15   -16119.349    1226.5956   -17345.945    30.538237    1.1252403 
    9100    237.28985   -337.61926    165492.15   -16101.022    1193.9494   -17294.971    30.743178    1.1252403 
    9200    233.53152   -317.70319    165492.15   -16132.614    1175.0389   -17307.653    31.002179    1.1252403 
    9300    236.68611   -543.44305    165492.15    -16152.49    1190.9116   -17343.402    31.280848    1.1252403 
    9400    230.23373   -522.92154    165492.15   -16160.546    1158.4457   -17318.991    31.701166    1.1252403 
    9500    237.28011   -440.56056    165492.15    -16107.87    1193.9003   -17301.771    32.035133    1.1252403 
    9600    236.59109   -437.40977    165492.15   -16162.651    1190.4335   -17353.084    32.327622    1.1252403 
    9700     241.5205     -179.881    165492.15    -16140.24    1215.2363   -17355.477    32.278047    1.1252403 
    9800     232.0314   -702.82447    165492.15   -16136.984    1167.4909   -17304.475     32.53491    1.1252403 
    9900    243.13079   -552.69619    165492.15   -16099.839    1223.3387   -17323.178    33.039377    1.1252403 
   10000    250.81264   -229.16596    165492.15   -16032.968    1261.9907   -17294.959    33.172777    1.1252403 
Loop time of 6.00697 on 128 procs for 10000 steps with 8493 atoms

Performance: 719.164 ns/day, 0.033 hours/ns, 1664.732 timesteps/s
96.7% CPU use with 128 MPI tasks x no OpenMP threads

MPI task timing breakdown:
Section |  min time  |  avg time  |  max time  |%varavg| %total
---------------------------------------------------------------
Pair    | 0.00077438 | 1.8433     | 4.4707     | 115.0 | 30.69
Neigh   | 0.0042305  | 0.13443    | 0.31132    |  27.9 |  2.24
Comm    | 0.20689    | 1.7228     | 4.2396     |  79.2 | 28.68
Output  | 0.15432    | 0.15441    | 0.15539    |   0.0 |  2.57
Modify  | 0.24741    | 2.0736     | 5.5637     | 131.6 | 34.52
Other   |            | 0.07843    |            |       |  1.31

Nlocal:        66.3516 ave         140 max           0 min
Histogram: 32 2 12 18 0 0 2 30 22 10
Nghost:        698.453 ave         921 max         491 min
Histogram: 17 5 15 15 13 15 14 18 3 13
Neighs:         0.00000 ave           0 max           0 min
Histogram: 128 0 0 0 0 0 0 0 0 0
FullNghs:      6956.34 ave       16722 max           0 min
Histogram: 41 23 0 0 0 0 14 31 11 8

Total # of neighbors = 890412
Ave neighs/atom = 104.84069
Neighbor list builds = 571
Dangerous builds = 0
write_data 	    ${DIR}/data.${NAME}_eq
write_data 	    run_8/data.${NAME}_eq
write_data 	    run_8/data.ibeam_cooling_8_eq
System init for write_data ...

undump              1
unfix               4



################################################
#######         Run Simulation         #########
################################################

reset_timestep      0
timestep	    10.0
log                 ${DIR}/log.run_${NAME}
log                 run_8/log.run_${NAME}
log                 run_8/log.run_ibeam_cooling_8
