LAMMPS data file via write_data, version 7 Aug 2019, timestep = 5000000

4098 atoms
1 atom types

1.1873772951765105e-01 5.1301262270464377e+01 xlo xhi
1.1873772951765105e-01 5.1301262270464377e+01 ylo yhi
1.1873772951765105e-01 5.1301262270464377e+01 zlo zhi

Masses

1 18.15

Atoms # atomic

2253 1 1.5762187791271813e+01 1.8057195721037544e-01 3.4445163082460390e+00 1 0 2
2787 1 4.3426625440481832e+00 1.6902854771713527e+00 2.1890299861707900e+00 0 -1 3
4024 1 6.7085270859717818e+00 1.3405422584065669e+00 1.3068469015905111e+00 1 -1 1
2169 1 8.3538510536836750e+00 2.1643642605264000e+00 3.2812536150601885e+00 0 0 0
886 1 1.1254102721743932e+01 2.3026319786932867e+00 2.8100585323798390e+00 1 1 0
433 1 2.3035238802861087e+01 6.2043253251860033e+00 3.9707551679783748e-01 0 1 1
3525 1 2.0783052255582970e+01 9.1516100398147793e-01 2.0367548471727774e+00 2 -1 0
463 1 2.3168224644838578e+01 2.5192506537441997e+00 2.0933968378249697e+00 -1 2 0
2172 1 1.3064933747302616e+00 4.1056661750096737e+00 3.2408549400483544e+00 1 0 -1
2524 1 3.8811004663389856e+00 4.0938140212311946e+00 2.8022609622157044e+00 2 0 0
413 1 4.4782413209350693e+00 5.4455280066662075e+00 5.0660864965576757e-01 2 2 -1
2103 1 1.1150732308642725e+01 6.2072741878778031e+00 1.1715613503154279e+00 1 -1 0
398 1 1.1526414503635216e+01 3.5672302484654508e+00 5.7192964721909578e-01 2 -2 0
3046 1 1.6020478456954962e+01 4.2727059551757423e+00 1.6606563858032433e+00 -1 1 0
2833 1 1.8418607901316282e+01 4.2814384463949802e+00 1.1556634565065531e+00 1 -1 -2
4063 1 1.9807494384141879e+01 4.9367894497622302e+00 3.2890724742427655e+00 -3 1 2
1399 1 2.2249296183882084e+01 4.9587793531526270e+00 2.7425261394696636e+00 0 1 1
2086 1 1.1984777077870519e+00 8.5311212972810608e+00 1.7004702555979354e+00 -2 -1 1
2872 1 3.8687072246618337e+00 8.1053795783107283e+00 1.2035105234746915e+00 -1 0 0
952 1 5.2312700005660790e+00 8.9912379396488245e+00 3.3787859768160340e+00 -1 1 1
957 1 8.4587812762156496e+00 6.1509363268807125e+00 1.9891534148186536e+00 0 0 1
2090 1 7.8756402761144022e+00 8.9441813928301279e+00 2.6406354482988599e+00 0 1 3
38 1 1.2555595396290309e+01 7.0119132361501695e+00 3.1697413270019141e+00 -1 0 0
2983 1 1.5024454952537832e+01 6.6389580159599690e+00 2.2427068117076145e+00 0 0 4
2574 1 2.2135464383528909e+01 2.5581376755856368e+01 1.0571931782240972e+01 1 -1 1
3263 1 1.9775676004745158e+01 8.7287822414713503e+00 1.5873725343237086e+00 2 0 -2
126 1 2.2578250465632369e+01 8.7823651236654747e+00 9.6079575090819658e-01 0 2 0
1313 1 2.4071908143366588e+01 9.4027737441207311e+00 2.8737158966667722e+00 -1 0 0
2349 1 8.8210717675688632e-01 1.1040344640091725e+01 2.3714822533236175e+00 1 -1 0
3564 1 3.1387766622938544e+00 1.2295362856179212e+01 2.0007484454049758e+00 1 -1 1
3647 1 2.3802251362664939e-01 9.5654769330067102e-01 6.7757879322240411e-01 1 2 4
2603 1 1.2545375669473104e+01 1.1092095129196277e+01 1.4217687468362479e+00 0 1 -2
3589 1 1.5261670571978977e+01 1.0788312799008541e+01 7.7526611326216366e-01 1 1 0
1076 1 1.6810132064834573e+01 1.1821128539718323e+01 2.6142198109196553e+00 1 2 0
2254 1 1.9524933611877561e+01 1.1428753201113706e+01 2.1385551710749899e+00 0 1 2
3275 1 2.3426955888242230e+01 1.1866920359941830e+01 3.5601442887616579e+00 0 -3 0
1386 1 2.7605130062780709e+00 1.5009882712833511e+01 2.6265023919781463e+00 -1 1 1
2193 1 8.0589850321522469e+00 1.2688605584209609e+01 1.0341217660481754e+00 2 0 0
3171 1 1.2019036250983618e+01 1.3438269858925123e+01 2.3173236616741031e+00 -1 0 1
3267 1 1.0144879465969007e+01 1.4268408006206970e+01 5.4324415330593046e-01 1 2 1
915 1 1.4047583258428526e+01 1.5096862592551428e+01 1.5974180408465541e+00 -1 -2 1
1269 1 3.3820263588692584e-01 1.4506344321122453e+00 1.4584554942393250e+01 1 0 -1
3316 1 1.8377168979446918e+01 1.5365590470667184e+01 2.9316852947219134e+00 -1 1 1
1413 1 1.5892441689222608e+01 1.4281644088554755e+01 3.2984902498524109e+00 1 2 -1
775 1 2.4072381163515644e+01 1.3599908655373302e+01 1.4689654471154270e+00 -1 -2 0
2034 1 2.3803777423709615e+01 1.6187177094032496e+01 1.7303389573083146e+00 1 1 0
3760 1 6.0746918788100168e-01 2.7268185236192295e+00 5.5660860220419410e+00 1 -1 0
1123 1 6.8967626064650656e+00 1.6767964109581239e+01 2.0394664831765681e+00 1 -1 0
3369 1 9.3135498404707207e+00 1.6692700122568304e+01 1.1440925152743420e+00 1 1 1
3195 1 1.0760412993888199e+01 1.7717739188678966e+01 3.2414221593291286e+00 2 1 -1
2492 1 1.3540852236566462e+01 1.7636161532287876e+01 2.3245613238314173e+00 3 1 1
2255 1 7.5719207117679865e-01 6.9454694185886723e+00 4.0695279480511264e+00 2 0 1
777 1 1.3054310986953782e+01 6.1821820508672232e-01 1.1354653065536969e+01 -1 -1 2
1687 1 2.5949741055321174e+00 1.9126628182010325e+01 1.0780414925290647e+00 0 1 1
3052 1 3.8354617133815094e+00 2.0382301751980215e+01 3.4865804025158140e+00 1 0 3
1459 1 3.7436739367594296e-01 2.0979548905844656e+01 1.3309538391014861e+01 2 -1 -3
1959 1 6.1018848004213897e+00 1.9388383227159910e+01 2.1677100663598048e+00 2 1 1
1796 1 1.1181904922416084e+01 2.1392065514692845e+01 1.5072104910696706e+00 -2 -1 2
681 1 1.3678059291070650e+01 2.1497221453499876e+01 9.0146291529388334e-01 0 -3 1
1978 1 1.5447441786937738e+01 2.2115788903751902e+01 2.7481997190473808e+00 -1 0 1
3377 1 1.8208720078168241e+01 1.9542984748151348e+01 1.6656295297099188e+00 -1 2 2
434 1 1.7964554421660765e+01 2.2242546650592352e+01 1.8984921477154719e+00 2 -1 0
271 1 2.1093185232501636e+01 1.9507966186849096e+01 9.0441641545432472e-01 0 -1 -1
3021 1 2.1461122549686880e+01 1.7029652448342965e+01 5.9580103210233071e-01 1 -1 -1
1888 1 2.2827403696954782e+01 2.0060160066555021e+01 2.9725128241014467e+00 3 1 1
3717 1 7.6790124806763405e-01 2.4312889738796567e+01 1.6089720093503717e+00 1 1 1
1132 1 3.5099558114410594e+00 2.4703892406309979e+01 9.2288729904355504e-01 3 0 3
1936 1 6.4184154725364362e+00 2.3531294533955169e+01 7.8331438026599420e-01 1 2 1
3329 1 7.9473453399442020e+00 2.4101320938599443e+01 2.9391045344650584e+00 -1 1 0
3628 1 1.0467141889889493e+01 2.4049895594721185e+01 1.9706241876604089e+00 -2 -1 2
3599 1 4.2092755816701057e+00 4.7987466262790797e+00 1.6934561274895223e+01 2 0 -1
786 1 1.5286953878354444e+01 2.4696187034616610e+01 3.1087310924664582e+00 1 1 1
3680 1 2.2421706955942856e+01 2.2651438483134520e+01 3.1634538044457119e+00 1 0 -1
1004 1 2.2900163290336017e+01 2.3733327474631174e+01 9.9408841941075921e-01 -1 0 2
2549 1 6.3182369240982377e+00 2.0697192565237984e+01 1.6425452847489083e+01 3 -1 0
1910 1 3.8257560912320038e-01 2.5169112033093370e+01 1.1463146558091891e+01 -1 0 -1
3419 1 1.1705105287724480e+00 2.4342310295227009e+01 1.5976612774133374e+01 1 0 -3
3449 1 5.3403399001530385e+00 1.1388432921565450e+00 6.5058287674187021e+00 1 1 2
913 1 7.7554078646204578e+00 9.3520020859324704e-01 5.6708822274760333e+00 1 1 -1
4081 1 1.2778137038035535e+01 2.8267894431688574e+00 4.8305625528266489e+00 1 -1 2
3857 1 1.5692119744398900e+01 2.5853892407764483e+00 3.8148700247102747e+00 0 0 0
1200 1 3.1071311985932337e+00 1.6416084914038457e+01 4.0304329825935781e-01 -1 -1 1
3154 1 1.9812362353643557e+01 7.6774757087334622e-01 4.9715000329708126e+00 0 -1 1
374 1 2.5118829907051094e+01 1.4617648250447324e+00 3.7612177070358874e+00 -1 -1 2
766 1 2.3976184833182160e+01 1.4679474479076795e+00 6.2069637032076299e+00 -1 2 3
806 1 5.3837387133979488e+00 5.0910657391373189e+00 4.9467139958658120e+00 0 0 0
142 1 4.8511865622762729e+00 3.5666060288032342e+00 7.0925547037724090e+00 1 1 0
218 1 8.1131166410267390e+00 4.7187052276607826e+00 4.2963187579421849e+00 -3 -2 1
2613 1 9.6156813907357570e+00 5.6762899802232321e+00 6.2162195045738695e+00 1 -1 -1
1726 1 1.1927695143609679e+01 5.2516708733473818e+00 5.2245185913005860e+00 0 0 -1
2629 1 1.9363133629400533e+01 3.3047622757620836e+00 5.3300225721516750e+00 -1 -1 0
431 1 1.6183363710372372e+01 5.9040718961200840e+00 6.6235350645555640e+00 2 -1 0
3297 1 1.6559761669745306e+01 3.2558038533252240e+00 6.1412682890954189e+00 -1 1 1
1510 1 2.4138384769751784e+01 5.4994151950532162e+00 4.6618160781379974e+00 -2 1 1
1404 1 2.3562446955829085e+01 4.0529381739407828e+00 6.8594434867734790e+00 1 -1 2
948 1 1.7730168072439731e+01 2.2558853842521252e+01 1.5593533628761186e+01 0 -1 2
1382 1 1.9253415636943216e+00 7.5976842292761786e+00 6.3672689571127474e+00 -2 0 0
412 1 4.6278167246377686e+00 7.7366697220510394e+00 5.7199030392195853e+00 2 1 -1
2192 1 9.0426050057939307e+00 8.2480612176085195e+00 6.9708950517905341e+00 0 1 -3
549 1 1.6576359150854124e+01 7.5141011347747968e+00 4.5371863848135980e+00 -2 0 1
2768 1 1.9233454196378297e+01 7.2901445301012844e+00 3.9461898012573600e+00 1 3 3
2828 1 2.1068867060189465e+01 8.3832839532351251e+00 5.8389127800840601e+00 1 0 -1
2750 1 2.3541996310124436e+01 8.0013233746272903e+00 5.1151406009812126e+00 1 0 2
2785 1 1.6313003719723975e+00 1.0249403676785407e+01 6.7526992919132232e+00 1 1 1
2058 1 4.9319452687633953e+00 1.1611971851258684e+01 3.8541302488915652e+00 2 0 -2
408 1 3.6829305594414565e+00 1.1573204627422555e+01 6.2118793816584841e+00 2 0 0
1919 1 9.0985191141943513e+00 1.2214433613566827e+01 5.1663500865146492e+00 -1 -1 2
3753 1 9.5399859808716858e+00 9.5538265321586042e+00 4.5816974442542842e+00 0 0 3
517 1 1.1947872082163618e+01 9.7739619090916641e+00 3.6396153394024542e+00 0 0 3
3107 1 1.3830286663040026e+01 1.0208174972184601e+01 5.9557632412292625e+00 1 1 -1
2817 1 1.6143180830346559e+01 1.0253334285560518e+01 4.9910644251608556e+00 0 2 1
2965 1 2.0954389575392110e+01 1.2197684515566705e+01 4.4617546221040119e+00 2 1 2
3394 1 2.0315973120457471e+01 1.0710678914649261e+01 6.6258157296251490e+00 1 1 1
1771 1 2.5036634595052767e+01 1.3219836252439265e+01 5.4654404836218031e+00 0 0 2
3006 1 4.2241815615695950e+00 1.5688021556487081e+01 4.8499362732002558e+00 1 -1 1
2173 1 3.7786349743449592e+00 1.4278950711017284e+01 7.0000648021497245e+00 2 -1 1
1696 1 6.6997578720285267e+00 1.5662620750105665e+01 4.4687532778032937e+00 0 0 0
2939 1 7.1069895015552893e+00 1.3079739744266240e+01 3.6753927291148680e+00 3 1 1
3893 1 1.1279364893503812e+01 1.3602733247720540e+01 5.0363061112995400e+00 3 1 1
1520 1 1.0888625220124121e+01 1.6332089085354710e+01 5.4828274898527978e+00 -1 1 0
1782 1 1.3021200903618764e+01 1.2560367547653177e+01 6.7557586563784291e+00 0 -1 1
1998 1 1.5374922022619211e+01 1.4287298091058915e+01 6.1422453147643896e+00 -1 0 -1
443 1 2.0398483047085250e+01 1.4547454044717583e+01 4.7462788189629013e+00 -1 -1 1
1778 1 2.4262920264935481e+01 1.5670351197819061e+01 6.0649200671727579e+00 0 1 1
2670 1 9.7025383386417852e-01 1.8844960110604770e+01 5.7193446042422131e+00 1 1 -1
3213 1 3.5594265829116498e+00 1.8366173695514444e+01 5.3577053050578591e+00 -2 0 -1
1024 1 8.3557052872276500e+00 1.6503568869009033e+01 6.2808619189526942e+00 1 1 -1
2727 1 7.6907311849109830e+00 1.9103021381975317e+01 6.6717504637911551e+00 1 2 1
2952 1 1.5355823020749426e+01 1.8270302284720518e+01 4.4216150577302891e+00 -1 0 0
2779 1 1.4896079470359172e+01 1.6829086245611744e+01 6.9289332865113753e+00 0 -2 3
2026 1 1.8110677805877053e+01 1.7972194425198058e+01 3.7152244531616478e+00 -1 2 1
3436 1 1.9695908451737143e+01 1.8760305559426236e+01 5.5162291005100812e+00 1 1 0
4061 1 2.2214617158370345e+01 1.8565125346307017e+01 4.7571941157876969e+00 -1 1 2
1555 1 2.2417458127623267e+01 1.6145535955770466e+01 4.1007465518326152e+00 0 0 1
1078 1 2.3808815950698513e+01 1.9758958232408801e+01 6.8912049364311176e+00 1 1 -2
1924 1 2.2994221004333895e+00 1.5568289815479517e+01 1.6632223984777461e+01 0 1 -1
394 1 7.7891532037844273e+00 2.0426122800686130e+01 4.2702146335056614e+00 0 1 2
1867 1 1.0225407839119081e+01 2.0264355274317968e+01 3.7780889854651178e+00 -2 0 1
2401 1 1.2265902001060301e+01 2.1105794330379357e+01 5.5648098060327644e+00 0 -2 -1
1650 1 1.4899652341495424e+01 2.0686269296721878e+01 4.9430240876997544e+00 0 -1 1
672 1 1.6517114319756043e+01 2.1398817878561484e+01 6.9218459964184085e+00 -1 0 -1
2161 1 1.9126090491965936e+01 2.1157524922556881e+01 6.1482492103770463e+00 1 1 0
1218 1 1.7155886258677455e+00 2.4125552688469607e+01 4.4192919773247388e+00 0 -2 -1
144 1 4.1811670290072476e+00 2.3515396677786566e+01 3.5340532588258227e+00 0 1 1
1193 1 5.0632321939562823e+00 2.3344301668218073e+01 6.1887058861402577e+00 3 -1 2
1834 1 7.5703351816424540e+00 2.2880353536001238e+01 5.1188516312309247e+00 -1 0 1
2449 1 1.2440452275094117e+01 2.4877353943202024e+01 3.8273967088334118e+00 1 -1 4
1300 1 1.2087714524057111e+01 2.3466379632103649e+01 6.1595367194926389e+00 1 0 0
3416 1 1.5130477590561568e+01 2.2316850882070632e+01 1.5350712046804773e+01 -3 -1 0
1480 1 8.6116952422971877e+00 2.2267564024015712e+01 1.5890342527581218e+01 0 2 1
3325 1 1.9620813883473396e+01 2.2520911423877134e+01 4.0528445396098283e+00 -1 0 0
1038 1 2.3937162383613519e+01 2.3522545447433473e+01 5.2464618440109039e+00 -2 1 1
3089 1 1.5796426890633830e+00 1.8995516330698914e+00 9.8104271719308471e+00 2 0 2
922 1 9.6277561372641056e+00 1.3626782149102461e+00 7.5944588951183638e+00 1 1 -1
2550 1 1.2252126241346025e+01 1.2457184666380092e+00 6.8057580188919573e+00 -1 1 0
3580 1 1.3689309125359829e+01 1.9651033782924294e+00 8.9990761798601291e+00 1 1 -2
2454 1 1.6114279109908409e+01 1.8696708247221450e+00 8.3256186820758646e+00 -1 1 1
3201 1 2.0258152677812507e+01 2.7048393192455613e+00 9.3990951608980247e+00 1 -1 0
1799 1 1.1163847944427314e+01 1.8586431854778581e+01 1.7156708332594633e+01 0 0 -1
487 1 2.2443162101121805e+00 3.5064538083952579e+00 7.4940748480524508e+00 0 0 1
879 1 1.7440101914691097e+00 5.9146870792268214e+00 8.4932304495011177e+00 2 0 -2
292 1 6.7683004739861925e+00 4.3995907009772282e+00 9.1052183851702164e+00 -2 0 0
3807 1 9.4199266696126376e+00 3.9769803255210796e+00 8.4142625834663427e+00 0 0 0
1178 1 1.3104796178997431e+01 4.6255203726169638e+00 9.5907456992250335e+00 0 1 -1
3770 1 1.3482898221256297e+01 6.0312472212961774e+00 7.3522631914001391e+00 2 2 -1
2803 1 2.0820814286243333e+01 4.2246131206816075e+00 7.3442251742457296e+00 1 -1 1
43 1 2.5360657825180372e+01 4.8647427305077819e+00 8.7235381485121586e+00 -1 -1 1
797 1 3.3031393255842039e+00 7.0115741288933222e+00 1.0333813098758590e+01 -2 0 0
1501 1 6.1135199556103794e+00 7.0530359336261839e+00 9.7353230451848187e+00 0 1 2
3184 1 6.2647811100676947e+00 8.5502139762142377e+00 7.4753325875001986e+00 1 1 -2
1711 1 1.0346630781518250e+01 9.0581973271482124e+00 9.0066479730219360e+00 -2 3 1
3689 1 1.2914429772537304e+01 8.6349793556785475e+00 8.1482796539515796e+00 -1 1 1
2214 1 1.4920187227514763e+01 9.2499305688233555e+00 1.0165565479069446e+01 1 0 0
799 1 1.7923751535391592e+01 6.7249831343869628e+00 8.7871079475155813e+00 -1 -1 2
246 1 1.7431317717152048e+01 9.3298385613007557e+00 9.4936651624279005e+00 1 0 0
2577 1 2.0866611608437562e+01 6.8446738305832087e+00 8.2361206010804437e+00 0 1 0
3987 1 2.1941540717752289e+01 7.7065261200423585e+00 1.0306558298701555e+01 1 1 0
2980 1 2.4996931601968026e+01 8.8717985114630533e+00 7.0932352915045076e+00 0 0 2
3896 1 2.4602924263841945e+01 7.3912859837400697e+00 9.0540318037398162e+00 2 0 1
2655 1 9.8145568937092265e-01 1.0597890617498395e+01 9.4198415657524741e+00 1 2 -1
3510 1 5.7311521927629139e+00 1.0977126206207600e+01 8.0259806803876010e+00 1 1 2
536 1 8.0479935292863320e+00 1.2552388207467393e+01 7.7240823734509263e+00 2 -1 2
1596 1 1.0105036319259980e+01 1.1908706771420803e+01 9.6077682471091652e+00 1 0 -2
1006 1 1.7783700312221359e+01 1.0881276297295686e+01 7.3107611368876402e+00 2 -1 0
3182 1 2.1854364116572434e+01 1.1536970345465219e+01 8.4584261763491284e+00 1 -2 0
3145 1 2.4549994479849683e+01 1.1149534886022465e+01 7.6433417400606407e+00 -1 1 1
2866 1 1.1129329840171840e+00 1.4969493233051514e+01 7.3466412925967637e+00 0 2 1
2913 1 1.8983274277835761e+01 2.4241362579400082e+01 1.3656212389410427e+01 1 0 1
881 1 5.1368122497093331e+00 1.5366962023022792e+01 9.0705552204699504e+00 2 0 0
2902 1 7.8122616205244721e+00 1.5017722751406113e+01 8.3239885684506447e+00 1 4 0
1756 1 9.2690603475943316e+00 1.5704258257813443e+01 1.0551896235533524e+01 2 0 0
2942 1 1.2389662968508491e+01 1.2874770692046575e+01 9.1948170735416443e+00 1 0 1
2258 1 1.1663749074168473e+01 1.5245406498461378e+01 9.9329360483581866e+00 -1 -1 -2
429 1 1.7117479055005404e+01 1.3325706518825179e+01 7.7912213704340392e+00 1 1 0
482 1 1.9547307643578542e+01 1.4661335418748640e+01 7.3529528654317717e+00 1 0 0
2512 1 2.1419470515955080e+01 1.4170027775659934e+01 8.9994499339651082e+00 -1 -1 2
1923 1 2.3772686962467017e+01 1.5556635064981586e+01 8.8078926256889396e+00 0 1 -1
2350 1 1.8750405380356010e+01 1.4563212849406535e+00 5.7872791673852153e-01 0 0 0
321 1 2.5114566502295858e+01 6.9191631996657332e-01 1.0223851564920382e+01 -1 0 -1
532 1 4.4453591427643193e+00 1.7831718927246438e+01 9.7443733730370763e+00 1 -1 -1
2511 1 4.9913229872068507e+00 1.9156178210058979e+01 7.5384590228603248e+00 -2 -1 1
1791 1 1.2241020964315920e+01 1.7057216101841860e+01 7.9516430198374746e+00 1 0 1
1623 1 1.6757259900025208e+01 1.7741882219362040e+01 8.9731787018532430e+00 0 1 0
424 1 1.9168288078348326e+01 1.7070409987228469e+01 8.0306878666788997e+00 1 1 0
3407 1 2.0709729644278820e+01 1.8067225112326994e+01 1.0125905021744607e+01 0 1 0
340 1 2.3431034058570301e+01 1.8243180451192600e+01 9.3423399377314844e+00 0 0 1
296 1 5.3799338103872758e+00 2.1716543573372668e+01 8.3515818780900091e+00 1 1 -2
307 1 9.0784517949482808e+00 1.9975111085287811e+01 8.8060110926776005e+00 -1 0 -1
2264 1 8.0599135358230249e+00 2.2352712890352873e+01 9.0392446088702023e+00 0 0 -1
45 1 1.1610801749122398e+01 1.9679452140297929e+01 7.7570031749091113e+00 1 0 -2
844 1 1.3351395960355777e+01 2.0513250879017793e+01 9.8756736131428866e+00 1 1 1
3274 1 1.6142172896313685e+01 2.0159632920073189e+01 9.3085061450654027e+00 0 1 2
3481 1 2.0820476667117493e+01 2.1829843165288850e+01 8.1800298057183145e+00 1 1 2
3670 1 2.3390460466630742e+01 2.2237764401304833e+01 7.7194383756096991e+00 1 2 1
3296 1 9.5996336572055885e+00 2.3943179606960577e+01 7.5500107165769519e+00 3 -2 0
1642 1 1.3819087916538200e+01 2.3956799095247220e+01 8.2969455787502344e+00 1 1 0
4096 1 1.6451228076783654e+01 2.3950441338672402e+01 7.5518484474894931e+00 0 2 1
107 1 1.8355037398338979e+01 2.4723227590361191e+01 9.3874542122132727e+00 0 0 0
1177 1 2.0864532366431895e+01 2.4502251046341065e+01 8.4917481546208577e+00 1 0 0
2795 1 1.3945256456647353e+01 1.8070777270918434e+01 1.6432348329091351e+01 1 -2 0
2561 1 2.5056116186005120e+01 2.3611419354488852e+01 9.4775452996177041e+00 -1 0 -1
2753 1 5.3464455757598262e-01 1.7561111598577657e+01 8.3362932027685641e+00 -1 2 0
3985 1 3.0461828176241661e+00 2.9250729937450375e+00 1.1466189530780733e+01 0 0 1
1847 1 5.8687661243965250e+00 2.6756080731385441e+00 1.1179441164532122e+01 0 2 3
2375 1 1.0623393898261277e+01 1.0387638403574182e+00 1.1947778160063505e+01 0 -2 0
3918 1 1.6842868576844115e+01 2.5512253540125773e+01 5.2773740289365545e+00 0 1 1
1435 1 1.4666501296353417e+01 1.4153984257193919e+00 1.3338576173468269e+01 -2 1 0
2380 1 1.7460757477083725e+01 2.9742842490381594e+00 1.0351307625967666e+01 2 1 -1
1769 1 1.7382001317124516e+01 1.5151003649127077e+00 1.2457514328749923e+01 1 1 0
2412 1 8.7163830205050168e+00 1.0282383924090398e+01 4.8417291420014791e-01 0 0 0
1221 1 3.0402687127175105e+00 5.6620864971180156e+00 1.2398622696980382e+01 0 1 0
4074 1 1.2140158995949683e+01 2.3512145080694268e+01 1.4322979841938304e+01 2 1 -1
2359 1 7.4921324202918802e+00 3.5495697927532737e+00 1.3228335161518281e+01 -1 -1 0
179 1 1.0537736777163396e+01 5.1943304589900734e+00 1.0369227143502199e+01 0 1 0
843 1 9.9566348486260186e+00 3.5121421309888756e+00 1.2485909129193750e+01 1 0 -1
283 1 1.4769080291775522e+01 5.6762664410071402e+00 1.1778235987559540e+01 1 2 -1
2299 1 1.7160158750376361e+01 5.4335047302442439e+00 1.0925786347602138e+01 1 -1 1
1039 1 2.1440860532255062e+01 6.1687136775345079e+00 1.2454537846656017e+01 -3 0 -1
389 1 2.1878658017593455e+01 3.6773627745871540e+00 1.1506282546124678e+01 -2 1 -1
2818 1 2.4569088490023439e+01 3.4489568300455566e+00 1.0842384672421325e+01 0 0 0
162 1 2.9818508495891556e+00 9.3051419058512117e+00 1.1118950321975792e+01 -1 1 2
3480 1 7.4569264598211538e+00 8.0994715693068109e+00 1.1981744493206472e+01 -1 0 0
2540 1 1.0276334842348801e+01 7.5471526781543981e+00 1.1179216834053303e+01 2 0 1
3186 1 1.1464060364627725e+01 8.7528795429659567e+00 1.3140145828767396e+01 0 0 1
967 1 1.4250284395699390e+01 8.1760582306387342e+00 1.2388927427859125e+01 0 -2 -2
123 1 1.8783233351588827e+01 6.2962201129230611e+00 1.3008302693959283e+01 2 -1 -1
3747 1 1.8241521249481085e+01 9.0949219805297190e+00 1.3521420875465298e+01 2 -1 0
1945 1 2.1369319518887941e+01 2.0043230299650752e+01 1.4500740156881774e+01 -1 0 1
3682 1 1.9737921226139219e+00 9.7536853828407057e+00 1.3734063416300152e+01 0 1 3
3716 1 5.1254621363149564e+00 1.1204742715860950e+01 1.0561339041914270e+01 1 -1 1
2853 1 6.9553736205238383e+00 1.0500101010266631e+01 1.2065012134040016e+01 1 -2 0
3920 1 9.1723471223148962e+00 1.1882554101786273e+01 1.2161413266328731e+01 0 3 1
794 1 1.1299221231744326e+01 1.1271159376304633e+01 1.3909887822975012e+01 0 2 1
1898 1 1.4324561856869231e+01 1.1940153355634294e+01 1.0721936947481078e+01 0 4 2
589 1 1.3703030809521252e+01 1.2466077312663149e+01 1.3257265428252401e+01 1 -1 1
3095 1 1.8759934076587257e+01 1.0460506027464934e+01 1.1464671069698310e+01 1 -1 -3
2842 1 1.8510703186399265e+01 1.2985471033759667e+01 1.1966390194233185e+01 2 -1 1
223 1 2.1374715368705374e+01 1.0270507086623802e+01 1.0828890333099084e+01 2 1 1
1626 1 2.3104837627419272e+01 1.0876807028270546e+01 1.2881795050433503e+01 -1 -2 -1
1079 1 1.9481716628948064e+01 2.5183785185350384e+01 4.5956085421488941e+00 0 2 -1
409 1 1.8953578808311415e+00 1.4180447999511747e+01 1.1791056546043626e+01 2 1 1
1342 1 4.6084249227428797e+00 1.3717968824890990e+01 1.1280910901250360e+01 0 0 0
1011 1 6.0238535809904743e+00 1.4414367166691232e+01 1.3518586656375467e+01 2 -1 0
1310 1 8.5582313862825181e+00 1.4578839347476386e+01 1.2855607747501670e+01 -2 0 -1
1856 1 1.6512904674661918e+01 1.3518707951874534e+01 1.0368192090202687e+01 1 0 3
3138 1 2.0726815027592625e+01 1.4273293592586434e+01 1.1590064076563463e+01 1 -1 -1
3961 1 2.2401610468526421e+01 1.3511138998258636e+01 1.3435887986503616e+01 0 1 0
460 1 2.4778397002002446e+01 1.5033168692619203e+01 1.3068123222624541e+01 -1 1 1
2277 1 1.9273814280051051e+00 1.8202302042583547e+01 1.0351183775487721e+01 1 0 2
2081 1 1.3463053140576351e+00 1.6845218375852774e+01 1.2331057928273495e+01 2 0 -1
2657 1 5.8978042615635546e+00 1.8623628401772393e+01 1.1896012978106718e+01 2 -2 -1
4084 1 8.5918339130309871e+00 1.8355853381392553e+01 1.1046886957903574e+01 -1 1 0
1638 1 1.2712839108590421e+01 1.9254991582487428e+01 1.2190294991452166e+01 0 1 2
3007 1 1.3366198706410819e+01 1.6698744570607762e+01 1.1528908333098993e+01 1 -2 2
1410 1 1.5986800370633764e+01 1.6131557491072051e+01 1.0835966240043124e+01 0 0 1
3555 1 1.7605175958278295e+01 1.7039851393076631e+01 1.2911594415832793e+01 1 -1 1
3703 1 2.0267431336270516e+01 1.6724028300038515e+01 1.2449450349508759e+01 0 0 -1
2546 1 2.4855553447094593e+01 1.8953306999804678e+01 1.1439385812876807e+01 -1 0 -3
2460 1 2.4424858492845594e+01 1.7524395248103552e+01 1.3818422023446905e+01 1 -1 0
3783 1 1.4269121291844313e+00 2.0819794915448195e+01 1.0524154143178054e+01 2 2 -1
477 1 3.7770584505606992e+00 2.2498318567707617e+01 1.0348902070521683e+01 -1 -1 1
4072 1 5.4801424141197108e+00 2.1611073196740989e+01 1.2204806699439024e+01 0 2 1
3193 1 9.9329277833516159e+00 1.9405335339009252e+01 1.2994561118225036e+01 2 -1 0
1064 1 1.6978350088747575e+01 1.9535649641642532e+01 1.3629781540896351e+01 -3 1 0
262 1 1.7568312652157353e+01 2.0808507373670722e+01 1.1535932791621821e+01 0 -1 1
1067 1 2.0018245258171490e+01 2.0583108108629872e+01 1.0539036991879517e+01 1 0 0
3926 1 2.1958355286273981e+01 2.1182692957510902e+01 1.2094299774400097e+01 -1 -1 0
328 1 2.5134044227903146e+01 2.1798709454606403e+01 1.1597496292521964e+01 1 -1 -1
287 1 1.4517875281310449e+01 1.9745367694172032e+01 1.4292297275044138e+01 0 1 -2
3502 1 3.1763799626077396e+00 2.5146330580713883e+01 1.0834249891802486e+01 0 -1 -1
3207 1 3.7244914377787888e+00 2.4252859147695240e+01 1.5455398546918929e+01 1 3 -1
1723 1 4.1380974603756053e+00 2.1656346735052452e+01 1.4731556467195972e+01 0 0 3
1511 1 7.8882250109948506e+00 2.3019696911301640e+01 1.1604206880139451e+01 -1 -1 0
1947 1 1.2997592436928059e+01 2.3135959950514994e+01 1.0785140636795125e+01 1 -1 -1
2104 1 1.0671651479416598e+01 2.4532011397208560e+01 1.1225870765667755e+01 3 0 0
2328 1 1.4985614739028158e+01 2.4014799823349946e+01 1.2589808541042913e+01 1 1 0
1852 1 1.7427269356986749e+01 2.3440561170420388e+01 1.1526416950680963e+01 0 2 1
868 1 2.1444305136345847e+01 2.3744127046705280e+01 1.2794234257476338e+01 2 -3 1
3875 1 2.9753953227881471e+00 1.4310379301292275e+00 1.4113280855983975e+01 2 -1 1
196 1 5.0195114415181266e+00 1.9671328097301117e+00 1.6390508006236377e+01 0 1 1
1230 1 7.4475870129358777e+00 1.8302356554709533e+00 1.5215215415276441e+01 0 0 1
898 1 1.2926647011097561e+01 7.7817794752981255e+00 1.7072175584611909e+01 -1 1 0
3110 1 1.8478193269727420e+01 7.6442838081644704e-01 1.6753975988068404e+01 0 2 0
3406 1 1.8993708483992798e+01 2.4722198433489129e+00 1.4609845874783961e+01 0 0 -3
1656 1 1.8685502791323131e+01 2.0032079714302437e+01 1.5351668473597337e+01 2 -1 5
181 1 2.1457933794614345e+01 2.2151196303617531e+00 1.3823163956223022e+01 0 0 -1
3811 1 2.2967525458215725e+01 2.8132184572359131e+00 1.6051475409994467e+01 1 0 1
2611 1 7.6553918112267203e+00 2.4779784461357892e+01 1.6514001427266265e+01 2 -3 -1
1165 1 4.6845081936318849e+00 6.5398500629004053e+00 1.4682495584766970e+01 -1 -1 0
2415 1 7.1082603895750625e+00 6.2660083095479351e+00 1.3971207061825709e+01 -1 0 1
2373 1 1.1740327607269476e+01 4.5081034436046989e+00 1.4379108357462949e+01 1 0 0
1827 1 1.4409412851893331e+01 4.0242704016669526e+00 1.3704804279838370e+01 0 0 -1
883 1 1.5550638735068176e+01 4.8890227365387506e+00 1.6036244122699507e+01 -3 0 -1
1904 1 1.8237535058393721e+01 4.7742331337423396e+00 1.5194061505133197e+01 1 0 0
1023 1 2.2758667092018076e+01 5.1945527258597117e+00 1.6681631580257225e+01 -1 2 -2
736 1 4.1760885488120021e+00 9.0409508295548928e+00 1.5582497840675529e+01 2 -1 2
1774 1 8.4946111501021822e+00 7.2504313313499651e+00 1.5929817370187706e+01 0 2 0
416 1 1.1298279849779288e+01 6.9910455261245463e+00 1.5234743888659247e+01 -1 2 1
863 1 1.5537568064162096e+01 7.3515190642407680e+00 1.6668917180702348e+01 -1 1 0
1798 1 1.5663658913776711e+01 9.0417645754361633e+00 1.4472274586980838e+01 -1 1 0
1911 1 1.9814319131626146e+01 9.6914514543943913e+00 1.5820397064039359e+01 -2 1 -2
3484 1 2.2540915660695600e+01 9.2822879954895008e+00 1.4998267839855547e+01 -1 0 0
1718 1 2.3173147744395663e+01 6.6323811212023038e+00 1.4405886545157253e+01 0 1 1
2538 1 1.2193998392216321e+00 1.2414990435459650e+01 1.4035779260674069e+01 3 1 2
2263 1 5.8018386726675510e+00 1.0711208942564019e+01 1.4609575896643408e+01 0 -1 0
3718 1 7.7624672772111429e+00 9.7963801635479637e+00 1.6386494354449358e+01 1 0 -1
1578 1 1.0296821822253818e+01 1.1025835499249812e+01 1.6406298561920579e+01 0 0 1
1307 1 1.5204739603904773e+01 1.1620015420757650e+01 1.5173474521280296e+01 0 2 1
1366 1 1.9476724421025430e+01 1.2364125305957753e+01 1.6234582681264705e+01 0 1 1
3469 1 1.1268268936121876e+01 2.7572790773589930e+00 1.6651571374898619e+01 3 0 0
3730 1 1.3261451036558543e+00 1.3802186482900489e-01 5.1827201951136352e+00 1 1 1
3990 1 2.9124537684972878e+00 1.3155052832749170e+01 1.6049937540685796e+01 -1 2 2
3561 1 5.4743673547838121e+00 1.2934424929610611e+01 1.5469915994513398e+01 2 0 -1
298 1 9.4609353008194947e+00 1.3563940574995483e+01 1.6864036494226934e+01 0 1 2
4022 1 1.0326055112678374e+01 1.5223579893766086e+01 1.4780421445110210e+01 0 1 3
720 1 1.3119813868726377e+01 1.5059033449725245e+01 1.3872879280401053e+01 1 1 1
3768 1 1.4377403832765131e+01 1.5341175131760981e+01 1.5973376991952701e+01 0 1 2
1352 1 1.7544369751227507e+01 1.3227114816377044e+01 1.4529779226468358e+01 2 -3 -2
3311 1 1.6982618113896045e+01 1.5713815537866557e+01 1.5419667955138207e+01 0 1 1
3414 1 2.1682761485686022e+01 1.3702264320193839e+01 1.6030437893294444e+01 0 1 -3
1933 1 9.8495091767302636e+00 2.2052680865918113e+01 1.3460062539593364e+01 1 -1 -2
3785 1 2.6922933131530580e+00 1.7451915647644384e+01 1.4615939981044994e+01 1 -1 2
1125 1 5.1860284737056324e+00 1.7076724343966948e+01 1.3817705654331888e+01 -1 0 0
2898 1 7.0344918156854845e+00 1.8011731654237916e+01 1.5844015122873062e+01 0 1 2
3385 1 9.5171112168547669e+00 1.7837047612080323e+01 1.5163478354465573e+01 0 0 2
3941 1 1.9144419471489094e+01 1.5336849884016560e+01 4.1480049379630662e-01 0 -1 -2
1762 1 2.1201551075634487e+01 1.6255003911108016e+01 1.6694409341565315e+01 1 -1 0
3368 1 2.1876664316521083e+01 1.7401725547014227e+01 1.4351291974733737e+01 0 2 -1
3693 1 2.1171699134900632e+00 2.0031535190299870e+01 1.5171833318841928e+01 1 2 0
315 1 6.6376580882406024e+00 3.9049685759531000e-01 1.0505179294053692e+01 -1 0 -1
3833 1 6.8089733156800385e+00 2.5426787102561274e+01 1.2405719783339675e+01 1 1 1
1049 1 1.1536915610313848e+01 4.3721711553236314e-01 1.6246911639106475e+01 3 2 -2
3699 1 2.5487179774861257e+01 2.0165178917014430e+01 2.1550314754549968e+00 1 0 1
553 1 4.4504600518880916e-01 5.6288662850770610e+00 1.3059326441528675e+01 1 -2 -1
1044 1 3.4756582102639377e-01 1.3188488118713543e+01 9.6317674093817391e+00 2 -2 -1
1941 1 8.5576762882881163e-01 2.1679580027734470e+01 6.2683463443825858e+00 1 0 -1
2725 1 2.5555083749055374e+01 2.7528877533818510e+00 1.5289915023499120e+01 2 -1 -2
854 1 2.5601464495590793e+01 1.0720348365509654e+01 1.1959946355049826e+01 -2 -1 2
2093 1 2.5533453851625556e+01 1.4759270423076860e+01 1.0403877165454331e+01 0 1 0