LAMMPS data file via write_data, version 7 Aug 2019, timestep = 200000

4098 atoms
1 atom types

2.4102847955257189e-01 5.1178971520448457e+01 xlo xhi
2.4102847955257189e-01 5.1178971520448457e+01 ylo yhi
2.4102847955257189e-01 5.1178971520448457e+01 zlo zhi

Masses

1 18.15

Atoms # atomic

1 1 3.8365022581496269e+00 9.5861534719139785e-01 2.8772608403091144e+00 0 0 0
967 1 8.3445109629439838e+00 2.5367799582023416e+00 2.0699286596325859e+00 0 0 1
2918 1 1.0655331554213339e+01 1.8707876352930786e+00 3.6362453020957144e+00 1 0 1
674 1 1.2783812547153945e+01 3.8358290922060423e+00 4.0333487682481204e+00 0 0 1
7 1 1.4862851438061721e+01 2.0513565081379443e+00 2.2435158307550851e+00 0 0 0
1558 1 1.7173294349431686e+01 1.2512728068447720e+00 3.0686543564052793e-01 0 1 0
633 1 2.0718599207393982e+01 1.9740413177573597e+01 1.4042936189286525e+01 0 0 0
1553 1 2.2420393732596210e+01 2.8948584163893711e+00 5.4378089761653758e-01 0 1 0
540 1 2.0349527774988712e+01 5.1128785045400582e-01 1.1680525261954154e+01 0 0 0
479 1 2.8538155443847795e+00 3.4397529488680778e+00 1.5676027889355102e+00 0 0 0
1126 1 1.5323458052998207e+01 2.4336557537065467e+01 5.6222656921412755e+00 0 0 0
3139 1 8.2334856211391667e+00 6.3523102657597237e+00 4.0759661190320280e+00 1 1 0
1516 1 5.3199183196417739e+00 6.1969838848704066e+00 4.1914882691312911e+00 0 1 0
3378 1 1.0325535815685718e+01 6.6421061094652023e+00 1.7178865424835528e+00 1 0 0
2401 1 1.2986389667051144e+01 5.9638549795421563e+00 1.9914634357237133e+00 0 0 0
2336 1 1.8534971004251666e+01 2.2274724019978674e+01 1.1301559168327715e+00 1 0 0
3838 1 2.3936554547541178e+01 5.9105161546189100e+00 1.6646108226374765e+00 0 1 1
72 1 1.6500661250603407e+01 7.2651088393426000e-01 1.3244761214763722e+01 1 0 0
3235 1 3.5301236185563063e+00 8.2813215744724804e+00 3.9716508118335052e+00 1 1 0
939 1 4.5036001865997779e+00 5.4649448754910397e+00 1.7248202441003397e+00 0 0 1
3419 1 8.1396665724302109e-01 1.3468706267829333e+01 1.3607603862952947e+01 1 0 0
1730 1 1.4429304345868832e+01 2.4336054230127971e+01 1.0138233488407415e+01 0 0 1
492 1 9.0785307687922767e+00 1.1676847872839605e+01 1.8251579949855856e+00 1 0 0
3143 1 1.9522602921174109e+01 1.5099513372234248e+00 3.6021745269559871e+00 0 0 0
3216 1 1.5610746585708281e+01 6.8351810895295895e+00 2.0297681429641248e+00 0 0 0
1956 1 1.4543135413355534e+01 8.9774425350387812e+00 3.1977238428329260e+00 0 1 1
867 1 2.2921516470354266e+01 9.9355321863651067e+00 2.3398720646984978e+00 0 0 1
1992 1 2.2187930291580901e+01 2.0471839780419732e+01 1.1968662246838950e+00 0 0 1
2942 1 2.9856131224523135e+00 1.3690178779513118e+01 6.2380199947090809e+00 1 0 1
3932 1 7.6725966201356304e+00 5.2923771610050281e+00 1.4835545947280271e+00 1 1 1
768 1 1.9337457533921633e+01 1.1243105373101230e+01 1.6782137914014250e+01 0 0 0
1124 1 1.7544269077728856e+01 1.7623375632991201e+00 5.5037162456071256e+00 0 1 0
2397 1 1.9560330388509804e+01 1.0746302674408379e+00 1.6395481500146023e+01 1 0 0
343 1 1.1067098840801370e+01 9.8174240585935184e+00 2.8402255062281196e+00 0 0 0
3989 1 8.7380823682476927e-01 1.6142329558827321e+01 4.9305954331509474e+00 1 1 1
985 1 1.7171591058636917e+01 1.2562138733885668e+01 1.5821244080207639e+00 0 0 1
1829 1 1.9782377459049734e+01 8.3509044298990212e+00 8.3333836352857860e-01 0 1 1
2177 1 2.4616389740989153e+01 1.2291821777570972e+01 2.3687089318408439e+00 0 0 0
2278 1 1.3172627935279143e+01 1.0734897697965802e+00 7.0516632085566089e+00 0 0 0
3437 1 3.4561550162089905e+00 1.5266358474641704e+01 3.7104558570574748e+00 1 0 0
4013 1 8.4654078321181903e+00 1.4013532806783697e+01 3.5254409273760183e+00 1 1 1
137 1 8.5828475136789493e+00 2.5480111465113040e+01 4.7494565550815215e+00 0 0 0
1000 1 1.6584752871107778e+01 1.4914112866253866e+01 2.4606534874384893e+00 0 0 1
853 1 1.9854936424229106e+01 1.3074724600659980e+01 6.4820230472955220e-01 0 0 1
2762 1 2.1218078820678421e+01 1.3522944482916342e+01 3.2880052382058902e+00 0 0 0
2174 1 2.3746897349293466e+01 1.4151786506546005e+01 4.0449806366016645e+00 0 0 0
928 1 2.5066605619852712e+01 1.6771343879848597e+01 3.8000394912556721e+00 0 0 1
2977 1 3.5444967228351545e+00 1.7948782207214151e+01 2.0823697111970829e+00 1 0 1
242 1 2.4226643701626838e+01 1.1879060474699397e+01 1.2830886494976065e+01 0 0 0
301 1 1.0104190613577064e+01 1.7018219833032244e+01 2.7155451467877998e+00 0 0 0
158 1 2.9033707929124830e-01 1.9859745273058671e+01 1.3973359826045582e+01 1 0 0
2878 1 1.2470883037399114e+01 1.6387096719888625e+01 1.5319199153255636e+00 1 0 1
1240 1 1.1622140824370126e+01 1.9184656527819410e+01 3.9591743274072324e+00 0 0 0
2584 1 1.3988383614535447e+01 1.5712367905389257e+01 3.5770081903735598e+00 1 0 0
2672 1 1.8710791386123212e+01 1.8333459669758788e+01 3.3680901527607254e+00 0 0 1
2248 1 1.7835958690225304e+01 1.6804294700432230e+01 1.1917509120253851e+00 0 0 0
1842 1 2.0602541770705503e+01 1.6147962010148348e+01 4.4088438253700399e+00 0 0 1
477 1 2.3738666578301775e+01 1.9266015392219817e+01 3.3416477331088053e+00 0 0 0
2240 1 2.3657274233859122e+00 2.2262571687157003e+01 3.9070087986762663e+00 1 0 1
402 1 5.1562437609943244e+00 2.2384212989023595e+01 1.6646726583472897e+00 0 0 0
113 1 1.4127599396619356e+01 1.8104107011198117e+01 4.7997995617320584e+00 0 0 0
80 1 1.6127774370437173e+01 2.1189461955674066e+01 1.7354213175820739e+00 0 0 0
2794 1 2.0024335116204814e+01 2.0483313067796381e+01 2.7116985371979334e+00 0 0 1
1138 1 1.0166271859573559e+01 5.6487631312492614e-01 1.6167603478026056e+01 0 1 0
165 1 1.1566798852984745e+01 2.1452182307918314e+01 2.4562477575064645e+00 0 0 0
859 1 9.9768059663291608e-01 3.2513363453455293e+00 9.7687720413443859e+00 0 0 1
2992 1 1.0575011458037546e+01 1.1337097214243834e+00 6.4903775062363644e+00 1 0 1
2585 1 2.8703012940570455e-01 5.5107185133421321e+00 1.5921929854296927e+01 1 0 0
3359 1 2.4897811806213223e+01 9.3738710841780595e+00 4.7564280101820220e+00 0 1 1
4084 1 1.3466712383029977e+01 2.5042375335149892e+01 1.7838394932947412e+00 0 0 0
1983 1 1.8902654121678541e+01 2.4683642549184395e+01 2.4339388195198808e+00 0 0 1
1980 1 2.0731268301561563e+01 2.1657485585284519e+01 5.0424502415658923e+00 0 0 1
159 1 2.2938481289113778e+01 2.3170182797170050e+01 3.9485105155057707e+00 0 0 0
197 1 1.1931456052988429e+01 2.5254935995781658e+01 1.6800531549068015e+01 0 0 0
3044 1 6.5149953138361294e+00 1.9930099815550686e+00 4.4090470921245517e+00 0 0 1
2232 1 6.0714534901157720e+00 9.5743287365010090e+00 4.6067002708221305e-01 1 0 0
1898 1 9.4119085757630181e+00 7.0657442601474574e-01 9.3772603605563472e+00 0 1 1
2618 1 1.5612462308969254e+01 3.6302230045090651e+00 4.7138440684109906e+00 1 0 1
1963 1 2.0278789480484789e+01 1.5952488978169677e+01 4.9110119252388312e-01 0 0 1
67 1 1.3762521980134549e+01 2.5469427203642866e+01 1.4441426630964905e+01 0 0 0
2021 1 2.1190003481173239e+01 3.7797324091030498e+00 2.9995813028255145e+00 0 1 1
4062 1 1.8906657080592451e+00 3.2982745995785394e+00 5.7780733461545726e+00 1 1 1
2414 1 4.6496060572544975e+00 4.0832022315986611e+00 5.6933328616771224e+00 1 0 1
3272 1 8.6297393539160669e+00 3.3388831401321983e+00 5.9649030727377177e+00 0 1 0
96 1 1.1461744781240851e+01 5.3998762749448170e+00 7.9385619291485057e+00 0 0 0
1387 1 1.7105312241067129e+01 5.7067861736670160e+00 4.3782327752971995e+00 0 1 0
3495 1 1.8810179967630670e+01 5.2055798408184284e+00 2.3860745412034494e+00 0 1 0
1341 1 9.8068301825261783e-01 4.3254010732812453e+00 3.2302397331648547e+00 1 1 0
316 1 2.2664045253051686e+01 4.8688586644342182e+00 4.7309340749579158e+00 0 0 0
3302 1 1.3863241965231023e+01 2.2348835113310294e+01 7.9890888114245207e-01 0 0 0
1619 1 3.7634297684934288e+00 6.4330780525539462e+00 7.4474036773712919e+00 0 1 1
92 1 3.4252812444373406e+00 9.1783663656175118e+00 6.8306533480408005e+00 0 0 0
1428 1 8.0683416896064415e+00 8.8596694169339738e+00 7.6362833818679858e+00 0 1 0
2033 1 6.6266688528598712e+00 1.0509511974326779e+01 3.1697721122732680e+00 0 1 1
2051 1 8.6699240732605549e+00 8.9545661066780298e+00 4.4848191563912803e+00 1 0 0
3226 1 1.0797979388135285e+01 5.5704996235367465e+00 5.2253069242694972e+00 0 1 0
24 1 1.2309004654891654e+01 7.9232999891416913e+00 4.9946244840493090e+00 0 0 0
1502 1 1.8504093427463189e+01 8.3903191984254253e+00 5.7810199004765943e+00 -1 1 1
2206 1 2.1166016070425417e+01 8.9901344056306485e+00 5.0979476506288712e+00 0 0 0
2990 1 2.1929027894818201e+01 6.5177870725069313e+00 6.8640371497869230e+00 0 0 1
926 1 2.5387630285047209e+01 1.8915797337643895e+01 9.7125922644732494e+00 0 0 0
2212 1 3.6233042396016759e+00 1.1008190232848023e+01 3.1382693559587715e+00 1 0 0
1002 1 7.3928807009594708e+00 1.2160925997195424e+01 5.7144436470650337e+00 0 0 1
50 1 1.0677597992837628e+01 9.8173561109684542e+00 6.5926963480104659e+00 0 0 0
539 1 1.4655304602090840e+01 1.1903274901402238e+01 3.1131411691167967e+00 0 0 0
3127 1 1.8057673056731051e+01 9.8113742544254308e+00 2.8453035287082851e+00 0 1 0
2295 1 2.0888617430412051e+01 7.5317251582383458e+00 9.6662704335266110e+00 1 0 0
2316 1 2.2760451178341921e+01 1.1417451250509172e+01 5.5531634498551430e+00 0 0 0
1335 1 3.8329504182858836e+00 1.4989450805229646e+01 8.6130623223125511e+00 0 1 0
2751 1 1.7336316783245174e+00 1.1387454262918329e+01 5.0919641989149591e+00 1 0 0
395 1 5.8808155021779500e+00 1.5770028207227993e+01 4.2575125615976521e+00 0 0 0
614 1 7.9178247778362278e+00 1.5832891718754015e+01 7.6328457662643796e+00 0 0 0
3690 1 1.0830284258386312e+01 1.3819647563278872e+01 4.7335523901085441e+00 1 0 0
198 1 9.8136334039509698e+00 1.6423535334418183e+01 5.9188211568094982e+00 0 0 0
186 1 1.2139663360283910e+01 1.2807188982852598e+01 2.4962703696065875e+00 0 0 0
3058 1 1.5019973854733594e+01 1.3853111819777556e+01 5.7485197557980063e+00 0 0 1
489 1 1.7436839769614206e+01 1.5536486507158898e+01 5.3010287729952212e+00 0 0 0
877 1 1.9456816105227457e+01 1.1393154697959215e+01 4.3985874209953399e+00 0 0 1
4054 1 2.5156454867645028e+01 1.4384426620719667e+01 6.4011969694570903e+00 0 1 1
1274 1 3.1772930603642831e+00 1.9439584057529899e+01 4.8792925155875881e+00 0 0 0
2340 1 1.8227929119877007e+01 2.4603935225721138e+01 1.4297932383697901e+01 0 0 0
894 1 6.0457658316071345e+00 1.8389993812133643e+01 4.8843587349584787e+00 0 0 1
70 1 1.3667856507599772e+01 1.7580762044678494e+01 7.3758990211522590e+00 0 0 0
3990 1 1.6379702380122254e+01 1.7079264428947010e+01 8.0725438995505545e+00 0 1 1
3171 1 2.1891946933738208e+01 1.7996246508890430e+01 6.2304408528760176e+00 0 1 0
988 1 7.2330522234770767e-01 2.4502395751562759e+01 4.9500502430691524e+00 0 0 1
3773 1 3.4405851938306640e+00 2.2140247213897840e+01 8.6963749026387180e+00 1 0 1
3444 1 8.8178020988229129e+00 2.1172570553855913e+01 6.8833035852183313e+00 1 0 0
1287 1 6.3734811357827530e+00 2.1992208143349217e+01 6.3850261446233079e+00 0 0 0
321 1 8.6196489534143890e+00 1.9753052583535016e+01 4.6583393360080523e+00 0 0 0
1739 1 1.0667345724213277e+01 2.3216527742654581e+01 7.2590724818375882e+00 0 0 0
1858 1 1.2518219219445038e+01 2.1125840432399805e+01 7.3513653147287279e+00 0 0 1
3905 1 1.5864977398165010e+01 2.0428720517815101e+01 4.2882727927609059e+00 1 0 1
1350 1 1.7512664634954678e+01 1.8410215047135228e+01 5.6820033453497443e+00 0 0 0
199 1 1.9724081848670590e+01 1.9691716754934962e+01 6.9299338100881887e+00 0 0 0
2511 1 2.3450185700882511e+01 2.0485131578705460e+01 6.2902557433735744e+00 0 0 0
3088 1 2.1401905156747386e+01 2.5537939073852943e+01 2.8665885972819831e+00 1 0 0
3409 1 2.3664156243212560e+01 1.0566226368802898e+01 1.7125319743360460e+01 0 1 1
190 1 6.5078272059033111e+00 2.3201616916648621e+01 3.9768939571034259e+00 0 0 0
1247 1 1.0637450395749223e+01 2.4133633207520859e+01 4.7711160257253322e+00 0 1 0
2120 1 1.3480226151661752e+01 2.2024363123911581e+01 4.6943744210505196e+00 1 0 0
1198 1 1.9188128637842549e+01 2.3722684593382393e+01 5.1181895622857425e+00 0 0 0
3808 1 1.7171074821799039e+01 2.2336421968218602e+01 6.4050147882732125e+00 1 0 1
408 1 2.4121000440802485e+00 2.5432098195983553e+01 1.8556600398618577e+00 0 0 0
2260 1 2.5122869909687566e+01 1.6497837599322519e+01 1.1211321158550462e+01 0 0 0
1037 1 1.8101132056127827e+00 1.3961403587290753e+00 7.8261475273646166e+00 1 0 1
1348 1 4.2970399708225786e+00 4.0585130841456412e+00 1.0475296632991256e+01 0 0 0
2628 1 4.1318539464741697e+00 1.1031393484754488e+00 9.2372426943361532e+00 1 0 1
1431 1 1.7006286986602543e+01 2.3997423753378921e+01 1.1023499515709730e+01 0 0 0
2307 1 2.2766439460145307e+01 1.6868065569003154e+01 1.8344203398799686e+00 0 0 0
4085 1 2.2437175561995339e+01 7.2176076090491970e-01 9.3004510562980141e+00 0 1 1
1902 1 1.3616915957426144e+01 3.5754418580548633e+00 7.3303606566851753e+00 0 1 1
3193 1 1.5341267205830555e+01 3.5786009867975501e+00 9.3099683585034096e+00 0 1 0
1224 1 1.7190628676601001e+01 1.6987567584551659e+00 9.0623900955798931e+00 0 1 0
2752 1 9.0819154429915141e+00 2.2332796654714645e+01 3.0124268804637260e+00 1 0 0
3430 1 7.3460839762093428e+00 1.8986941684554598e+01 1.5529956478414196e+01 1 0 0
229 1 5.3018161735657143e+00 6.1662557113787457e+00 9.4401673974146583e+00 0 0 0
3004 1 6.6861760366767111e+00 3.9502494257519967e+00 7.8149082452404892e+00 1 0 1
2263 1 9.2278766398913543e+00 4.4860871786232481e+00 9.2079683510280574e+00 1 0 0
155 1 7.9760738657518919e+00 6.8047964954200815e+00 9.4893825205957700e+00 0 0 0
2879 1 1.1768785649287238e+01 7.4264757719741912e+00 9.6806275004163052e+00 1 0 1
1250 1 1.8911975621578296e+01 5.7882994895798818e+00 6.8382741972824421e+00 0 1 0
1836 1 1.9408573201641321e+01 3.0533642054018233e+00 7.1829021318201622e+00 0 1 1
1922 1 2.2204611344415454e+01 2.8976764515034144e+00 6.5226509224470490e+00 0 1 1
3097 1 1.2757909448485696e+00 5.5313031550296179e+00 7.6493718014504628e+00 1 1 0
2290 1 5.7760619781418008e+00 1.0597431856764507e+01 7.5643725208429933e+00 1 0 0
2239 1 8.2264134487287421e+00 1.0873232416962550e+01 9.7552130593800399e+00 1 0 0
432 1 1.0798358219793974e+01 9.7470969011001252e+00 1.0408265279021050e+01 0 1 0
2436 1 1.4245854511657379e+01 8.1038742884307222e+00 7.4320401541634951e+00 1 0 0
181 1 1.6109379039803464e+01 9.6908503351762612e+00 5.6877527559841434e+00 0 0 0
2089 1 2.3428971017760187e+01 6.4455079918271760e+00 9.6497167107735695e+00 0 0 0
3153 1 3.6365481386325369e+00 9.5911733488587025e-01 1.5409672987873417e+01 1 1 0
3762 1 5.0549523511181684e+00 1.2566356630815740e+01 9.1482722639810294e+00 1 1 1
2369 1 6.1750126598196511e+00 1.4225852456235941e+01 6.5045911336451612e+00 1 0 0
156 1 9.9058463104352246e+00 1.2376064477781059e+01 6.9185966702690411e+00 0 0 0
2770 1 1.2850717548444813e+01 1.0669502971367901e+01 8.5664610346207954e+00 1 0 1
373 1 1.5143897626521454e+01 1.1198256597490984e+01 1.0125616343983072e+01 0 0 0
1453 1 1.8635181346374633e+01 1.1273203365173879e+01 7.2077984706654075e+00 0 1 0
3288 1 2.2145196440852811e+01 1.3075285189603164e+01 9.2689733592045727e+00 1 0 0
2244 1 2.4071934117643760e+01 1.2327814534143865e+01 7.6333414520022611e+00 0 0 0
1347 1 2.3267490010704988e+00 9.1256917953293275e+00 9.3597630358823452e+00 0 0 0
3915 1 6.7595577490758716e+00 1.4246166336603519e+01 1.0736343516340298e+01 1 1 1
3873 1 8.9001339730554747e+00 1.3789798216165631e+01 9.2966916535721893e+00 0 0 1
951 1 1.2085002098572909e+01 1.3667498076573464e+01 8.7064011759505178e+00 0 0 1
806 1 1.2679297710900526e+01 1.5351003974467591e+01 6.8378276188190634e+00 0 0 1
354 1 1.6074524269677291e+01 1.2622445977257575e+01 8.0298979843808382e+00 0 0 0
2210 1 1.7680924105861653e+01 1.4479104193496262e+01 8.8763808124043955e+00 0 0 0
356 1 1.9432390449080781e+01 1.4530044447903176e+01 6.8935757745828496e+00 0 0 0
3015 1 2.8592620966589686e+00 1.6997090242013151e+01 1.0877672117885918e+01 1 0 1
2333 1 6.2453088869589397e+00 1.8181946127731351e+01 8.3195712143383442e+00 1 0 0
3455 1 8.1646281540258681e+00 2.0011971022709403e+01 9.0599094315949564e+00 1 0 0
1400 1 1.0991843226475384e+01 1.8861677955913414e+01 7.0592273636337559e+00 0 0 0
1508 1 1.0831335489921107e+01 1.9137729024796538e+01 1.0187397385268111e+01 0 0 0
94 1 1.6973433234457953e+01 1.8570860399673162e+01 1.0216800921433581e+01 0 0 0
175 1 1.7439324503511958e+01 1.7156651500173275e+01 1.2363988378192538e+01 0 0 0
1913 1 2.1522186833309206e+01 1.6068292843506761e+01 8.1196719409389164e+00 0 0 1
1904 1 2.1406998941353791e+01 1.8217246004113928e+01 9.9475722792765779e+00 0 0 1
1307 1 2.4187067574862901e+01 1.5956767790831480e+01 8.1553786303592766e+00 0 1 0
2364 1 2.4764414480276372e+01 1.7663909419559840e+00 7.0160732530499450e+00 0 0 0
122 1 4.5883003505279998e+00 1.9925420500287984e+01 7.1744301163524318e+00 0 0 0
2663 1 2.7258458333090143e+00 2.1756399562283466e+01 1.1431014124520605e+01 1 0 0
3416 1 8.3499155597257673e+00 2.2215250689642414e+01 1.0705061057171372e+01 0 0 0
509 1 1.4882790949859826e+01 2.1843800132902729e+01 8.8223964949180509e+00 0 0 0
1262 1 1.4586813240337237e+01 2.0015354709599965e+01 1.1007792215402194e+01 0 0 0
1007 1 1.9125364272824463e+01 2.0119777108899424e+01 9.7935712562635810e+00 0 0 1
1916 1 2.4519138970752472e+01 2.2398904129956474e+01 1.7554010291964779e+00 0 0 1
2373 1 2.3049794501482150e+01 2.0068615063763811e+01 9.0118229168821813e+00 0 0 0
864 1 2.1945183267700195e+00 2.4578121201859371e+01 7.9034553818021553e+00 0 0 1
3401 1 6.3407662077748999e+00 2.3455967522208077e+01 8.8912504058423725e+00 0 0 0
1793 1 1.0173834034101297e+01 2.4467638222233887e+01 9.7179278610124626e+00 0 0 1
508 1 4.1170770591424366e-01 1.7119386536953602e+01 2.3656895119262145e+00 0 0 0
1349 1 1.8153986151567793e+01 2.2642502971119615e+01 9.1638496613009970e+00 0 0 0
146 1 2.3865072461512028e+01 2.3530876920633251e+01 6.9236303356650053e+00 0 0 0
2014 1 8.9333699150854713e+00 2.3915505559658218e+01 5.5939936277401037e-01 0 0 1
3335 1 4.0586807063778441e+00 2.4275517645523514e+01 1.4596813589280233e+01 1 0 0
1753 1 2.9339127735408184e+00 1.6436666482564359e+00 1.2296611783476456e+01 1 1 1
1792 1 1.0485782327855564e+01 2.3042092274956939e+01 1.5173680323524170e+01 0 0 0
3959 1 8.9257164922910786e+00 2.8257557089044494e+00 1.1001238282779935e+01 1 1 1
3254 1 1.3675106479956106e+01 2.7765515680893973e+00 1.1509352306736028e+01 0 1 0
3285 1 2.6201375989725224e+00 1.3657906469204045e+01 1.4977087339893274e+00 1 0 0
3781 1 1.8303785486641608e+01 2.1166507226158879e+00 1.1480560169432746e+01 0 1 1
3576 1 2.2513606154855218e+01 3.7868344186772731e+00 1.3070313217554046e+01 0 1 0
1600 1 3.1327477797890459e+00 7.3383113489774248e+00 1.3150993112353850e+01 0 1 0
3382 1 2.1159838589645217e+00 4.7996042825255829e+00 1.2037925069168715e+01 1 1 0
797 1 6.2962610901372162e+00 2.9356375179591900e+00 1.2013303617733468e+01 0 1 1
2197 1 7.2145436291526117e+00 4.9879727347410743e+00 1.3490728817729357e+01 0 0 0
1098 1 1.1302440415077969e+01 3.7862900499519547e+00 1.2532895039475031e+01 0 1 0
631 1 1.6801107041169008e+01 6.1988181619160780e+00 8.6149454014724682e+00 0 0 0
35 1 1.5109848660563529e+01 6.2155612930599959e+00 1.1695815213223160e+01 0 0 0
32 1 2.0504800082070147e+01 4.0976153583231625e+00 1.0927287007266237e+01 0 1 0
1713 1 1.1744195847163765e+00 9.5077949476768744e+00 1.3603128848786724e+01 0 1 1
2452 1 4.4660009051314153e+00 8.1809930377972968e+00 1.1078954743140464e+01 1 0 0
731 1 6.5540520068052555e+00 9.8561840078497163e+00 1.1843134616345120e+01 1 0 0
2583 1 7.9782910537197225e+00 7.2714265637174753e+00 1.2114879304786131e+01 1 0 0
174 1 1.2438058855954701e+01 6.4881314512674741e+00 1.1904305937033278e+01 0 0 0
1385 1 1.6050307414017958e+01 8.4708039509938224e+00 9.8918153427249500e+00 0 1 0
2495 1 1.8695042788650770e+01 9.5745931927002221e+00 9.9491588868973970e+00 1 0 0
648 1 1.8871429029235010e+01 6.1802969015267619e+00 1.0575967896696705e+01 0 0 0
3436 1 2.3750967025266775e+01 7.4928944337581305e+00 1.3704425200783449e+01 0 1 0
2059 1 2.2143060463068231e+01 9.7546890627898453e+00 1.3149270260195227e+01 0 0 0
579 1 2.5341622097940974e+01 7.5652446061590766e+00 1.1227438008765542e+01 0 0 0
2549 1 2.7091788279259519e+00 1.1711827856093793e+01 1.0396029266447876e+01 1 0 0
2620 1 2.8171234952853106e+00 1.1611222542613463e+01 1.3227251970108181e+01 1 0 0
2773 1 3.8962842875348533e+00 1.2636108389754236e+01 1.5550302443092768e+01 1 0 0
2322 1 7.3358248774929882e+00 1.2882686613580244e+01 1.3094098472411138e+01 1 0 0
1058 1 1.0981671962565228e+01 1.0382151882941615e+01 1.3251295221746441e+01 0 1 0
2426 1 1.3885850291059715e+01 1.0389292481609459e+01 1.3761820627836267e+01 1 0 0
2915 1 1.4413238754708596e+01 1.2638030301338622e+01 1.2370485878215538e+01 1 0 1
3480 1 1.9181810302029913e+01 1.2141169860219756e+01 1.0225322304902612e+01 0 1 0
1245 1 2.2229842551092130e+01 1.0192067272169814e+01 1.0035785131152565e+01 0 1 0
770 1 4.3587965645716853e+00 2.5028121281498766e+01 4.0428769681280201e+00 0 -1 1
2126 1 2.8494151192570960e-01 8.6578143324919099e-01 1.2606341094426796e+01 1 0 0
2931 1 1.6740351001783093e+01 3.3449032320018240e-01 1.6109804768045603e+01 0 0 1
1148 1 3.1663884422574839e+00 1.7155466985001333e+01 1.5154063579542388e+01 0 0 0
2734 1 5.6974585957334405e+00 1.6963757940218102e+01 1.0710127594267144e+01 1 0 0
366 1 1.0201206561088467e+01 1.4842752524131184e+01 1.1521222786358837e+01 0 0 0
3562 1 8.0211775540632395e+00 1.4694066262411344e+01 1.6794464975725997e+01 1 0 0
1665 1 1.3081055847698485e+01 1.5255418755915006e+01 1.1248873829198599e+01 0 0 0
655 1 1.6989540314153864e+01 1.3043874663612250e+01 1.3496173200245556e+01 0 0 0
1135 1 1.8564853373753493e+01 1.4721045713490911e+01 1.1874364591885609e+01 0 1 0
2119 1 2.1361691338285588e+01 1.5106280190996292e+01 1.3066433709840805e+01 1 0 0
2121 1 2.3668438473344231e+01 1.4366479283429493e+01 1.1625950336021074e+01 0 0 0
3571 1 8.2570899627459426e-01 1.8348452563954140e+01 6.3129347727002738e+00 1 0 0
3350 1 1.5609847503000369e+00 1.9391941451006918e+01 9.5235573518755547e+00 0 0 0
3215 1 7.4738493655896372e+00 1.8762280238049740e+01 1.2212262682209644e+01 0 0 0
2246 1 1.0872177109680191e+01 1.7773923842221652e+01 1.4802567388197195e+01 1 0 0
3584 1 9.7210982271935507e+00 1.7520814870397292e+01 1.2044118684840743e+01 1 0 0
76 1 1.3309219063078841e+01 1.7834574561835815e+01 1.0180228399499196e+01 0 0 0
2662 1 1.5128852482626957e+01 1.6056476564762285e+01 1.3232477218025005e+01 1 0 0
202 1 2.2093476238214631e+01 1.7562122899357153e+01 1.2775763937056924e+01 0 0 0
2788 1 2.1590064331216158e+01 8.8863689278151059e-01 5.1517995328025536e+00 1 0 1
163 1 2.4832115310198617e+01 1.8010435160157105e+01 1.3579850814859121e+01 0 0 0
914 1 2.0402481563046130e+01 2.4183716314344984e+01 9.0870941699081254e+00 0 0 0
1346 1 7.8494068285442467e+00 2.1039884255733348e+01 1.3240587902854820e+01 0 -1 0
3185 1 7.4162472813691904e+00 2.2934427698109705e+01 1.5413698609924939e+01 1 0 0
1293 1 1.2336388587275939e+01 2.0861435017485018e+01 1.2297124928339162e+01 0 0 0
2076 1 1.1807432418243646e+01 2.0491567705532432e+01 1.4935108369778222e+01 1 0 0
1258 1 1.6283850709434486e+01 2.0405269515232952e+01 1.4049727027623213e+01 0 0 0
161 1 1.4125027844027928e+01 2.0832509911234641e+01 1.5828646688973684e+01 0 0 0
1365 1 1.8246271331938630e+01 1.8775793219162107e+01 1.4816631095283306e+01 0 0 0
2305 1 2.0261176836288385e+01 2.1219387030160988e+01 1.1951928918636282e+01 0 0 0
1255 1 2.5081106992137133e+01 3.4936371625628535e+00 1.2499716944618726e+01 0 1 0
1016 1 2.2246957833821124e+01 2.2660384639693820e+01 1.0294856145368817e+01 0 0 1
69 1 2.1518792505560288e+01 1.2255554484517002e+00 1.3878059630273420e+01 0 0 0
3093 1 2.0249643629578138e+01 3.7765910067105750e+00 1.6066359765489103e+01 0 1 0
3234 1 2.0539425884787108e+00 2.4457860307603415e+01 1.2445893159888145e+01 1 0 0
1215 1 6.6756816734339841e+00 2.5157924739501052e+01 1.4401786428994908e+01 0 0 0
2943 1 2.8798590254260992e-01 1.0352727876238340e+01 7.1619234269658447e+00 1 0 0
1388 1 1.4069268186709120e+01 3.4920976760455774e-01 1.2939541613991468e+01 0 1 0
1246 1 1.2134869302518714e+01 2.3425724129828499e+01 1.1173389689039183e+01 0 0 0
1079 1 1.7997984732448757e+01 2.2208232813799221e+01 1.2840079129482925e+01 0 1 0
577 1 6.2897468947161705e-01 3.3413936733784149e+00 1.4187358876083744e+01 0 0 0
2916 1 1.2046538880859776e+00 6.9134082460000688e+00 4.8496481546435906e+00 1 0 1
4 1 2.2370072648440196e+01 3.6194774812983042e+00 9.2497041244656764e+00 0 0 0
101 1 7.3620507366027548e+00 1.6674107859703302e+00 1.5916188536414802e+01 0 0 0
1170 1 1.0320271542647760e+01 3.1436858873050060e+00 1.4850160626008918e+01 0 1 0
215 1 1.1226627268696014e+01 2.4749088422253671e+01 1.3157629107654520e+01 0 0 0
619 1 1.9956468667347174e+01 7.3769450860498802e+00 1.6948501792316087e+01 0 0 0
2398 1 6.8521904657856423e+00 1.0976372052738039e+00 8.3000666665435219e+00 1 0 0
2774 1 8.3866693376217292e+00 1.5046594963419960e+01 6.8690281377436979e-01 1 0 1
488 1 1.6813989234874487e+01 1.7204573994596661e+01 1.6930764742646261e+01 0 0 0
1493 1 2.5509686792691134e+01 5.3015018675043386e+00 4.8263501569534322e+00 0 0 0
2286 1 9.1160023412845148e-01 1.4879259329276245e+01 8.8315862558747380e+00 1 0 0
2054 1 5.2513088456486896e+00 6.6718755570084909e+00 1.4938593744440315e+01 1 0 0
2110 1 8.2877158987988455e+00 4.5320365034939760e+00 1.5909264817361196e+01 1 0 0
2226 1 1.5524603915640718e+01 2.9857365323179059e+00 1.5526039873684283e+01 1 0 0
251 1 1.2686395689637433e+01 3.8475061266587169e+00 1.6070271563584495e+01 0 0 0
1160 1 1.8754375879026668e+01 6.3335499065367484e+00 1.3753789156428253e+01 0 1 0
787 1 1.6922988517482825e+01 4.2670382279019590e+00 1.3058943900681657e+01 0 0 0
1208 1 9.1586663719600256e+00 8.8877115720251219e+00 1.6295459008233458e+01 0 1 0
3330 1 2.1783816647587315e+01 5.5991824794631295e+00 1.4530583301394040e+01 0 1 0
3655 1 6.7284630403140255e+00 9.1222777538595370e+00 1.4995591687832860e+01 1 1 0
369 1 1.0242265707585313e+01 7.8636905930546384e+00 1.3566027475982761e+01 1 0 0
1519 1 1.2291445637119596e+00 1.4679361411097152e+00 1.6039184795429918e+01 0 1 0
294 1 1.2290924558588278e+01 6.2564155267593407e+00 1.5532245054329593e+01 0 0 0
160 1 1.4850140676746053e+01 7.6174592056394905e+00 1.4144124125528165e+01 0 0 0
828 1 1.7138256332537797e+01 6.7645710474816916e+00 1.5856734549849401e+01 0 0 1
188 1 1.9230996478336873e+01 9.2203094626300413e+00 1.2731049181762836e+01 0 0 0
3297 1 1.6452937548384632e+01 9.2784627847318344e+00 1.6776362639726244e+01 1 0 0
439 1 6.8635468835640889e-01 9.9639751756540544e+00 1.6297227655106209e+01 0 0 0
1480 1 9.8513755916912054e+00 6.5219332677847399e+00 1.7156205597378243e+01 0 1 0
510 1 5.0579560794445531e+00 1.0767045987653999e+01 1.6449058124555407e+01 0 0 0
1474 1 1.0161687617675096e+01 1.2905895468966071e+01 1.3407291475885629e+01 0 1 0
201 1 1.0790254089718477e+01 1.0929430759096075e+01 1.6499541342352352e+01 0 0 0
341 1 1.3617207328402161e+01 1.0948868316410413e+01 1.6549813118692359e+01 0 0 0
2692 1 1.9051365309612913e+00 9.1576228459883637e+00 1.4533767000862052e+00 1 0 0
1248 1 1.7540718253660142e+01 1.0560393208734279e+01 1.4627954159121032e+01 0 1 0
2593 1 2.1692771004327707e+01 1.1342535705750349e+01 1.5317045891000745e+01 0 0 0
261 1 2.3511772441406961e+01 2.5143629290205403e+01 1.1234548079919474e+01 0 0 0
2175 1 6.0456598959982744e+00 7.9039382017359749e-01 1.3348085343202186e+01 0 0 0
97 1 5.8166666123777846e+00 1.4480275400299249e+01 1.4970915017615832e+01 0 0 0
3373 1 2.4688445733405885e+01 7.3096148103684824e+00 7.0705843065243341e+00 1 1 1
1161 1 1.0020670486516494e+01 1.3297458600855361e+01 1.6000278958004991e+01 0 1 0
1838 1 2.5275723309596135e+01 3.0462805868337650e+00 9.5306902644790288e+00 0 1 1
244 1 1.9197488233322977e+00 1.5909501614747484e+01 1.3176634653151551e+01 0 0 0
2348 1 1.6815647092043388e+01 1.4657353910398017e+01 1.5714729207584396e+01 1 0 0
1969 1 3.0758370633703449e+00 2.0501308572401790e+01 1.1860756076866297e+00 0 1 1
2006 1 1.2981389993448005e+01 2.5377662460174399e+01 4.6206389338796763e+00 0 0 1
54 1 2.2331039109672204e+01 1.4158570495544591e+01 1.5545281340518665e+01 0 0 0
1701 1 2.4828351411077783e+01 1.4081126864349574e+01 1.6569637650209700e+01 0 1 0
2531 1 1.6303429602304199e+01 2.4978128249732617e+01 1.6112571562794486e+01 0 0 0
176 1 3.4641114183513002e+00 2.2052705767994063e+01 1.6682220494572494e+01 0 0 0
3188 1 5.5882784397801952e+00 1.7124750445306695e+01 1.4044921802556953e+01 0 0 0
1174 1 9.2276726645531237e+00 1.7523070753131439e+01 1.7113466107305271e+01 0 0 0
3194 1 1.4442755850724241e+01 1.8528103171854895e+01 1.6829847674237861e+01 1 1 0
563 1 1.3442289382439524e+01 1.6927212746416380e+01 1.5037413685908520e+01 0 0 0
292 1 2.5592604056755182e+01 1.7962698487260880e+01 6.4777060767802892e+00 0 0 0
257 1 2.4834197976033700e+01 9.9331959052190175e+00 8.6607795959393119e+00 0 0 0
1268 1 4.6277487582093695e+00 2.0846435740925614e+01 1.3261094118151556e+01 0 0 0
893 1 2.7468999585027039e+00 1.9870991557700513e+01 1.5115713293983719e+01 0 0 0
39 1 2.1274292966660447e+01 7.4264705189852034e+00 2.7565037414464850e+00 0 0 0
3273 1 2.5436797820197004e+01 1.1247505425330417e+00 3.2665645549919695e+00 0 1 0
264 1 1.2319502224814940e+01 1.4705675214472773e+01 1.6561855202981235e+01 0 0 0
327 1 6.1852495479154017e+00 2.0922583715981425e+01 1.7105706030232472e+01 0 0 0
234 1 1.3616172924182157e+01 2.7018438819584389e-01 9.9523970493403038e+00 0 0 0
4046 1 2.4935575634664687e+01 2.0809667081183569e+00 4.4681766031043274e-01 0 1 1
949 1 5.8189156784161726e+00 1.8453641891944336e+01 4.0493789666382929e-01 0 0 1
2172 1 1.6245846145016632e+01 1.8616021386103636e+01 3.1749875895451690e-01 1 0 0
2163 1 2.5687073191348169e+01 4.5692420324556311e+00 1.6904627898489444e+01 1 0 0
1672 1 6.5123021126945027e+00 2.5473668977613780e+01 1.1213220320641190e+01 0 0 0
2227 1 2.5209306939501481e+01 2.5402702942867851e+01 4.9850708525452756e+00 0 0 0
219 1 1.4552386765289134e+01 1.3371505040022925e+01 1.6929098802725417e+01 0 0 0
567 1 4.0866446712347297e+00 7.7648492910536007e+00 3.6913536743499265e-01 0 0 0