
# Create simulation box and atoms
lattice		    sc 1
Lattice spacing in x,y,z = 1 1 1
region 		    all block 0 51.42 0 51.42 0 51.42 units box
create_box 	    1 all
Created orthogonal box = (0 0 0) to (51.42 51.42 51.42)
  2 by 2 by 3 MPI processor grid

create_atoms	1 random 4457 ${SEED} all
create_atoms	1 random 4457 31542 all
Created 4457 atoms
  create_atoms CPU = 0.000528336 secs

mass		    1 18.15

# Define potential

pair_style 	    sw
pair_coeff	    * * mW_real.sw mW
Reading potential file mW_real.sw with DATE: 2019-02-27

# Run minimization

minimize 	    1.0e-8 1.0e-8 10000 1000
WARNING: Using 'neigh_modify every 1 delay 0 check yes' setting during minimization (../min.cpp:168)
Neighbor list info ...
  update every 1 steps, delay 0 steps, check yes
  max neighbors/atom: 2000, page size: 100000
  master list distance cutoff = 6.3065
  ghost atom cutoff = 6.3065
  binsize = 3.15325, bins = 17 17 17
  1 neighbor lists, perpetual/occasional/extra = 1 0 0
  (1) pair sw, perpetual
      attributes: full, newton on
      pair build: full/bin/atomonly
      stencil: full/bin/3d
      bin: standard
Per MPI rank memory allocation (min/avg/max) = 4.224 | 4.227 | 4.229 Mbytes
Step Temp E_pair E_mol TotEng Press 
       0            0    2020485.5            0    2020485.5    1478752.5 
     710            0   -50209.899            0   -50209.899   -1151.4605 
Loop time of 1.88264 on 12 procs for 710 steps with 4457 atoms

99.5% CPU use with 12 MPI tasks x no OpenMP threads

Minimization stats:
  Stopping criterion = max force evaluations
  Energy initial, next-to-last, final = 
          2020485.4572      -50209.699919     -50209.8990971
  Force two-norm initial, final = 1.81237e+07 3.20698
  Force max component initial, final = 1.09241e+07 0.698589
  Final line search alpha, max atom move = 0.0531544 0.0371331
  Iterations, force evaluations = 710 1001

MPI task timing breakdown:
Section |  min time  |  avg time  |  max time  |%varavg| %total
---------------------------------------------------------------
Pair    | 1.3361     | 1.6219     | 1.7769     |   8.7 | 86.15
Neigh   | 0.026598   | 0.028158   | 0.029326   |   0.5 |  1.50
Comm    | 0.052954   | 0.20736    | 0.49469    |  24.5 | 11.01
Output  | 0          | 0          | 0          |   0.0 |  0.00
Modify  | 0          | 0          | 0          |   0.0 |  0.00
Other   |            | 0.02527    |            |       |  1.34

Nlocal:    371.417 ave 384 max 344 min
Histogram: 1 0 0 0 1 1 2 3 1 3
Nghost:    1074.17 ave 1095 max 1052 min
Histogram: 2 0 1 1 2 1 1 1 2 1
Neighs:    0 ave 0 max 0 min
Histogram: 12 0 0 0 0 0 0 0 0 0
FullNghs:  12034.2 ave 12730 max 10816 min
Histogram: 1 0 0 1 1 1 3 1 2 2

Total # of neighbors = 144410
Ave neighs/atom = 32.4007
Neighbor list builds = 42
Dangerous builds = 0

# Create Cavity with Hard sphere "indent" potential

region		    cavity sphere 25.71 25.71 25.71 13.8 side in
delete_atoms	    region cavity
Deleted 359 atoms, new total = 4098
fix 		    5 all indent 10.0 sphere 25.71 25.71 25.71 13.8

# Equilibration of molecular water

# Add velocity/set timestep

velocity	    all create ${TEMP} ${SEED} rot yes dist gaussian
velocity	    all create 215 ${SEED} rot yes dist gaussian
velocity	    all create 215 31542 rot yes dist gaussian
timestep	    5.0

# Define output

compute			1 all msd
thermo	    	50
thermo_style	custom step temp press vol etotal ke pe c_1[4]

# Neighbor lists

neigh_modify    delay 0 every 1 check yes

# Set fixes

fix             1 all momentum 10 linear 1 1 1 rescale
fix             2 all nve
fix             3 all temp/csvr ${TEMP} ${TEMP} 500.0 ${SEED}
fix             3 all temp/csvr 215 ${TEMP} 500.0 ${SEED}
fix             3 all temp/csvr 215 215 500.0 ${SEED}
fix             3 all temp/csvr 215 215 500.0 31542
fix             4 all press/berendsen iso ${PRES} ${PRES} 1000.0 modulus 20000
fix             4 all press/berendsen iso 1.0 ${PRES} 1000.0 modulus 20000
fix             4 all press/berendsen iso 1.0 1.0 1000.0 modulus 20000

# Run 1 ns equilibration

dump		    1 all atom 2000 ${DIR}/eq.${NAME}-${TEMP}.dump
dump		    1 all atom 2000 run_6/eq.${NAME}-${TEMP}.dump
dump		    1 all atom 2000 run_6/eq.hardcavity_freeze_6-${TEMP}.dump
dump		    1 all atom 2000 run_6/eq.hardcavity_freeze_6-215.dump

reset_timestep  0

run	            200000
Per MPI rank memory allocation (min/avg/max) = 4.488 | 4.491 | 4.494 Mbytes
Step Temp Press Volume TotEng KinEng PotEng c_1[4] 
       0          215   -342.96385    135955.32   -43007.037    2625.6614   -45632.699            0 
      50    135.41124   -186.01179    135805.73     -42441.7    1653.6934   -44095.393   0.22170773 
     100     152.2226   -164.07619     135507.9    -41994.34         1859    -43853.34   0.38678714 
     150    162.14972   -148.58036    135221.98   -41702.419    1980.2338   -43682.653   0.57748286 
     200    175.35243   -42.252069     135012.5   -41430.317    2141.4703   -43571.787   0.79677388 
     250    185.22139   -30.547432    134812.67   -41196.381    2261.9938   -43458.375   0.98618529 
     300    192.46199    49.931939     134690.2   -41089.363    2350.4187   -43439.782     1.176233 
     350    197.39742   -160.89315    134600.89   -40941.735     2410.692   -43352.427    1.4043076 
     400    197.96872   -73.158493    134436.88   -40883.529     2417.669   -43301.198    1.6082174 
     450     203.6287    3.6622554    134170.84   -40830.152    2486.7908   -43316.943    1.7743213 
     500    206.15255   -80.991362    134043.83   -40714.726     2517.613   -43232.339    1.9321332 
     550    208.93955     1.577914    133861.08   -40698.276    2551.6489   -43249.925    2.1504461 
     600    208.49906    34.297802    133858.25   -40686.552    2546.2695   -43232.821    2.2937436 
     650    207.53025   -167.01242    133850.39   -40672.476     2534.438   -43206.914    2.4732857 
     700    209.74741   -101.56531    133691.89    -40618.78    2561.5148   -43180.295    2.7064256 
     750    212.07179   -137.50811    133556.81    -40647.81    2589.9011   -43237.711    2.8834056 
     800    213.22883    -83.17518    133368.32   -40620.596    2604.0313   -43224.627    3.0581578 
     850    213.77927    24.054827    133423.79   -40617.237    2610.7534    -43227.99    3.2666382 
     900    216.08485   -39.898456    133393.43   -40648.813      2638.91   -43287.723    3.4607195 
     950     212.0932   -255.32478    133226.82   -40672.524    2590.1625   -43262.687    3.6146913 
    1000    212.88797   -77.925075    133177.86   -40631.146    2599.8685   -43231.015     3.780813 
    1050    216.56348   -96.643872     132911.8   -40576.917    2644.7553   -43221.672    3.9303543 
    1100    222.75655    24.200116    132906.89   -40555.439    2720.3874   -43275.827    4.1081704 
    1150    217.03065   -61.681206    132879.66    -40552.64    2650.4605   -43203.101    4.2957531 
    1200    216.84541   -128.72766    132644.98   -40519.986    2648.1983   -43168.184    4.5033662 
    1250    214.81393    56.621923    132561.25   -40579.145    2623.3891   -43202.534    4.6974121 
    1300    217.43987   -55.805286    132572.37   -40575.212     2655.458    -43230.67    4.9356945 
    1350     220.0871    5.0696678    132552.26   -40513.366     2687.787   -43201.153    5.1023736 
    1400    218.64637   -74.941723     132410.8   -40505.258    2670.1923    -43175.45    5.2588297 
    1450    219.78959    82.404042    132304.05   -40503.702    2684.1537   -43187.856    5.4444335 
    1500    217.16059   -4.9831474    132420.05   -40510.062    2652.0474   -43162.109    5.6355945 
    1550    218.22701    82.801543    132447.08    -40523.63    2665.0709   -43188.701    5.8334385 
    1600    221.43365   -116.89983    132386.74   -40487.583    2704.2316   -43191.815    6.0853299 
    1650    216.49992    85.535621    132420.74   -40452.529     2643.979   -43096.508      6.31027 
    1700    222.58922   -55.936391    132411.02   -40449.759    2718.3439   -43168.103    6.4523524 
    1750    214.94326   -33.262935    132314.42   -40516.081    2624.9685    -43141.05    6.5837479 
    1800    217.92791   -45.204194     132358.2   -40507.744    2661.4182   -43169.162    6.7895279 
    1850    213.57936    49.027102    132383.69   -40538.753    2608.3121   -43147.065    6.9578711 
    1900    216.35334     16.55901    132470.75   -40614.549    2642.1889   -43256.738    7.0675776 
    1950     218.5093    20.379293       132520   -40612.811    2668.5183   -43281.329    7.2354271 
    2000    218.71045   -66.743064    132387.26   -40608.574    2670.9749   -43279.549    7.4417212 
    2050     213.5059   -53.084416     132405.1   -40603.484    2607.4149   -43210.899    7.6604035 
    2100    216.21399   -35.693101    132321.12   -40519.384    2640.4871   -43159.871    7.7857932 
    2150    220.49302    -9.197281    132259.57   -40518.818    2692.7443   -43211.562    7.9273917 
    2200    218.57354   -99.052624    132296.08   -40542.146    2669.3028   -43211.449      8.03237 
    2250    215.86337   -30.180452    132222.32   -40587.988    2636.2053   -43224.193    8.1288591 
    2300    217.35164    53.245453    132371.04    -40608.43    2654.3806    -43262.81    8.2642001 
    2350    212.94695   -2.8652162    132285.97   -40605.789    2600.5888   -43206.378    8.3964238 
    2400    212.92232   -42.495571    132157.22   -40632.548     2600.288   -43232.836    8.6178123 
    2450    214.22335   -91.869764     132139.9   -40660.212    2616.1767   -43276.389    8.7846653 
    2500    218.83123   -93.156892    132091.69   -40622.841    2672.4498   -43295.291    8.9408831 
    2550    216.43673   -46.859726    132060.71   -40616.532    2643.2074    -43259.74    9.1306826 
    2600    210.10238   -26.975729    132150.26   -40699.117    2565.8498   -43264.966    9.3328941 
    2650    214.15843   -55.709602    132150.95   -40741.934    2615.3838   -43357.317    9.3934982 
    2700    213.61572    -15.35606    132119.35   -40774.048    2608.7561   -43382.805    9.4876672 
    2750    215.17418    32.355822    132077.59   -40715.588    2627.7886   -43343.376    9.7263819 
    2800    212.53036    57.437514    132212.31   -40683.471    2595.5013   -43278.972    9.8953474 
    2850    214.28404    52.791365    132381.14    -40678.19    2616.9179   -43295.108    10.008419 
    2900    213.38468    114.71045    132491.23   -40652.881    2605.9345   -43258.816    10.160171 
    2950    214.85042   -31.144578    132485.59   -40632.954    2623.8348   -43256.789    10.372279 
    3000    212.07226    -24.01221    132334.73   -40677.673    2589.9067   -43267.579    10.529928 
    3050    212.34761    9.9661034    132211.41   -40666.066    2593.2694   -43259.335    10.746779 
    3100    214.41071    27.831606     132098.8   -40656.402    2618.4648   -43274.867    10.955722 
    3150    214.04202    80.709755       132122   -40694.772    2613.9622   -43308.734     11.08787 
    3200     216.8401    73.787431     132165.7   -40714.042    2648.1334   -43362.175    11.261963 
    3250    213.85704    92.749206    132312.02   -40680.882    2611.7031   -43292.585     11.41884 
    3300     213.8363   -49.543251    132274.21   -40724.054    2611.4499   -43335.504    11.564952 
    3350    212.20594   -151.72204    132053.47   -40723.978    2591.5393   -43315.517     11.72394 
    3400    215.25727   -20.634369    132078.26   -40690.731    2628.8034   -43319.535    11.926511 
    3450    220.01472    119.34557    132193.37   -40632.499    2686.9031   -43319.402    12.101171 
    3500    216.94241   -52.538795    132301.52   -40624.724    2649.3828   -43274.107    12.229082 
    3550    216.54228    51.968407    132370.14   -40673.082    2644.4963   -43317.579    12.442174 
    3600    212.57101    92.104784    132350.19   -40666.843    2595.9977   -43262.841    12.549466 
    3650    218.90581    66.433049    132464.62   -40686.384    2673.3607   -43359.744    12.746487 
    3700    212.54295    -144.0704    132291.11   -40699.704     2595.655   -43295.359    12.968355 
    3750    209.35327   -146.59228     131922.4   -40774.254    2556.7014   -43330.955    13.051945 
    3800    211.37969   -10.393942    132005.88   -40784.701    2581.4488    -43366.15    13.166561 
    3850    216.88045    35.871923    132098.14   -40750.241    2648.6263   -43398.867    13.335797 
    3900     215.3766   -132.03717    132200.53    -40695.31    2630.2607   -43325.571    13.660751 
    3950    215.08788    7.0996117    132129.55   -40683.885    2626.7347   -43310.619    13.848261 
    4000    216.33745    209.01086     132273.4   -40669.797    2641.9949   -43311.792    13.968021 
    4050    217.39625   -86.125295    132314.25   -40662.867    2654.9254   -43317.792     14.08748 
    4100    216.01757    14.316266    132328.81   -40675.411    2638.0884     -43313.5    14.312306 
    4150    215.03245   -96.162316    132263.66   -40679.484    2626.0577   -43305.542    14.462892 
    4200    213.75321    7.7486564    132275.53   -40696.603    2610.4352   -43307.038     14.58632 
    4250     214.0511   -114.90419    132332.99   -40675.486    2614.0731   -43289.559    14.682313 
    4300    214.95129   -181.70053    132083.94   -40645.434    2625.0666   -43270.501    14.822337 
    4350    212.56874     233.5088    132052.29   -40706.522      2595.97   -43302.492    14.979129 
    4400    212.06823   -64.927888    132095.49   -40690.243    2589.8576   -43280.101    15.165269 
    4450    214.90134    133.68909    132210.77   -40622.055    2624.4566   -43246.512    15.305518 
    4500     217.3725   -74.000195    132144.87   -40628.622    2654.6354   -43283.258    15.428627 
    4550    217.40718    70.779355    132138.09   -40642.415    2655.0588   -43297.474    15.549722 
    4600    215.80932   -79.397942    132156.74   -40641.737    2635.5451   -43277.282    15.671617 
    4650    215.19706   -37.940028    132139.79     -40652.9     2628.068   -43280.968    15.777176 
    4700    221.50069     69.97193    132144.98   -40610.312    2705.0504   -43315.362    15.968094 
    4750    216.07304    40.958553    132303.18   -40619.839    2638.7658   -43258.605    16.222428 
    4800    214.81791    28.111279    132302.03   -40613.485    2623.4377   -43236.923     16.36491 
    4850    216.63022   -60.205671    132336.31   -40619.262    2645.5703   -43264.832    16.461593 
    4900    218.52334   -121.66091    132247.98   -40630.573    2668.6898   -43299.263    16.545915 
    4950     219.6273   -84.814294    132173.54   -40617.304    2682.1718   -43299.475    16.719474 
    5000    213.03143   -81.606319    131999.61   -40626.732    2601.6205   -43228.353    17.022695 
    5050     215.6915    62.787949    131958.21   -40663.944    2634.1063    -43298.05    17.285118 
    5100    220.33269    7.7020198    131996.98   -40665.143    2690.7862   -43355.929    17.538337 
    5150    214.93644   -98.296826    131963.54   -40672.541    2624.8852   -43297.426    17.574793 
    5200    214.58613    188.00752    131920.57   -40700.536    2620.6071   -43321.143    17.628045 
    5250    213.15692   -97.309551    131970.58   -40669.846    2603.1531   -43272.999    17.737112 
    5300    217.29563    92.550845    131844.36   -40623.757    2653.6965   -43277.453    17.874615 
    5350     218.1403   -74.826207    131795.66   -40656.981     2664.012   -43320.993    17.973864 
    5400    218.35162   -7.8004236    131743.84   -40700.826    2666.5927   -43367.419    18.101651 
    5450    214.82485   -31.894181    131707.62   -40688.904    2623.5224   -43312.427    18.390044 
    5500    217.04863    67.894445    131685.58   -40715.735    2650.6801   -43366.415    18.619495 
    5550    216.91786    108.28031    131742.51   -40686.805    2649.0831   -43335.888    18.875445 
    5600    219.29569    40.557448    131814.81   -40639.343     2678.122   -43317.465    19.107456 
    5650    221.33003    -122.2874    131924.03   -40683.723    2702.9662   -43386.689    19.300296 
    5700    215.43689    58.984363    131988.83   -40755.856    2630.9969   -43386.853    19.476537 
    5750    213.96282   -130.39822     132069.3   -40786.808     2612.995   -43399.803    19.644884 
    5800    209.11814    6.3964295    131938.36   -40824.445    2553.8299   -43378.275    19.978052 
    5850    211.68651    16.649154    131935.36   -40839.673    2585.1958   -43424.869    20.080511 
    5900    212.14901   -23.712257    131952.77   -40850.574    2590.8441   -43441.418    20.214982 
    5950    211.59585    55.256655    131999.12   -40822.334    2584.0887   -43406.422    20.322156 
    6000    211.99179   -202.96124    131851.65   -40788.143    2588.9241   -43377.068    20.466089 
    6050    216.31908    -83.78471    131752.94   -40778.439    2641.7705   -43420.209    20.532663 
    6100    210.61547    83.593265     131713.9   -40763.253    2572.1159   -43335.369    20.706225 
    6150    214.70997   -138.53986    131661.05   -40726.269    2622.1195   -43348.388    20.784518 
    6200    215.68625      119.526    131675.65   -40724.746    2634.0421   -43358.789     20.77243 
    6250    219.11096    25.030912    131787.79   -40694.367    2675.8661   -43370.233     20.95656 
    6300    213.22474   -28.314968    131864.49   -40722.789    2603.9813    -43326.77    21.164174 
    6350    214.69905    193.73412    131936.51   -40718.999    2621.9862   -43340.985    21.224728 
    6400    213.81546   -46.515964    132079.32   -40713.774    2611.1954   -43324.969    21.384226 
    6450    213.74544    36.966987    132142.53   -40739.201    2610.3403   -43349.542    21.493754 
    6500    213.53622    22.580539    132140.75   -40765.748    2607.7853   -43373.534    21.646322 
    6550    211.52927    72.448393    132103.18   -40750.691    2583.2756   -43333.967    21.762596 
    6600    212.02048   -25.517921    132046.07   -40754.277    2589.2744   -43343.552    21.861608 
    6650    217.25122     30.03842    132087.26   -40761.884    2653.1542   -43415.038    21.956495 
    6700    211.51304   -44.906801    132160.65   -40746.633    2583.0774   -43329.711    22.184345 
    6750    212.74407   -41.988084    132192.61   -40728.618    2598.1111    -43326.73    22.394209 
    6800    217.96033    100.81745    132118.39   -40716.459    2661.8142   -43378.273    22.627299 
    6850    216.67102   -81.176559    132173.08   -40703.715    2646.0686   -43349.784    22.738987 
    6900    216.83084   -28.982407    132101.39   -40685.173    2648.0203   -43333.193    22.887451 
    6950    214.46757    82.448499    132101.27   -40673.588    2619.1592   -43292.748    23.157685 
    7000    213.14942   -18.194028    132161.23   -40721.142    2603.0615   -43324.203    23.326242 
    7050    217.89272   -53.188216    132144.01    -40691.57    2660.9884   -43352.559    23.509465 
    7100    215.27549    68.341301    132182.03   -40659.044    2629.0258    -43288.07    23.811635 
    7150     215.6404   -140.02949    132112.41   -40704.616    2633.4822   -43338.098    24.058884 
    7200    215.26042    110.23556    131947.28   -40729.223    2628.8417   -43358.064    24.200794 
    7250    216.23733   -124.28515     131798.4   -40713.988    2640.7722    -43354.76    24.380396 
    7300    211.88221    89.524898    131786.52    -40702.57    2587.5859   -43290.156    24.388935 
    7350     213.2593  -0.33485758     131734.1    -40728.14    2604.4033   -43332.543    24.451208 
    7400    219.43508  -0.89650638    131819.43   -40702.017    2679.8243   -43381.842    24.694436 
    7450    219.50043    57.378992    131846.83   -40711.439    2680.6223   -43392.061    24.948852 
    7500     213.3511   -55.886498     131897.9   -40749.317    2605.5245   -43354.842    25.116768 
    7550    212.91275    115.87583    131854.31   -40723.882    2600.1712   -43324.053    25.291189 
    7600    218.00051    74.398778    131978.82   -40699.536    2662.3048   -43361.841    25.540793 
    7650    216.65899    73.980421     132057.4   -40728.634    2645.9217   -43374.556    25.728036 
    7700    216.84513    17.427622    132079.23     -40747.1    2648.1948   -43395.295    25.856803 
    7750    212.14381    70.746283    132098.96    -40803.97    2590.7806   -43394.751    26.030673 
    7800    210.72424   -77.719889    131973.22   -40865.635    2573.4443   -43439.079    26.221346 
    7850    211.83971   -27.337022    131883.27    -40843.38    2587.0667   -43430.446    26.373103 
    7900    214.07417   -35.527322    131922.14   -40861.161    2614.3549   -43475.516    26.451507 
    7950      215.879   -20.335005    131981.02   -40809.051    2636.3961   -43445.447    26.520786 
    8000    214.33914    179.77166    131973.12   -40820.909    2617.5908   -43438.499    26.728014 
    8050    212.87034    14.651643    132109.61   -40834.979    2599.6532   -43434.632    26.846462 
    8100    213.33589    -175.5319    131945.68   -40798.156    2605.3387   -43403.495    27.101596 
    8150    214.39497    72.701721    131871.69   -40812.496    2618.2726   -43430.769    27.207229 
    8200    214.17877    36.429647    131953.15   -40792.263    2615.6323   -43407.895    27.138415 
    8250    215.22069    66.710343    132007.66   -40803.264    2628.3566    -43431.62    27.201399 
    8300    212.99438   -102.12851    131948.57    -40789.25     2601.168   -43390.418    27.373237 
    8350    212.40382   -9.1105209    131954.56   -40786.408    2593.9559   -43380.364    27.660594 
    8400    217.22398    116.54534    132039.05   -40775.736    2652.8216   -43428.557    27.799147 
    8450    208.13731   -27.346123    131951.65   -40817.304    2541.8516   -43359.155    27.891229 
    8500    216.72835    128.85627    131929.42   -40768.063    2646.7687   -43414.832    28.179102 
    8550    212.24757    6.7982649    131791.84   -40801.313    2592.0477    -43393.36    28.290797 
    8600    212.68067    8.4773505    131922.68   -40817.283    2597.3369   -43414.619    28.385515 
    8650    214.08157    51.366265    131923.13   -40825.479    2614.4452   -43439.924    28.494374 
    8700    211.02106   -33.077261    131901.56   -40826.013    2577.0691   -43403.082    28.646553 
    8750    214.42114   -170.55826    131769.73    -40804.47    2618.5922   -43423.062     28.78192 
    8800    214.85098   -10.047275    131669.65   -40829.291    2623.8415   -43453.133    28.959343 
    8850     219.0378   -21.453804    131692.56    -40794.68    2674.9726   -43469.652    29.126245 
    8900    210.76354    116.29998    131876.64   -40851.332    2573.9242   -43425.256    29.241674 
    8950    212.33273   -66.796016    131893.95   -40863.194    2593.0878   -43456.281    29.321261 
    9000    212.68935    3.3176787    131904.81    -40841.32    2597.4429   -43438.763    29.431417 
    9050    211.16237   -71.778244    131872.61   -40881.668    2578.7949   -43460.463    29.614283 
    9100    214.15197    109.13667    131900.86   -40838.104     2615.305   -43453.409    29.727892 
    9150    211.84701   -40.135351     131913.5    -40860.42    2587.1559   -43447.576    29.744024 
    9200    211.61163    116.93281    131915.31   -40850.275    2584.2813   -43434.556    29.865959 
    9250    212.88169    103.17625     132027.8    -40854.48    2599.7918   -43454.272    30.018595 
    9300    213.01755    75.897327    132045.31   -40842.445     2601.451   -43443.896     30.13496 
    9350    210.73752    195.19566    132140.13   -40837.034    2573.6065    -43410.64     30.30366 
    9400    212.48142    1.3170933    132184.33   -40812.513    2594.9036   -43407.417    30.593306 
    9450    213.75438    149.69548    132306.93   -40779.503    2610.4494   -43389.952    30.713543 
    9500    217.56072     156.8084    132494.36    -40761.66    2656.9339   -43418.594    30.839383 
    9550    213.26445    145.55581    132796.08   -40795.229    2604.4662   -43399.696    31.146891 
    9600    219.04607    71.408485    132978.21   -40784.623    2675.0735   -43459.697    31.539809 
    9650    212.87472   -162.28449    132910.99   -40788.787    2599.7068   -43388.494    31.745723 
    9700    213.39556    -145.6044     132611.4   -40734.477    2606.0674   -43340.544     31.76387 
    9750    216.80083   -10.074107    132538.84   -40727.412    2647.6538   -43375.066    31.910925 
    9800    216.33816    26.891307    132417.42   -40717.264    2642.0035   -43359.268    32.072835 
    9850    215.26616   -25.294206    132519.26   -40723.553    2628.9119   -43352.465     32.25655 
    9900    214.09142    16.650482    132522.88   -40686.051    2614.5655   -43300.617    32.477918 
    9950    213.33802    30.836024    132488.41   -40698.727    2605.3647   -43304.092    32.638266 
   10000    216.99521   -18.315233    132531.36   -40694.112    2650.0277    -43344.14    32.834291 
   10050    217.71469    63.458145    132663.13   -40731.821    2658.8143   -43390.636    33.019663 
   10100    215.89323   -151.33602     132549.3   -40735.026    2636.5699   -43371.596    33.103654 
   10150    216.85981    129.18803    132552.32   -40767.016    2648.3742   -43415.391    33.274814 
   10200    215.68314   -94.147875    132534.77   -40755.177    2634.0041   -43389.181    33.308095 
   10250     218.0366   -102.72772    132502.04   -40746.634    2662.7455    -43409.38    33.410188 
   10300    216.52747    100.64891    132416.68   -40727.103    2644.3155   -43371.418    33.456935 
   10350    211.60776   -56.491799    132292.63   -40809.235    2584.2341   -43393.469    33.601209 
   10400    215.79878   -7.9923374    132303.07   -40765.969    2635.4165   -43401.386    33.623115 
   10450    216.70868   -47.828084    132223.88   -40786.874    2646.5284   -43433.403    33.705911 
   10500     210.2994   -96.414425    132343.58   -40835.051    2568.2559   -43403.307    33.880527 
   10550    214.60372    36.183831    132396.88   -40819.429    2620.8219   -43440.251    34.198099 
   10600    210.36385    -135.4771    132355.13   -40832.687    2569.0431    -43401.73    34.458565 
   10650    212.10579   -95.306086    132241.61   -40867.518    2590.3163   -43457.834    34.424092 
   10700    214.19602    43.337304    132133.61   -40833.962    2615.8429   -43449.805    34.504843 
   10750    214.59925    133.94899    132327.68   -40811.601    2620.7674   -43432.369      34.7718 
   10800    213.81802    32.814758    132463.75   -40849.537    2611.2266   -43460.764    34.863723 
   10850    211.05007   -95.303495    132455.17   -40822.201    2577.4234   -43399.624    34.876189 
   10900    208.97427    90.943895    132595.37   -40835.254    2552.0729   -43387.327    35.032975 
   10950    216.72199   -52.865516    132680.35   -40779.067     2646.691   -43425.758    35.047342 
   11000     218.9728   -17.896733    132723.08   -40793.504    2674.1787   -43467.682    35.279491 
   11050    216.19445   -28.140386    132649.96    -40769.52    2640.2485   -43409.769    35.579886 
   11100    212.41533    116.51008    132717.72   -40774.602    2594.0965   -43368.698    35.678462 
   11150    218.21843    50.150768     132668.7    -40707.29    2664.9661   -43372.256    35.712847 
   11200    218.13063   -30.826928    132624.66   -40704.469    2663.8938   -43368.363    35.729411 
   11250    219.51662   -15.235829    132465.49   -40730.766    2680.8202   -43411.586    35.966858 
   11300    217.40849    23.842389    132462.15   -40752.995    2655.0748    -43408.07    36.146582 
   11350    216.92632    151.70125    132508.12   -40772.571    2649.1864   -43421.757    35.977405 
   11400    214.89791   -44.738705     132635.8   -40767.557    2624.4147   -43391.971    36.073498 
   11450    219.61364     105.0887    132821.12   -40757.215     2682.005    -43439.22    36.376521 
   11500    216.15937    67.424489    132792.74   -40770.075    2639.8201   -43409.895    36.646524 
   11550    214.69465   -152.03144     132755.2   -40794.116    2621.9324   -43416.048    36.857944 
   11600    213.67053   -137.66463    132537.95   -40838.625    2609.4254    -43448.05    37.016341 
   11650    217.34525   -30.449702    132468.41   -40811.872    2654.3026   -43466.175    37.059828 
   11700    214.02807   -81.872936     132445.3   -40812.057    2613.7919   -43425.849    37.151385 
   11750    219.07682   -191.96569    132347.77   -40737.824    2675.4491   -43413.273    37.377912 
   11800    218.56996    65.347857    132323.43   -40760.878    2669.2592   -43430.137    37.540833 
   11850    215.47417    31.908693    132352.06   -40768.751    2631.4522   -43400.203    37.698304 
   11900    215.72258    31.030506    132411.66   -40783.412    2634.4858   -43417.898    37.976439 
   11950    216.57583    127.03699    132546.64   -40780.291    2644.9061   -43425.197    37.995903 
   12000     217.4741    91.542388    132427.71   -40806.845     2655.876   -43462.721    37.925235 
   12050    215.98376    96.527821     132492.6   -40792.225    2637.6755   -43429.901    38.036857 
   12100    218.07618    17.302234    132614.31   -40797.494    2663.2289   -43460.723    38.289682 
   12150    212.68855   -103.17812    132510.76   -40830.354    2597.4331   -43427.787    38.342158 
   12200    215.87493    41.024718    132557.93   -40806.906    2636.3464   -43443.253    38.457023 
   12250    217.72615    10.400705    132566.53   -40800.349    2658.9542   -43459.304    38.619296 
   12300     211.3877    55.038559    132665.51   -40814.293    2581.5467    -43395.84    38.591705 
   12350    209.48596   -95.106985    132602.59   -40889.554    2558.3218   -43447.875    38.648923 
   12400    212.04023   -92.527973    132477.73   -40878.775    2589.5156   -43468.291    38.909761 
   12450    215.83765   -50.349057    132479.35   -40858.908    2635.8911   -43494.799    39.043691 
   12500    211.74958  -0.95080658    132423.22   -40862.145    2585.9661   -43448.111    39.244299 
   12550    214.26956    65.057758    132471.31   -40899.025    2616.7411   -43515.766    39.409844 
   12600    210.91559   -128.83663    132490.91   -40911.897    2575.7811   -43487.678     39.46829 
   12650    213.25334    141.92269    132470.37   -40878.892    2604.3305   -43483.223    39.645631 
   12700    216.43733    15.006746    132523.09   -40825.603    2643.2147   -43468.817    39.820972 
   12750    215.69607    114.19571    132592.88   -40818.267    2634.1621   -43452.429     40.12467 
   12800    212.48966   -41.082539     132628.1   -40864.235    2595.0042   -43459.239    40.273005 
   12850    214.18008   -21.766416    132625.73       -40921    2615.6482   -43536.648    40.404258 
   12900    210.41392   -18.775756    132592.48   -40931.057    2569.6545   -43500.711    40.644625 
   12950    212.07107   -142.75847    132582.61   -40930.184    2589.8922   -43520.077    40.693482 
   13000    210.02856    8.5848118    132564.39   -40911.781    2564.9484    -43476.73     40.79342 
   13050    206.52191   -294.90414    132337.45   -40960.508    2522.1238   -43482.632    40.823171 
   13100    213.08608    187.25059    132289.88   -40859.291     2602.288   -43461.579    40.877203 
   13150    214.72278    134.84154    132540.73   -40834.236     2622.276   -43456.512    41.038146 
   13200    216.02503    93.390987    132660.79   -40833.368    2638.1794   -43471.548     41.24001 
   13250    218.47641   -180.67187    132634.28   -40865.723    2668.1167    -43533.84    41.544187 
   13300    211.57393   -50.981452    132537.95    -40808.72     2583.821   -43392.541    41.579052 
   13350    214.87023    100.19042    132615.19   -40791.591    2624.0766   -43415.668    41.716159 
   13400    213.90855   -65.596106    132564.24   -40801.149    2612.3322   -43413.481    41.935359 
   13450     214.8179   -20.859337    132536.59   -40865.153    2623.4375   -43488.591    42.042601 
   13500    213.96028    41.551847    132574.58   -40833.326     2612.964    -43446.29    42.245333 
   13550    212.40041    115.56187    132550.02   -40844.235    2593.9143   -43438.149    42.329812 
   13600    212.32067   -161.41167    132476.32   -40907.573    2592.9404   -43500.513    42.426831 
   13650    214.14665   -42.110056    132501.47   -40908.698      2615.24   -43523.938    42.538444 
   13700    212.63742    76.876407    132620.99   -40889.546    2596.8087   -43486.355     42.76665 
   13750    214.51468   -36.467114    132671.45   -40859.885    2619.7345   -43479.619    42.976824 
   13800    214.94034    24.596045    132667.61   -40875.641    2624.9329   -43500.574    43.200006 
   13850    212.14189    86.385584    132660.42   -40914.282    2590.7571   -43505.039    43.284268 
   13900    213.42713    36.884383    132698.37   -40850.439    2606.4529   -43456.892    43.440894 
   13950    212.54646    35.382335    132757.81   -40828.588    2595.6979   -43424.286    43.561688 
   14000    213.34993   -140.41891    132762.16    -40820.16    2605.5101    -43425.67    43.717531 
   14050    216.86261   -36.155421    132647.68   -40850.392    2648.4083     -43498.8    43.756475 
   14100    217.21025   -131.08427    132641.52   -40802.271    2652.6539   -43454.925    43.752542 
   14150    220.49367    21.024313    132605.57   -40749.165    2692.7522   -43441.917    43.815519 
   14200    218.05276    61.989298    132597.46   -40759.376    2662.9429   -43422.319    43.896158 
   14250     216.8045    8.1137035    132522.89   -40802.951    2647.6987   -43450.649     44.12806 
   14300    213.62141    69.297646    132493.41   -40820.343    2608.8256   -43429.169    44.207799 
   14350    215.63055   -51.614762    132457.88   -40816.888    2633.3619    -43450.25    44.462974 
   14400    219.17356     239.6254    132446.88   -40794.346    2676.6305   -43470.976    44.603233 
   14450    216.83774   -81.855102    132371.79    -40752.35    2648.1046   -43400.454    44.790518 
   14500    214.12206   -79.149019    132318.23   -40728.078    2614.9397   -43343.018    44.912974 
   14550    217.81647   -24.799114    132151.31   -40799.402    2660.0572    -43459.46    45.119808 
   14600    219.51932   -61.435159    132226.32   -40765.351    2680.8531   -43446.204    45.251632 
   14650    218.09773    180.96535    132352.92   -40739.838    2663.4921    -43403.33    45.339192 
   14700    217.55933   -143.70988    132442.41   -40722.146     2656.917   -43379.063     45.52767 
   14750    218.12015    97.947207    132445.87    -40725.62    2663.7659   -43389.386    45.493359 
   14800    216.52016   -10.611816    132604.44   -40732.919    2644.2262   -43377.146    45.571884 
   14850    215.77287   -82.735994    132728.75   -40703.791    2635.1001   -43338.891    45.844167 
   14900    222.11841   -199.41707    132681.35    -40708.66    2712.5942   -43421.254    45.967916 
   14950    215.90116   -63.248864    132550.59   -40734.708    2636.6668   -43371.374    46.148838 
   15000    212.78999     -16.8673    132530.28   -40756.307     2598.672   -43354.979    46.187659 
   15050    216.57112    16.973901    132529.83   -40770.309    2644.8486   -43415.158    46.471471 
   15100    217.29674    46.173733    132651.19   -40767.749    2653.7101   -43421.459    46.704523 
   15150    215.44363   -51.147169    132777.94   -40763.451    2631.0792    -43394.53    46.804105 
   15200    215.38482     35.82488    132839.87   -40803.856     2630.361   -43434.217    46.865955 
   15250    215.63906   -80.773994    132778.23   -40787.617    2633.4658   -43421.083    46.844245 
   15300    222.32309   -102.12661    132809.38   -40753.469    2715.0937   -43468.563    46.870634 
   15350    215.31173   -115.14316    132699.74   -40742.709    2629.4684   -43372.178    46.927497 
   15400    215.98755   -118.29386    132526.61   -40791.233    2637.7218   -43428.955    46.979085 
   15450    219.55905    34.168554    132560.12   -40788.871    2681.3383   -43470.209    47.102745 
   15500    218.90912   -5.4689162    132647.93   -40818.856    2673.4011   -43492.257    47.278888 
   15550    219.75077   -59.900024    132546.48   -40753.881    2683.6796   -43437.561    47.402256 
   15600    218.09327    64.052244    132442.05   -40783.499    2663.4377   -43446.937    47.580155 
   15650    214.64548    125.95135    132604.67   -40787.559    2621.3319   -43408.891    47.888473 
   15700    209.82112   -105.22793    132482.55   -40807.696    2562.4149   -43370.111    48.022542 
   15750    215.47321    59.517639    132446.28   -40802.104    2631.4405   -43433.545    47.964719 
   15800    211.94794   -29.507467    132572.21   -40801.595    2588.3885   -43389.984    48.278631 
   15850    212.01529   -44.175116    132542.16   -40796.912     2589.211   -43386.123    48.644019 
   15900    213.52667   -40.918639    132368.92   -40747.923    2607.6686   -43355.591    48.773402 
   15950    216.65017    25.172132    132465.57   -40776.759     2645.814   -43422.573    48.951372 
   16000    215.31085    110.67098    132524.22   -40754.421    2629.4576   -43383.879    49.042553 
   16050    221.54111   -59.633937    132445.61   -40785.666    2705.5439    -43491.21    49.111353 
   16100    210.25036     26.29979    132374.99   -40831.225     2567.657   -43398.882    49.277221 
   16150    210.74731   -159.34513    132179.69   -40873.112     2573.726   -43446.838      49.4192 
   16200    211.96829   -46.856497    132001.69   -40862.619     2588.637   -43451.256    49.616992 
   16250    220.84094   -22.221682     132022.4   -40798.558    2696.9932   -43495.552    49.739103 
   16300    217.04534    30.294552    132062.86   -40799.813    2650.6398   -43450.453    49.965398 
   16350    216.77048    73.170485    132163.32    -40776.04    2647.2833   -43423.323    50.185871 
   16400    215.87091    69.767402     132224.2   -40831.689    2636.2973   -43467.986    50.474998 
   16450    216.60379    1.3128684    132329.45   -40848.886    2645.2476   -43494.134     50.78959 
   16500    213.51668     35.46701    132329.69   -40842.669    2607.5465   -43450.215    50.956824 
   16550    212.90736   -104.60985    132351.87   -40876.259    2600.1053   -43476.365    51.251671 
   16600    211.99602   -13.087913    132288.83   -40906.242    2588.9757   -43495.218    51.293296 
   16650     212.7193    20.490193    132404.83   -40822.823    2597.8087   -43420.632    51.468006 
   16700    213.32403   -185.94113    132341.27   -40807.615    2605.1939   -43412.809    51.548354 
   16750    216.13136      63.8912    132302.32   -40783.844     2639.478   -43423.322    51.559687 
   16800    217.03174   -13.389287    132400.94   -40838.044    2650.4739   -43488.517    51.656049 
   16850     212.0134   -177.41672    132351.75   -40898.559    2589.1879   -43487.747    51.690831 
   16900    209.95239    12.881196    132324.01   -40917.687    2564.0182   -43481.705    51.827671 
   16950      211.494     89.54464    132419.63    -40907.02    2582.8449   -43489.865    52.053121 
   17000    215.88687    -64.25675    132375.41   -40888.287    2636.4923   -43524.779     52.03122 
   17050    211.60993   -79.179748    132278.97   -40852.919    2584.2606    -43437.18    51.982716 
   17100     209.6896   -174.58647    132244.45   -40863.828    2560.8088   -43424.636    52.305982 
   17150    212.18911   -5.3900392    132065.13   -40835.927    2591.3338   -43427.261    52.487195 
   17200    211.38554    13.525752    132056.97   -40823.471    2581.5203   -43404.991    52.525512 
   17250    213.41584    208.46035    132239.12   -40799.301    2606.3151   -43405.616    52.738324 
   17300    215.93321   -59.788364    132245.93   -40784.651    2637.0582    -43421.71    52.888867 
   17350    216.96933   -57.296338    132263.29   -40803.233    2649.7116   -43452.945     53.01634 
   17400    212.98256   -70.216306    132249.02   -40802.241    2601.0237   -43403.265    53.067437 
   17450    207.80264   -93.165237    132158.93   -40862.121    2537.7646   -43399.886    53.135603 
   17500    212.25619   -36.294494    132172.61   -40864.594     2592.153   -43456.747    53.315487 
   17550    216.70475   -12.824581    132143.42    -40795.46    2646.4804   -43441.941    53.467697 
   17600    216.39403    63.035525    132128.82   -40765.151    2642.6859   -43407.837    53.563712 
   17650    209.79334    5.4599664     132161.2   -40784.213    2562.0758   -43346.289    53.741188 
   17700     212.1865    163.94576    132249.84   -40777.424     2591.302   -43368.726    53.948829 
   17750    211.03212   -53.361768    132308.72   -40793.495    2577.2042   -43370.699    54.149061 
   17800    215.06026   -71.342412    132367.45   -40786.101    2626.3974   -43412.499    54.286403 
   17850    214.24179    26.589787    132218.38   -40778.802    2616.4019   -43395.204    54.380837 
   17900    216.60803    39.664151    132182.52   -40744.894    2645.2992   -43390.193    54.459052 
   17950    217.55049    106.93231     132179.9   -40712.397    2656.8089   -43369.206    54.461423 
   18000    217.61269   -28.929435    132293.13    -40688.53    2657.5686   -43346.098    54.642183 
   18050     214.3329    216.79036    132307.63   -40719.769    2617.5146   -43337.283    54.948348 
   18100    216.59708    68.357732    132466.33   -40713.982    2645.1656   -43359.148    55.146051 
   18150    217.27126   -139.52055    132448.51   -40754.569     2653.399   -43407.968    55.079771 
   18200    213.27535   -89.022622    132268.66    -40802.23    2604.5994    -43406.83    55.131072 
   18250     214.2029   -5.6908372     132206.4   -40799.027     2615.927   -43414.954    55.181581 
   18300    216.71064    66.884623    132213.42   -40786.198    2646.5525    -43432.75      55.3733 
   18350    212.85423   -14.981396    132249.85   -40818.502    2599.4565   -43417.959      55.6123 
   18400    214.17594      81.7005    132278.61   -40816.673    2615.5977   -43432.271    55.593886 
   18450     217.4712    13.655403    132279.02   -40819.118    2655.8407   -43474.959    55.827661 
   18500    218.87984    45.222267    132294.24   -40787.354    2673.0435   -43460.398    55.920177 
   18550    216.31812   -154.79721    132189.79   -40801.445    2641.7588   -43443.204     55.97945 
   18600    212.41182    -7.175987    131984.89    -40821.38    2594.0536   -43415.434    55.971744 
   18650    216.74769    52.940944    132060.19   -40793.117    2647.0049   -43440.122    56.158561 
   18700    218.63556    122.67444    132107.29   -40746.292    2670.0603   -43416.352      56.3798 
   18750    215.63949   -29.031719     132203.4   -40755.682    2633.4711   -43389.153    56.770403 
   18800    217.21057   -147.95247    131976.53    -40736.28    2652.6578   -43388.938    56.972774 
   18850    219.05254   -101.56993    131846.56   -40727.034    2675.1526   -43402.187    57.066257 
   18900    218.49788   -68.795034    131802.44   -40754.916    2668.3789   -43423.295    57.165104 
   18950    213.15274   -28.749926    131855.53   -40748.744    2603.1019   -43351.846    57.390493 
   19000    214.40331   -11.620255    131767.93    -40779.36    2618.3744   -43397.734    57.159345 
   19050    213.86241   -2.4500001     131809.3   -40783.802    2611.7687   -43395.571    57.143883 
   19100    210.75284    58.804319    131685.57   -40787.196    2573.7936    -43360.99    57.204069 
   19150    214.20331   -11.216579    131694.68   -40732.276    2615.9319   -43348.208    57.303318 
   19200    217.03761    17.362307    131762.97   -40711.131    2650.5454   -43361.676    57.447019 
   19250    218.71336   -15.747548     131827.4   -40742.983    2671.0104   -43413.994    57.836529 
   19300    213.95245    -16.79952    131783.11   -40710.142    2612.8683    -43323.01    58.080508 
   19350    216.68877     122.6011    131908.65    -40693.37    2646.2853   -43339.655    58.333211 
   19400    218.21518    45.534124    131953.74   -40721.504    2664.9265    -43386.43    58.527826 
   19450    216.81055    35.560577    132041.16    -40706.47    2647.7725   -43354.243    58.687333 
   19500    215.36168    0.1182315    132153.61   -40753.497    2630.0784   -43383.575    58.655341 
   19550    215.11538    51.585126    132179.55   -40772.693    2627.0705   -43399.763    58.621103 
   19600     211.9641    200.58111    132092.23   -40801.456    2588.5858   -43390.042    58.677294 
   19650    216.13042      79.3227    132099.59   -40800.779    2639.4666   -43440.246     58.87138 
   19700     217.5376   -26.884563    132154.45   -40782.957    2656.6515   -43439.608    59.215243 
   19750    216.41597    32.988093    132120.63   -40798.432    2642.9537   -43441.386    59.492644 
   19800    215.62944    66.775261    132165.26   -40806.757    2633.3484   -43440.105    59.650404 
   19850    215.45059    2.1007916    132343.63   -40788.084    2631.1642   -43419.249    59.840642 
   19900    214.53508     72.92449    132388.79   -40817.424    2619.9837   -43437.408    60.004457 
   19950    217.01068   -104.95726    132402.71   -40772.285    2650.2167   -43422.502     60.11728 
   20000    215.65798   -141.30364    132363.17   -40761.577     2633.697   -43395.274    60.232993 
   20050    216.52951   -80.568774     132124.7   -40786.645    2644.3404   -43430.985    60.465355 
   20100    216.64955    7.3967382    132050.23   -40768.023    2645.8063   -43413.829    60.732052 
   20150    214.62604    55.158644    132116.21   -40787.113    2621.0945   -43408.207    60.736179 
   20200    217.62182    28.764766    132167.14   -40810.834      2657.68   -43468.514    60.778648 
   20250    215.45822    10.897814    132245.67   -40790.629    2631.2573   -43421.886    60.882643 
   20300    214.51123   -10.513534    132168.04   -40806.979    2619.6924   -43426.672    61.080763 
   20350    216.06028    130.26001    132127.11   -40774.155      2638.61   -43412.765    61.107614 
   20400    213.23315    125.24518    132303.54   -40798.939     2604.084   -43403.023    61.199807 
   20450    216.11566   -23.890418    132508.31   -40782.191    2639.2863   -43421.477    61.429889 
   20500    216.71768   -8.9198904    132423.02   -40764.764    2646.6384   -43411.403    61.292782 
   20550    216.78892   -24.562027    132391.72    -40801.49    2647.5084   -43448.998    61.466649 
   20600     218.2661   -99.987818    132317.05   -40811.383    2665.5483   -43476.931    61.579519 
   20650    213.88618   -46.301456    132350.61   -40829.205     2612.059   -43441.264     61.87621 
   20700    210.33783   -109.82298    132322.61   -40793.391    2568.7252   -43362.116    62.261216 
   20750     215.4647    30.245548    132301.98   -40777.706    2631.3366   -43409.043    62.295794 
   20800    211.49191    88.123699    132230.36   -40796.721    2582.8194   -43379.541    62.414203 
   20850     214.8537   -102.35294    132134.89   -40780.893    2623.8748   -43404.768    62.315396 
   20900    215.36357   -114.03797    132110.09   -40764.924    2630.1015   -43395.025    62.459847 
   20950    214.58093   -67.844828    132003.29   -40797.302    2620.5436   -43417.846    62.864588 
   21000    212.16685   -51.919131    131976.65   -40762.587    2591.0619   -43353.649    63.046678 
   21050    214.66133  0.075883553    132006.14   -40730.528    2621.5255   -43352.054    63.234807 
   21100    221.02859   -33.242626    131973.06   -40657.338    2699.2848   -43356.623     63.36705 
   21150    221.66543    54.230475    132074.26   -40666.665    2707.0622   -43373.727     63.45429 
   21200    215.26217    29.397459    132173.95    -40718.05    2628.8631   -43346.913     63.58005 
   21250    216.93563    51.499015    132242.37   -40749.109       2649.3   -43398.409    63.793238 
   21300    214.09426    -15.98465    132282.26   -40747.557    2614.6003   -43362.157    63.773124 
   21350    214.53539    5.5647205    132296.61   -40815.638    2619.9874   -43435.625    64.015021 
   21400    216.05734    -9.753596     132240.8   -40801.119    2638.5741   -43439.693    64.065354 
   21450    213.09526    63.520286    132151.14   -40835.867       2602.4   -43438.267    64.063249 
   21500    212.17243   -83.052359    132192.31   -40766.316      2591.13   -43357.446    64.235775 
   21550    211.51636    58.492163    132248.02   -40734.491    2583.1179   -43317.608    64.437272 
   21600    219.27685   0.37485032    132088.01   -40713.975     2677.892   -43391.867    64.607537 
   21650    216.18624   -83.090398    132206.23   -40700.508    2640.1483   -43340.656     65.01649 
   21700     216.3057    3.7630606    132353.83   -40712.767    2641.6072   -43354.374    65.259514 
   21750    215.83485    53.430385    132198.76    -40736.16    2635.8569   -43372.017    65.029419 
   21800    214.50799    14.653831    132195.37   -40761.825    2619.6529   -43381.478    65.239297 
   21850    211.38471   -13.251364    132180.01   -40832.552    2581.5101   -43414.062    65.546751 
   21900    214.63672   -16.925179    132172.06   -40820.526    2621.2249   -43441.751      65.7847 
   21950    214.26604   -115.18167    132267.58   -40798.862    2616.6981    -43415.56    66.072693 
   22000    219.80385    58.893496    132377.72   -40771.474    2684.3279   -43455.802    66.341144 
   22050    214.88332    90.193716    132485.71   -40785.291    2624.2366   -43409.527     66.64328 
   22100    213.55124   -155.90433    132395.05   -40768.927    2607.9686   -43376.896    66.760032 
   22150    214.03264   -77.585804    132293.44   -40815.072    2613.8477    -43428.92    66.999892 
   22200    214.51249   -28.400656    132208.04   -40864.549    2619.7078   -43484.257    67.129294 
   22250    210.24912   -89.616006    132074.17   -40852.588    2567.6419   -43420.229    67.303867 
   22300    212.55037    36.386774    132136.24   -40819.208    2595.7456   -43414.954    67.260356 
   22350    215.37537   -63.275387    132156.21   -40792.361    2630.2456   -43422.607    67.258993 
   22400    213.80964   -13.315451    132103.55   -40811.023    2611.1243   -43422.148    67.449276 
   22450    215.97583    171.23215    132215.59   -40828.721    2637.5787     -43466.3    67.522685 
   22500     211.3783   -72.731677    132232.44   -40794.038    2581.4318    -43375.47    67.573232 
   22550    218.68582   -75.503948    132160.57   -40771.687     2670.674   -43442.361     67.67861 
   22600    211.45543    83.643438    132194.02   -40830.658    2582.3738   -43413.031    67.772144 
   22650    210.73548   -152.95147    132179.05   -40847.191    2573.5815   -43420.773    67.779908 
   22700     212.9408    23.939069    132004.85   -40846.595    2600.5137   -43447.109    67.827158 
   22750    212.51748   -94.008065    132022.15   -40823.795     2595.344   -43419.139    67.935058 
   22800    212.82526    74.811461    131937.09   -40811.158    2599.1027   -43410.261    68.042316 
   22850    212.28687    34.329719     132012.5   -40820.509    2592.5276   -43413.036     68.13593 
   22900    210.23501    189.10928    131976.14   -40855.112    2567.4696   -43422.581    68.251774 
   22950    215.02739   -13.789667    132066.49   -40812.991    2625.9959   -43438.987    68.428164 
   23000     213.8056    53.735743    132165.93    -40836.92     2611.075   -43447.995    68.628648 
   23050    212.83231    63.678931       132171   -40833.901    2599.1887   -43433.089     68.91678 
   23100    216.00099   -107.37882    132124.96   -40856.546    2637.8859   -43494.432    69.130225 
   23150    211.63452   -56.295987    132045.34   -40843.802     2584.561   -43428.363    69.204457 
   23200    215.29728   -138.34055    131919.83   -40803.708    2629.2919       -43433    69.224418 
   23250    212.90742    50.043235    131930.06   -40770.257    2600.1061   -43370.363    69.401649 
   23300    216.36294    8.2387576    132053.34   -40787.091    2642.3062   -43429.397    69.602271 
   23350    220.66024   -112.33092    132017.37   -40781.912    2694.7864   -43476.699    69.539794 
   23400    217.64498   -33.622263    131970.01   -40800.604    2657.9629   -43458.567    69.523721 
   23450      213.529    28.094668    132087.93   -40856.188    2607.6971   -43463.886    69.770146 
   23500    213.27352   -70.447646    132042.47   -40822.064     2604.577   -43426.641    69.799546 
   23550    216.71408    47.118574    131926.74   -40774.362    2646.5944   -43420.956    69.539386 
   23600    216.04045   -51.841342    131911.28    -40747.52    2638.3678   -43385.888    69.587505 
   23650    216.90701    29.244595    131923.17   -40759.309    2648.9506    -43408.26    69.698973 
   23700    213.33016    43.913881    132034.57   -40755.912    2605.2687   -43361.181    69.831043 
   23750     212.4915   -95.251873    132042.75   -40815.352    2595.0266   -43410.378    69.884595 
   23800    215.12467   -69.934996    131919.44   -40816.688     2627.184   -43443.872    70.090675 
   23850    216.60911   -62.212992    131764.17   -40810.152    2645.3125   -43455.465     70.21179 
   23900    213.87989   -235.34796    131616.19   -40845.785    2611.9822   -43457.767    70.416691 
   23950    211.07674    67.964959     131612.9   -40847.328    2577.7491   -43425.077    70.587409 
   24000    214.88575    191.79281    131600.26   -40844.826    2624.2661   -43469.092    70.737907 
   24050    213.29624    83.039957    131738.25   -40831.709    2604.8544   -43436.564    71.022074 
   24100    217.65838    187.85068    131824.63   -40797.552    2658.1266   -43455.679    71.020615 
   24150    215.36211    124.09219    132092.96   -40825.255    2630.0837   -43455.339    71.184818 
   24200    214.40775    -64.25308    132027.87   -40811.653    2618.4286   -43430.081    71.438832 
   24250    213.02062   -50.137967    131926.34   -40839.308    2601.4885   -43440.797    71.629582 
   24300    212.29766   -22.305939    131990.88   -40801.567    2592.6594   -43394.226    71.734605 
   24350    214.62448   -49.698397     132049.6   -40790.056    2621.0755   -43411.132    72.121219 
   24400    218.32839    184.00077    132115.13   -40755.793     2666.309   -43422.102     72.39675 
   24450    217.24642    119.76997    132288.06   -40757.114    2653.0955   -43410.209    72.611495 
   24500     215.5183    40.470077    132425.69   -40751.098    2631.9911   -43383.089    72.582115 
   24550    217.26915   -175.75249    132389.28   -40736.834    2653.3731   -43390.207    72.803034 
   24600    216.45728    -23.58332    132234.36   -40752.737    2643.4583   -43396.195     72.69704 
   24650    216.53759    57.613688    132191.02   -40748.417    2644.4391   -43392.856    72.703413 
   24700    217.56899   -88.695461    132195.49   -40802.044    2657.0349   -43459.079    72.750753 
   24750      217.078   -88.953294    132023.81    -40779.62    2651.0388   -43430.659    72.564787 
   24800    215.06079   -71.083616    132008.35   -40763.621    2626.4039   -43390.024    72.857998 
   24850    217.60521    30.938236     132050.4   -40719.152    2657.4772   -43376.629    72.952885 
   24900    220.23329     5.703942    131989.64   -40704.388    2689.5724    -43393.96    72.943067 
   24950    219.49867    72.730747    132144.24   -40754.665    2680.6009   -43435.265    73.194394 
   25000     214.6903    6.2660342    132154.61   -40767.708    2621.8793   -43389.587    73.567699 
   25050    214.93681   -15.994572    132186.12    -40755.37    2624.8897    -43380.26     73.83233 
   25100    211.20295    139.06862    132336.68   -40734.509    2579.2905   -43313.799    73.812718 
   25150    211.43116    20.749506     132358.4   -40718.404    2582.0774   -43300.481    73.717109 
   25200    214.59951   -21.151278    132362.16    -40716.49    2620.7705   -43337.261    73.741541 
   25250    215.22003     18.20241    132216.63   -40717.772    2628.3485    -43346.12    73.728667 
   25300     211.2869   -41.234521    132229.23   -40794.394    2580.3156    -43374.71    74.142832 
   25350     212.8777   -119.41553       132145   -40767.487    2599.7431    -43367.23    74.268136 
   25400    214.02708   -38.430702       132247   -40786.329    2613.7797   -43400.109    74.447197 
   25450    216.49061     129.6694    132211.14   -40785.822    2643.8653   -43429.687     74.59985 
   25500    213.61173   -230.59611    132091.16   -40794.337    2608.7074   -43403.044    74.864691 
   25550    213.13381     198.6527    131956.23   -40800.671    2602.8709   -43403.542    74.976405 
   25600    215.00734    56.783796    132187.31   -40775.001    2625.7511   -43400.752    75.295516 
   25650    213.26665    71.736807    132152.19   -40736.842    2604.4931   -43341.335    75.150203 
   25700    211.68233    64.468375    132320.56    -40723.06    2585.1448   -43308.205    75.385433 
   25750    216.01873    206.04903    132408.82   -40691.748    2638.1026   -43329.851    75.494809 
   25800    216.41015    -80.09584    132504.36   -40713.996    2642.8827   -43356.879    75.645971 
   25850    216.16308   -101.32305     132316.9   -40703.006    2639.8654   -43342.872    75.857241 
   25900    211.09303    58.399292     132297.8   -40675.705     2577.948   -43253.653    76.127354 
   25950    213.88048    17.105582    132240.45   -40719.493    2611.9894   -43331.483    76.055814 
   26000    214.06194    -141.0775    132092.28    -40791.24    2614.2056   -43405.445    75.779976 
   26050    214.28463    80.123007    132141.47   -40818.473    2616.9251   -43435.398      75.8287 
   26100    214.06864    -44.32572    132231.66    -40799.67    2614.2874   -43413.957    76.148352 
   26150    213.55163    26.949703    132264.94   -40797.798    2607.9734   -43405.772    76.179233 
   26200    220.99645    35.985279    132341.62   -40805.514    2698.8924   -43504.406    76.421109 
   26250    216.42656    69.076466    132374.38   -40787.844    2643.0831   -43430.927    76.640577 
   26300    216.13564    29.067886    132278.35   -40788.009    2639.5304   -43427.539    76.746023 
   26350    217.39643   -110.06773    132152.66   -40761.313    2654.9275   -43416.241     76.94408 
   26400    215.25925    63.025599    132213.98   -40824.683    2628.8274    -43453.51    77.096889 
   26450    216.13263   -2.8136679    132391.59   -40786.565    2639.4935   -43426.059    77.558588 
   26500    218.13482     37.39404    132442.59   -40750.776    2663.9451   -43414.721    77.940773 
   26550    215.30188   -21.210433    132378.15   -40751.046    2629.3481   -43380.394    78.201071 
   26600    216.40077   -32.097922    132311.08    -40760.06    2642.7682   -43402.828    78.138171 
   26650    216.22853    8.7904239    132356.62   -40815.768    2640.6647   -43456.433    78.252344 
   26700    212.41528     5.308338     132383.5   -40826.274    2594.0959   -43420.369    78.369241 
   26750    214.18642    15.746134    132313.66   -40834.911    2615.7257   -43450.637    78.397075 
   26800    214.95973    -16.61296    132363.96   -40846.763    2625.1697   -43471.932    78.665703 
   26850    213.89541    152.62202     132476.7   -40854.705    2612.1717   -43466.876    78.824028 
   26900    213.69784   -70.057728     132433.9   -40877.586    2609.7589   -43487.345    78.862723 
   26950    210.21847   -38.126669    132364.45   -40894.798    2567.2676   -43462.065    78.890275 
   27000    208.64672   -50.591803    132301.91   -40911.097    2548.0727    -43459.17    78.909405 
   27050     211.5327   -11.050054    132271.49    -40898.23    2583.3175   -43481.548    78.881723 
   27100    212.11993     170.6043    132518.53   -40876.749     2590.489   -43467.238    79.099452 
   27150    215.58317   -102.18019    132606.96   -40884.479    2632.7834   -43517.262    79.328144 
   27200    214.85258    25.866738    132463.87   -40883.637    2623.8611   -43507.498    79.479685 
   27250    212.57195   -64.124471    132454.48   -40883.443    2596.0092   -43479.452    79.622289 
   27300    206.93111   -22.384095    132386.98   -40907.996    2527.1211   -43435.117    79.642513 
   27350    213.76313   -57.082349    132391.71   -40873.726    2610.5563   -43484.282    79.651842 
   27400    214.43331    21.432445    132367.06   -40869.394    2618.7408   -43488.134    79.844762 
   27450    214.29398     137.4816    132402.93   -40849.492    2617.0393   -43466.531    79.996491 
   27500    213.11345    86.072354    132466.87   -40871.822    2602.6222   -43474.445    80.081783 
   27550    215.82781     48.00299    132477.17   -40800.996    2635.7709   -43436.767    80.173611 
   27600     218.3541   -21.458788    132487.34   -40769.303     2666.623   -43435.926    80.333606 
   27650    216.56343   -20.317392    132524.44   -40762.089    2644.7546   -43406.844    80.589808 
   27700    211.64534   -97.206753    132461.29   -40795.009    2584.6931   -43379.702    80.721624 
   27750    215.55181   -3.8063448    132335.64   -40807.012    2632.4003   -43439.412    81.087842 
   27800    214.54636    93.748431     132293.5    -40808.62    2620.1214   -43428.742    81.345945 
   27850    215.10803    264.51782    132493.69     -40788.5    2626.9807   -43415.481    81.415012 
   27900    217.91212   -36.057163    132580.64    -40762.95    2661.2253   -43424.175    81.469871 
   27950    216.05419   -110.35286    132473.06   -40781.858    2638.5356   -43420.394    81.626674 
   28000    215.29258    -108.7081    132302.63   -40813.219    2629.2346   -43442.454    81.737782 
   28050    210.95914   -52.408886    132114.13    -40776.69    2576.3129   -43353.003    81.923984 
   28100    215.65962  -0.52640365    132232.73   -40809.414     2633.717   -43443.131    82.406347 
   28150    213.99547    40.154479     132410.4   -40780.815    2613.3938   -43394.209    82.495777 
   28200     215.2088     3.310393    132379.29   -40796.721    2628.2113   -43424.932    82.671101 
   28250    217.87899   -53.066205    132226.36   -40838.124    2660.8207   -43498.945    82.611269 
   28300    214.95338     212.5688    132424.43   -40795.773    2625.0921   -43420.865    82.622119 
   28350    214.78369    128.38108    132396.35   -40803.687    2623.0197   -43426.707    82.908156 
   28400    220.51137    8.7148442    132441.44   -40757.772    2692.9684    -43450.74    83.045798 
   28450    217.19719    41.015085    132391.61   -40781.701    2652.4943   -43434.195    83.402599 
   28500    214.57469    80.729366    132492.42   -40841.179    2620.4674   -43461.646    83.716035 
   28550    213.33701    149.87725       132751   -40827.908    2605.3524   -43433.261    83.897094 
   28600      216.307    44.823284    132653.87   -40788.608     2641.623   -43430.231    83.895666 
   28650    217.05668    -254.9643    132640.23    -40779.49    2650.7784   -43430.269    84.144062 
   28700    212.40514   -105.54843    132570.56   -40822.649    2593.9721   -43416.621    83.872779 
   28750    216.95201   -62.566596    132484.06    -40847.35    2649.5001    -43496.85    84.075807 
   28800     211.5192    34.557223       132368   -40835.728    2583.1526    -43418.88    84.190976 
   28850    207.79952   -100.01868    132317.69   -40823.305    2537.7264   -43361.031    84.169604 
   28900    214.22994     31.46966    132347.98   -40804.067    2616.2572   -43420.325    84.292843 
   28950    212.27623    218.10868    132501.82   -40816.625    2592.3977   -43409.022    84.245543 
   29000    210.69249   -190.59128    132505.94   -40818.205    2573.0565   -43391.262     84.44817 
   29050    212.81736    64.246944    132350.66   -40811.228    2599.0062   -43410.234     84.59789 
   29100    219.74515    63.453985    132505.08   -40755.611    2683.6111   -43439.222    84.886593 
   29150    214.55435    17.341616     132651.1   -40791.884    2620.2189   -43412.103    85.217719 
   29200    215.41955   -74.740143    132551.53   -40809.857    2630.7852   -43440.642    85.260224 
   29250    217.46832    10.341253    132653.27    -40792.31    2655.8055   -43448.116    85.183848 
   29300    214.29193    104.84137    132683.41   -40790.132    2617.0142   -43407.146     85.40855 
   29350    215.68757    85.010333     132745.2    -40784.32    2634.0583   -43418.378    85.475252 
   29400    215.13714    106.96382    132731.65    -40798.97    2627.3362   -43426.306    85.392936 
   29450    211.70482     18.38262    132747.28   -40784.124    2585.4194   -43369.544    85.360129 
   29500    213.26772    93.296483    132787.85   -40772.781    2604.5062   -43377.287    85.879218 
   29550      212.689   -10.023049    132879.39   -40754.587    2597.4387   -43352.026    86.062199 
   29600    213.43801   -215.53669    132789.37   -40820.444    2606.5858    -43427.03    86.166077 
   29650    214.36845    21.199155    132555.18   -40794.743    2617.9487   -43412.691    86.353523 
   29700    216.38727   -183.07449    132515.49   -40786.503    2642.6033   -43429.106    86.637352 
   29750     215.0689   -79.789321    132511.24   -40740.725    2626.5029   -43367.228    86.855329 
   29800    218.21049   -63.313143    132436.95   -40696.481    2664.8692    -43361.35    86.753359 
   29850    217.91604   -36.887546    132240.46   -40705.018    2661.2732   -43366.291    86.671717 
   29900    216.70714   -70.659281    132245.27    -40677.26    2646.5096    -43323.77    86.750307 
   29950    219.14897    90.724861    132194.79   -40692.293    2676.3302   -43368.623    86.625896 
   30000    217.15815    8.0650155    132296.28   -40694.207    2652.0175   -43346.225      86.8362 
   30050    215.81816   -78.801002    132264.57   -40698.389    2635.6531   -43334.043    86.939973 
   30100    214.41316     -28.5558    132090.58   -40714.875    2618.4947    -43333.37     86.99234 
   30150      215.342    303.53721    132209.23   -40721.204     2629.838   -43351.042    87.135171 
   30200    213.47502   -140.30282    132281.99   -40765.183    2607.0378   -43372.221    87.266281 
   30250    214.92472   -82.956236    132107.38   -40797.878    2624.7421    -43422.62    87.364303 
   30300    213.85394     16.16545    132103.45    -40799.83    2611.6653   -43411.495    87.652172 
   30350    211.80525    17.233957    132129.96   -40784.032    2586.6459   -43370.678    87.831363 
   30400    212.36229    -65.51042    132283.38   -40797.227    2593.4487   -43390.675    88.019418 
   30450    213.40265      92.6356    132196.19    -40789.23     2606.154   -43395.384    88.042349 
   30500    213.45321    21.657899    132190.05    -40754.52    2606.7714   -43361.291    88.121649 
   30550     217.8397    80.735156    132433.71   -40746.387     2660.341   -43406.728    88.443191 
   30600    218.07994   -43.269354    132498.18   -40708.994    2663.2748   -43372.269    88.513934 
   30650    210.24596   -179.05569    132277.93    -40737.99    2567.6033   -43305.593    88.650612 
   30700    213.24474    25.984899    132197.77   -40723.464    2604.2256    -43327.69     88.91595 
   30750    213.48536    37.127835    132272.16   -40745.558    2607.1641   -43352.722    88.909332 
   30800    218.80418    13.318154     132345.5   -40730.304    2672.1195   -43402.423    89.140338 
   30850    215.46228    78.349639    132217.43   -40723.705    2631.3069   -43355.012    89.189716 
   30900    216.10263    41.450225    132178.92     -40773.5    2639.1272   -43412.627    89.430991 
   30950    214.29625   -76.894433    132241.84   -40798.334     2617.067   -43415.401    89.652813 
   31000    213.91712    135.72546    132162.01   -40797.956    2612.4369   -43410.393    89.631892 
   31050    214.98188    -70.69069    132238.73    -40799.92    2625.4402    -43425.36    89.864238 
   31100    210.72938    130.46385    132195.55   -40774.301     2573.507   -43347.808     90.08156 
   31150    216.55766   -54.959076    132218.94   -40736.543    2644.6842   -43381.227     90.07228 
   31200    211.73727   -151.83609    132234.61   -40742.019    2585.8158   -43327.835    90.474794 
   31250    216.46503   0.29709528    132193.91   -40733.226    2643.5529   -43376.779    90.738899 
   31300    216.09762    77.208649     132251.2   -40696.067     2639.066   -43335.133     90.75248 
   31350     216.4205    10.384206       132380   -40705.545    2643.0091   -43348.554    91.048094 
   31400    211.86907   -19.643717    132444.38     -40719.5    2587.4254   -43306.926    91.353038 
   31450    217.72375   -100.75351    132393.99   -40661.792    2658.9249   -43320.717    91.469836 
   31500    212.83407    -44.28669    132335.67   -40651.603    2599.2103   -43250.813    91.926473 
   31550     216.5242    88.028813    132251.18    -40694.57    2644.2755   -43338.845    91.896927 
   31600    215.35443    186.37165       132567   -40674.214    2629.9899   -43304.204    92.147523 
   31650    216.44666    -20.77236    132757.49   -40684.354    2643.3286   -43327.683    92.251786 
   31700    214.80159   -169.16229    132589.89   -40744.111    2623.2384   -43367.349    92.243393 
   31750    211.85767   -84.221626    132405.67   -40784.785    2587.2861   -43372.071    92.249988 
   31800    214.18839   -11.453909    132326.55   -40775.551    2615.7497   -43391.301    92.353664 
   31850    214.80451   -2.6371772    132223.45   -40767.611     2623.274   -43390.885    92.636056 
   31900    215.08048    35.564744    132277.66   -40737.125    2626.6443   -43363.769    92.835572 
   31950    216.05228   -26.175378    132204.36   -40780.866    2638.5122   -43419.378    92.992174 
   32000    213.89313    109.78841    132091.02   -40742.418    2612.1439   -43354.562    92.992754 
   32050    216.34406    18.899768    132131.02   -40756.778    2642.0756   -43398.854    93.160943 
   32100    212.63689    210.84282    132177.52   -40776.562    2596.8023   -43373.364    93.543086 
   32150    217.15494    82.678743    132318.33   -40758.435    2651.9784   -43410.413    93.674989 
   32200    212.35843   -39.830918    132259.23   -40772.611    2593.4016   -43366.013    93.720185 
   32250    214.22246   -65.301683    132009.45   -40761.038    2616.1659   -43377.204    93.566668 
   32300    209.96821     1.782895     131934.6   -40799.544    2564.2113   -43363.755    93.549001 
   32350    218.70315    1.0724635    131941.67   -40777.859    2670.8857   -43448.745    93.437798 
   32400     212.0984    -158.1922    131956.11   -40798.392     2590.226   -43388.618     93.64025 
   32450     212.7356    99.245794    131940.69   -40802.838    2598.0077   -43400.845    93.808752 
   32500    210.60136   -61.121125    131874.77   -40850.585    2571.9436   -43422.528    93.952044 
   32550    215.84972   -6.3503159    131811.74   -40868.732    2636.0385   -43504.771    94.148041 
   32600    211.14986    97.609331    131848.03   -40841.292     2578.642   -43419.934    94.417792 
   32650    214.39986   -71.219032    131943.27   -40847.141    2618.3323   -43465.474    94.597367 
   32700    213.58859   -4.6604818     131905.1   -40848.644    2608.4248   -43457.069    94.753404 
   32750    218.45432   -96.939348    131880.48   -40828.818    2667.8469   -43496.665     94.81082 
   32800    214.95262    72.865315    132046.47   -40805.086    2625.0828   -43430.169     95.00544 
   32850    217.35734    52.677187    132065.33   -40826.895    2654.4501   -43481.346    95.370682 
   32900    219.90776    28.755003    132073.18   -40773.801    2685.5969   -43459.398    95.415788 
   32950    213.67452   -93.558763    132166.32   -40845.076    2609.4742   -43454.551    95.684203 
   33000    212.73712   -112.98363    132030.41   -40815.463    2598.0263   -43413.489    95.592095 
   33050    216.04263    43.046081    132093.92   -40843.687    2638.3945   -43482.081    95.773309 
   33100    216.82464   -22.898966    132149.46   -40841.449    2647.9447   -43489.394     96.32525 
   33150    217.31085    112.78257     132225.4   -40817.925    2653.8824   -43471.807    96.515535 
   33200    216.70775    133.60918    132332.23   -40795.187    2646.5172   -43441.704    96.837608 
   33250    215.93883    25.282951    132363.15   -40824.817    2637.1268   -43461.943    97.160105 
   33300    215.42235   -112.39176    132396.56   -40821.123    2630.8193   -43451.942    97.573925 
   33350    215.43528    -106.7197    132392.82    -40823.65    2630.9773   -43454.627    97.607738 
   33400    219.20506    238.41871    132483.56   -40801.588    2677.0153   -43478.603     97.74065 
   33450    216.37098   -1.3147242    132578.03   -40821.608    2642.4044   -43464.012      97.7418 
   33500    217.16552   -67.086807    132595.57   -40817.183    2652.1076   -43469.291    97.964878 
   33550      210.899    71.419714    132502.89   -40838.622    2575.5784     -43414.2     98.20716 
   33600    214.04984    303.12655    132552.06   -40862.022    2614.0577    -43476.08    98.433978 
   33650    214.30809   -48.928849    132707.61   -40852.849    2617.2115    -43470.06    98.411257 
   33700    215.21544     27.00713     132684.1   -40869.561    2628.2925   -43497.853    98.502661 
   33750    211.15529   -94.832556    132684.21   -40864.332    2578.7084    -43443.04     98.73199 
   33800    212.36763    19.163084    132671.39   -40858.108     2593.514   -43451.622    99.154751 
   33850     220.9019     -26.2303    132686.91   -40753.725    2697.7377   -43451.463    99.261367 
   33900    217.90904    174.67966    132689.57   -40773.606    2661.1878   -43434.794    99.272656 
   33950    221.74312   -23.445514    132733.41    -40777.59     2708.011   -43485.601    99.288089 
   34000    213.08076     136.0164    132718.44   -40820.246     2602.223   -43422.469    99.297416 
   34050    215.73766    8.1549036    132799.94   -40868.796      2634.67   -43503.466    99.707254 
   34100    210.65124   -80.508155    132844.43    -40899.93    2572.5528   -43472.483     99.73929 
   34150    213.63867    102.56544    132873.41   -40888.373    2609.0364   -43497.409    99.761303 
   34200    214.28931    11.835483    133013.78   -40844.626    2616.9822   -43461.608    99.926227 
   34250    216.58981   -129.00281    132999.79   -40846.345    2645.0767   -43491.422    99.889393 
   34300    215.91544   -82.041632    132821.02   -40866.167    2636.8411   -43503.008    99.825617 
   34350    214.23121   -48.065681     132645.4   -40901.405    2616.2726   -43517.677     99.81982 
   34400    213.39521    67.031675    132587.44   -40874.432    2606.0631   -43480.495    100.07959 
   34450    213.12523    156.39424    132597.47   -40935.626     2602.766   -43538.392    100.27783 
   34500    212.56063    -87.67903    132621.24   -40951.941    2595.8709   -43547.812    100.26043 
   34550    210.34657   -111.50967    132535.47   -40961.145     2568.832   -43529.977    100.23624 
   34600     213.0799    38.682076    132478.05   -40947.464    2602.2124   -43549.677    100.24739 
   34650    212.10396     50.86294    132588.57   -40936.189    2590.2939   -43526.483     100.2331 
   34700    215.06738   -197.15537    132492.65   -40961.698    2626.4843   -43588.182    100.33154 
   34750    215.33111    247.08942    132455.88   -40951.864    2629.7051   -43581.569     100.3269 
   34800    217.33733    157.52637    132590.14   -40929.395    2654.2058   -43583.601    100.38388 
   34850    213.38709   -67.433263    132720.12   -40946.929     2605.964   -43552.893    100.69338 
   34900    212.26082    28.240144    132623.75   -40922.816    2592.2095   -43515.025     100.8417 
   34950    214.56246  -0.70569712    132602.32   -40892.405    2620.3181   -43512.724     100.6398 
   35000    216.79129    53.134854    132567.11   -40874.941    2647.5374   -43522.478    100.66553 
   35050    217.23528    11.403512    132435.93    -40897.47    2652.9595   -43550.429    100.90943 
   35100    218.23783    42.621049    132416.76   -40894.915     2665.203   -43560.118    101.04284 
   35150    220.67753   -44.357899    132463.48   -40892.819    2694.9976   -43587.817    101.00693 
   35200    220.63508   -29.724673    132541.36   -40886.037    2694.4792   -43580.516    101.25725 
   35250    216.10823   -16.116075    132479.69   -40860.781    2639.1956   -43499.976    101.50458 
   35300    216.47049   -8.5763009    132411.67   -40888.644    2643.6196   -43532.264    101.65231 
   35350    218.25195   -40.216432    132321.54   -40926.406    2665.3755   -43591.782    101.78828 
   35400    213.16956    81.858203    132418.85   -40912.682    2603.3074   -43515.989    101.79548 
   35450    219.94637   -46.567497    132564.24   -40902.618    2686.0684   -43588.686    102.14771 
   35500    217.20529    163.56429    132722.36   -40867.981    2652.5932   -43520.574    102.38605 
   35550    215.51624   -43.569404    132795.05   -40860.343     2631.966   -43492.309    102.35962 
   35600    214.47959    6.0007744    132553.31   -40874.296     2619.306   -43493.602    102.13373 
   35650    214.49914   -24.107794    132679.24   -40859.605    2619.5447   -43479.149     102.0953 
   35700    216.08696    65.603066    132602.34   -40857.351    2638.9359   -43496.286    102.08595 
   35750    217.92599   -33.905472    132580.69   -40787.888    2661.3948   -43449.283    102.24084 
   35800    214.42253   -184.65756    132601.01   -40766.852    2618.6092   -43385.461    102.24357 
   35850    220.29203   -85.352326    132442.93   -40757.552    2690.2898   -43447.842    102.31995 
   35900    217.48142    212.52734    132611.77   -40734.763    2655.9655   -43390.728    102.67503 
   35950    219.86687   -56.004033    132557.45   -40758.812    2685.0975   -43443.909    102.90165 
   36000    219.20314   -186.72479     132524.3   -40771.596    2676.9918   -43448.588    103.06161 
   36050    216.69081   0.22910886    132367.77   -40860.382    2646.3103   -43506.693    103.24707 
   36100    215.14906    114.62977    132537.84    -40830.85    2627.4818   -43458.332    103.59144 
   36150    216.13474    -73.46963    132520.46   -40779.793    2639.5193   -43419.313    103.67927 
   36200    216.69893    44.332467    132502.54   -40804.639    2646.4094   -43451.049    103.67351 
   36250     212.7545    86.614722    132473.38   -40819.702    2598.2385    -43417.94    103.69516 
   36300    213.45799     94.51525       132657   -40847.855    2606.8298   -43454.685    103.76581 
   36350    209.56101   -192.15429    132547.85   -40795.946    2559.2384   -43355.184    103.82982 
   36400    214.29075   -61.018694    132338.42   -40794.779    2616.9999   -43411.779      103.781 
   36450    215.89256    107.19682    132330.04   -40742.526    2636.5617   -43379.087    104.07032 
   36500    217.25777    104.69864    132410.52    -40752.57    2653.2341   -43405.804    104.14826 
   36550    215.27454    11.531453    132449.78   -40789.451    2629.0142   -43418.465    104.08787 
   36600    212.95082    -4.049038    132551.47   -40791.554    2600.6361    -43392.19     104.6131 
   36650    214.68342   -53.469855    132425.55   -40756.603    2621.7953   -43378.399    104.82856 
   36700    215.63714   -17.749699    132404.09   -40795.984    2633.4425   -43429.426    105.04812 
   36750    217.46142   -20.460536    132436.33   -40805.968    2655.7212    -43461.69    105.34062 
   36800    211.63699   -53.834716    132387.52   -40828.311    2584.5911   -43412.902    105.51708 
   36850    209.56013    6.2069632    132291.85   -40862.314    2559.2276   -43421.542    105.66891 
   36900    217.94604    91.651803    132395.22   -40817.015    2661.6396   -43478.655    106.07208 
   36950    212.38569   0.23900381    132556.95   -40808.639    2593.7344   -43402.374    106.41378 
   37000    212.27128    5.8272683    132579.73   -40805.479    2592.3373   -43397.816    106.32871 
   37050    219.56045    -74.39083    132442.61   -40751.959    2681.3554   -43433.315    106.31904 
   37100    211.93753    28.754557     132516.1   -40791.167    2588.2614   -43379.429    106.60004 
   37150    212.13565   -31.317869     132483.3    -40810.89    2590.6809   -43401.571    106.84341 
   37200    214.36259    138.06265    132330.42   -40749.914    2617.8771   -43367.791    106.99924 
   37250    214.19875    47.650302    132284.56   -40744.421    2615.8763   -43360.297    107.23315 
   37300    213.89196    177.81507    132513.01   -40711.138    2612.1296   -43323.268    107.45635 
[...]
  191000    218.18513    82.144813    132456.56   -40763.595    2664.5595   -43428.155    527.70255 
  191050    216.95664   -71.225539    132492.16   -40718.092    2649.5567   -43367.649    528.09072 
  191100    218.11088   -23.172328    132479.08   -40703.524    2663.6526   -43367.176    528.25708 
  191150    215.11834   -34.674274    132394.06   -40730.505    2627.1067   -43357.612    527.97906 
  191200    221.64244   -161.81967    132331.53   -40774.393    2706.7814   -43481.174    528.29429 
  191250    214.35358    33.630688    132223.03   -40760.536    2617.7671   -43378.303     528.2343 
  191300    216.43527     -91.9276    132184.64   -40802.175    2643.1895   -43445.364    528.18442 
  191350    213.81142    49.287743    132213.98   -40826.054    2611.1461     -43437.2    528.44877 
  191400    215.29391   -51.113616    132246.89   -40840.487    2629.2508   -43469.737    528.40183 
  191450    219.24908     6.456327    132274.69   -40824.365    2677.5528   -43501.918    528.74733 
  191500     220.2528    14.789755    132360.94   -40802.929    2689.8106    -43492.74    529.37511 
  191550    215.48651    65.716724    132388.12   -40823.662    2631.6028   -43455.265    529.24799 
  191600    217.02397    41.622135     132437.2   -40780.491    2650.3789    -43430.87    529.69675 
  191650    215.44566    38.073166    132554.36   -40835.647     2631.104   -43466.751    529.97144 
  191700    218.82322   -102.85618    132462.85   -40843.762     2672.352   -43516.114    529.64381 
  191750    215.10803   -105.79245    132465.87   -40848.597    2626.9808   -43475.578    529.69626 
  191800    217.11112   -214.93212    132328.71   -40858.755    2651.4432   -43510.199    529.85177 
  191850    220.57079   -107.42543    132260.93   -40817.349     2693.694   -43511.043     529.6948 
  191900    216.72994    178.52728    132251.34   -40838.073    2646.7882   -43484.861    529.89061 
  191950    220.23825    131.97525    132451.19   -40779.034    2689.6329   -43468.667    530.50419 
  192000    217.42941    24.247173    132481.84    -40815.82    2655.3303    -43471.15    530.86737 
  192050    216.89557   -134.80059     132342.3   -40816.927    2648.8109   -43465.738    530.78646 
  192100     216.5687    84.874019    132296.99   -40797.843     2644.819   -43442.662    530.90256 
  192150    222.38849    8.2119466    132400.25   -40772.387    2715.8925    -43488.28    531.32644 
  192200    213.01038  -0.90519334    132461.83   -40785.043    2601.3634   -43386.406    531.49988 
  192250    222.40034    59.254769    132281.35   -40724.096    2716.0372   -43440.134    531.34298 
  192300    220.81136   -53.415668    132280.08   -40706.776    2696.6319   -43403.408     531.1765 
  192350    219.53132 -0.099166758    132363.14   -40744.158    2680.9997   -43425.157    530.84433 
  192400    219.44743    65.041601    132374.06   -40766.465    2679.9751    -43446.44    531.57857 
  192450    214.02737    17.073791    132362.67   -40800.546    2613.7833   -43414.329    531.40935 
  192500    220.43745    76.796261    132390.68   -40764.498    2692.0656   -43456.563    531.35507 
  192550    213.58445   -54.238835    132411.15   -40803.523    2608.3742   -43411.897    531.25629 
  192600    206.82554   -11.975607    132404.18   -40808.887    2525.8319   -43334.719    531.75985 
  192650    214.76034   -72.532765    132316.97   -40789.216    2622.7346   -43411.951    532.24371 
  192700    214.64912    -169.0348    132264.89   -40787.422    2621.3763   -43408.798     532.0479 
  192750     216.3575   -50.923525    132271.49    -40782.87    2642.2397    -43425.11    531.50615 
  192800    216.05994    -39.13821    132119.95    -40801.83    2638.6059   -43440.436    531.44387 
  192850    217.29318    109.51429       132052   -40798.066    2653.6666   -43451.732    531.66455 
  192900    213.46735   -70.032365    131933.17   -40788.635    2606.9441   -43395.579    531.32303 
  192950    214.04293    41.546681    131875.01   -40803.548    2613.9733   -43417.521    531.02075 
  193000    212.69089    42.893675    131965.03   -40803.578    2597.4618    -43401.04     531.6699 
  193050    217.14219    11.994914    131838.47   -40770.771    2651.8227   -43422.593    531.88737 
  193100    218.98892   -30.279339    131838.33   -40722.308    2674.3756   -43396.684    532.10809 
  193150    216.77697    166.65055     131893.3   -40730.759    2647.3624   -43378.121    531.89072 
  193200    212.75146    127.41087    132105.01   -40737.281    2598.2015   -43335.483    532.79805 
  193250    216.15265      190.061    132154.77   -40744.756     2639.738   -43384.494    532.88808 
  193300    220.31156   -180.22631    132329.06   -40721.108    2690.5282   -43411.637    533.37788 
  193350    216.40682    37.099111    132230.76   -40718.229     2642.842   -43361.071     533.2738 
  193400    216.42598    32.349432    132211.46   -40714.007     2643.076   -43357.083    533.11081 
  193450    210.69097    110.66798    132192.43   -40769.485    2573.0379   -43342.522    533.14643 
  193500    214.56349   -61.427778    132274.11   -40792.831    2620.3306   -43413.162    533.30804 
  193550    217.08337    35.531314     132256.5   -40800.581    2651.1043   -43451.685    533.21624 
  193600    215.05962   -275.71971    132119.94   -40794.011    2626.3896   -43420.401    532.96168 
  193650    211.13429    27.026701     132133.9   -40767.232    2578.4519   -43345.684    533.03068 
  193700    216.99822    30.421159    132103.87   -40724.039    2650.0645   -43374.104     533.0764 
  193750    218.03676   -49.434658    132155.62   -40708.107    2662.7474   -43370.854    533.56927 
  193800    215.20705   -120.23965    132124.64   -40674.227    2628.1901   -43302.417    534.48333 
  193850    218.14091   -229.23787     132081.3   -40654.554    2664.0194   -43318.573    534.85213 
  193900    215.08028     61.53935     132135.6   -40717.575    2626.6418   -43344.217    535.77968 
  193950    214.81823   -13.840412    132059.47   -40672.777    2623.4416   -43296.219    536.07353 
  194000    213.69998    162.40693    132095.54   -40725.614    2609.7851   -43335.399    535.36281 
  194050    213.43491   -50.100454    132158.83   -40719.799    2606.5479   -43326.347    535.39875 
  194100    213.14016    106.09846    132178.78   -40722.967    2602.9484   -43325.916    535.30642 
  194150    215.78684   -160.34153    132122.52   -40737.229    2635.2706     -43372.5    535.84241 
  194200    217.31678    -53.89482    132008.58   -40720.167    2653.9548   -43374.122    535.57577 
  194250    217.88635     103.5346    132065.68    -40694.22    2660.9106    -43355.13    535.71522 
  194300    218.17248   -11.958247    132150.36   -40696.469    2664.4049   -43360.874     536.4505 
  194350    219.88873   -110.37012    132109.73    -40750.48    2685.3645   -43435.844    536.86021 
  194400    215.57153    -17.34832    132039.01    -40758.96    2632.6412   -43391.601     536.5366 
  194450    217.16836   -28.142991    132062.13     -40779.3    2652.1423   -43431.442    536.36045 
  194500    213.86649    16.539554    132008.21   -40774.981    2611.8185     -43386.8    536.49525 
  194550    211.53555   -181.99317    132048.66   -40757.639    2583.3522   -43340.991    536.35593 
  194600    217.24535    24.138578    131967.82   -40763.319    2653.0825   -43416.402    536.06575 
  194650     214.9111   -107.51445    131952.86   -40763.688    2624.5757   -43388.264    536.25696 
  194700    210.76211   -59.782435    131756.89   -40819.185    2573.9067   -43393.092    535.60411 
  194750     213.7527    153.57778     131851.9   -40746.114    2610.4289   -43356.543    536.20729 
  194800    215.90396    13.969334    131975.37   -40717.767    2636.7009   -43354.468    536.79737 
  194850    217.37266   -54.801065    131918.76   -40750.389    2654.6372   -43405.026    536.88686 
  194900    215.10327   -92.875657    132026.88   -40780.903    2626.9226   -43407.825    537.98255 
  194950     214.2174   -12.550117    132037.15   -40758.494     2616.104   -43374.598    538.09415 
  195000    218.96631   -3.9495261    132091.58   -40712.951    2674.0995   -43387.051    538.65451 
  195050     213.2965   -13.970402    132091.86   -40758.218    2604.8576   -43363.076    538.73935 
  195100    215.38929   -266.69772     132027.3   -40772.359    2630.4156   -43402.774    538.68628 
  195150    216.37107   -30.903881    131944.11    -40761.38    2642.4054   -43403.786    538.41029 
  195200     211.9613    40.123484    131885.38   -40724.759    2588.5517    -43313.31    537.95546 
  195250    211.51713    -67.78098    131765.64   -40798.612    2583.1273   -43381.739     537.6368 
  195300    213.74519    150.46424    131816.84   -40730.114    2610.3372   -43340.451    537.27342 
  195350    213.50852   -57.201982    131847.09    -40743.32     2607.447   -43350.767    537.81326 
  195400    217.72109    92.781311    131879.23   -40733.837    2658.8925   -43392.729    538.04559 
  195450    215.66704    36.146769    131961.47   -40742.778    2633.8076   -43376.585    538.36719 
  195500    212.53635   -74.059622    131961.91   -40754.354    2595.5744   -43349.928    538.56024 
  195550    217.28654    45.789061    131927.03   -40748.411    2653.5855   -43401.996    538.51127 
  195600    219.96342    10.800486    132086.22   -40773.652    2686.2766   -43459.929    538.78946 
  195650    217.84349     14.17202     132268.8   -40734.292    2660.3872   -43394.679    538.85038 
  195700    218.60683   -91.353936    132243.56   -40689.004    2669.7094   -43358.714    539.42466 
  195750    214.47879   -33.482512    131990.97   -40711.303    2619.2962   -43330.599    538.99799 
  195800    218.45324    107.79275    131939.12   -40697.122    2667.8337   -43364.956    539.23872 
  195850    215.51492   -132.98479    131887.79   -40730.316    2631.9498   -43362.266    539.38539 
  195900    216.90437   -186.28987    131654.05   -40715.444    2648.9184   -43364.362    538.90892 
  195950    215.07397    44.790542    131615.59   -40732.542    2626.5648   -43359.107     539.3589 
  196000    220.52516    23.992141    131766.36   -40686.957    2693.1368   -43380.094    540.22538 
  196050    216.53907   -3.7718654    131871.57   -40664.819    2644.4572   -43309.276    540.32803 
  196100    211.78281   -122.05352    131682.02   -40686.964    2586.3718   -43273.336    540.24477 
  196150    219.74561    63.752162    131819.12   -40662.624    2683.6166    -43346.24    541.04834 
  196200    217.01811   -104.19049    131809.88   -40666.665    2650.3074   -43316.972    541.03483 
  196250    215.60383    74.054516    131826.55   -40653.716    2633.0356   -43286.752    541.27485 
  196300    216.05448   -71.121809     131867.5   -40706.912    2638.5392   -43345.451    541.79504 
  196350    212.70899   -5.9129589    131693.36   -40733.937    2597.6828    -43331.62     541.7175 
  196400     212.1906   -50.872723    131752.05   -40748.449     2591.352   -43339.801    541.71654 
  196450    212.23579   -89.402348    131836.72   -40742.781    2591.9039   -43334.685    542.25628 
  196500    215.42094    54.779778    131830.76   -40722.219    2630.8021   -43353.021    542.24792 
  196550    213.31524    4.9072798    131911.77   -40779.393    2605.0865   -43384.479    542.69112 
  196600    214.81821    44.538682    131929.46   -40762.121    2623.4414   -43385.562    543.06873 
  196650    215.42964    82.449991    132066.12   -40737.109    2630.9083   -43368.018    543.63601 
  196700    214.44606   -116.32899    131976.34   -40713.033    2618.8965   -43331.929    544.09137 
  196750    219.45904   -138.53392    131949.78   -40642.149    2680.1169   -43322.266    544.36665 
  196800    219.15228   -28.881807     131890.1   -40584.392    2676.3707   -43260.762    543.87712 
  196850    217.48119   -32.110663    131845.78   -40580.542    2655.9627   -43236.505    544.05311 
  196900     220.6684   -31.112708    131841.71   -40598.649    2694.8861   -43293.536    543.88791 
  196950      220.481   -63.444914    131808.85   -40607.893    2692.5975    -43300.49    544.00858 
  197000    213.89382   -43.258551    131726.56   -40631.112    2612.1524   -43243.264    544.00147 
  197050    213.87609    33.700507     131822.3   -40601.462    2611.9358   -43213.398    544.51102 
  197100    216.99073    179.93869    131911.05    -40587.26    2649.9729   -43237.233    544.27295 
  197150    218.82442    154.78691    132082.46    -40520.29    2672.3667   -43192.656    545.11007 
  197200    220.19438   -77.933913    132011.02   -40531.756    2689.0972   -43220.853    545.08768 
  197250    217.83052   -2.7571735    131863.96   -40588.723    2660.2288   -43248.951    544.89271 
  197300    216.73042    -3.091394    131862.93   -40626.864     2646.794   -43273.658    545.50146 
  197350    215.15897    48.367643    131886.23   -40610.815    2627.6029   -43238.418    545.29706 
  197400    214.23588    144.07653    132038.13   -40653.993    2616.3297   -43270.323    545.25823 
  197450    216.02357    54.780764    132148.88   -40562.651    2638.1616   -43200.813    545.92141 
  197500    217.79076   -17.804487    132142.35   -40631.597    2659.7432    -43291.34    545.99268 
  197550    217.48729   -70.312885     132142.8   -40631.475    2656.0372   -43287.513    546.27946 
  197600    219.57819   -50.968756    132023.71   -40586.535    2681.5721   -43268.107    546.25047 
  197650    219.63268   -70.417611    131984.79   -40589.574    2682.2374   -43271.811    545.85387 
  197700    214.73123   -13.396849    131888.55   -40570.005    2622.3792   -43192.385    545.86395 
  197750     217.7227   -122.26815    131910.45   -40605.313    2658.9121   -43264.225    546.18483 
  197800    216.42511    23.299041    132029.57   -40606.144    2643.0654   -43249.209    546.81161 
  197850    218.32027   -5.4528453    132044.62   -40630.254    2666.2098   -43296.464    547.00883 
  197900    218.44995    36.766122    132072.79   -40607.601    2667.7935   -43275.395    547.19335 
  197950     217.0658   -49.502338    131896.45   -40627.029    2650.8898   -43277.918    546.40454 
  198000    216.37605    109.67559     131965.7   -40676.177    2642.4663   -43318.643    547.10072 
  198050    215.33382   -60.598876    131982.76   -40680.834    2629.7382   -43310.572    547.20619 
  198100    219.40634   -107.06341    131863.19   -40657.406    2679.4733   -43336.879    546.98295 
  198150    213.09082   -59.239463    131764.99   -40732.536    2602.3458   -43334.881    547.22274 
  198200    216.67057   -128.60632    131746.74   -40740.173     2646.063   -43386.236    547.30877 
  198250     214.7243    139.68014    131771.34   -40720.187    2622.2945   -43342.482    547.30247 
  198300    216.33924    166.00552    131954.22   -40675.364    2642.0167   -43317.381    547.55466 
  198350    221.80868   -131.37836    132101.98   -40630.713    2708.8117   -43339.525     547.9006 
  198400    218.36403    122.55495    132047.52   -40637.265    2666.7443    -43304.01    548.05812 
  198450     216.1145    20.792365    132091.55    -40669.16    2639.2721   -43308.432    548.25826 
  198500    215.67224   -95.518782     132010.9   -40628.686    2633.8711   -43262.558    548.28836 
  198550      215.203    27.183971    132062.34   -40674.491    2628.1406   -43302.631    548.87754 
  198600    218.96609     96.63639    132002.08   -40727.146    2674.0968   -43401.243    549.43772 
  198650    216.99362   -73.486125     131943.7   -40731.211    2650.0082    -43381.22    549.79972 
  198700    213.77386    5.7812288    131971.59   -40770.295    2610.6873   -43380.982    550.04139 
  198750    214.25626   -25.034308    131969.95   -40771.552    2616.5787    -43388.13    550.30664 
  198800    212.81828   -13.212745    131989.93   -40776.168    2599.0175   -43375.185    550.21905 
  198850    214.00459   -31.588724    132202.65   -40809.049    2613.5051   -43422.554    551.29706 
  198900    209.96604  -0.27443652     132147.3   -40814.988    2564.1848   -43379.173    551.71648 
  198950    213.69239   -103.19208    132108.36   -40773.301    2609.6924   -43382.994    551.96331 
  199000    214.94218    100.86778    132084.95   -40755.682    2624.9554   -43380.637    552.90436 
  199050    208.54749   -82.610383    132089.48   -40797.779    2546.8609    -43344.64     552.5605 
  199100    213.11799    64.901942    132041.39   -40787.483    2602.6776    -43390.16    552.20082 
  199150    214.06365   -1.5939716    132096.51   -40769.079    2614.2264   -43383.305    552.30506 
  199200    213.92344     114.1753    132042.13   -40769.832    2612.5141   -43382.346    552.58754 
  199250    217.37827    112.58722    132264.78   -40745.761    2654.7058   -43400.466    553.15684 
  199300    212.73814     57.93347     132298.7   -40771.954    2598.0387   -43369.993    553.61337 
  199350    212.97997   -37.964691    132190.86   -40793.406    2600.9921   -43394.398    553.05647 
  199400    219.34995   -27.139428    132274.15   -40713.212    2678.7847   -43391.997    553.68283 
  199450    215.34817   -76.432532    132291.41   -40716.704    2629.9135   -43346.617    553.99442 
  199500    213.68795   -40.676788    132300.42   -40717.028    2609.6382   -43326.667    553.89155 
  199550    216.81683   -32.356921    132248.89    -40746.22    2647.8492   -43394.069     553.5091 
  199600    217.29903    54.515563    132331.02   -40753.831    2653.7381   -43407.569     553.6922 
  199650    218.71591    39.664569    132379.77   -40697.584    2671.0415   -43368.625    553.92813 
  199700    217.47036    12.856351    132349.14    -40732.62    2655.8304   -43388.451    554.15387 
  199750    216.27058    18.849347    132360.04   -40721.308    2641.1783   -43362.486    554.20388 
  199800    222.57777   -31.059942    132263.01   -40656.493    2718.2041   -43374.697    553.74894 
  199850    213.25152   -163.74733    132274.33   -40686.993    2604.3084   -43291.302    553.57905 
  199900    216.98661   -22.116326    132229.84   -40708.106    2649.9227   -43358.029    553.59575 
  199950    217.69354   -83.617868    132157.53   -40697.284     2658.556    -43355.84    553.43104 
  200000     219.5666      160.585    132167.36   -40716.598    2681.4304   -43398.028    553.75527 
Loop time of 334.996 on 12 procs for 200000 steps with 4098 atoms

Performance: 257.913 ns/day, 0.093 hours/ns, 597.022 timesteps/s
99.5% CPU use with 12 MPI tasks x no OpenMP threads

MPI task timing breakdown:
Section |  min time  |  avg time  |  max time  |%varavg| %total
---------------------------------------------------------------
Pair    | 238.39     | 277.37     | 299.68     | 155.1 | 82.80
Neigh   | 6.2365     | 7.0983     | 7.6773     |  22.0 |  2.12
Comm    | 21.335     | 43.869     | 83.303     | 395.9 | 13.10
Output  | 0.14893    | 0.17324    | 0.42784    |  18.4 |  0.05
Modify  | 4.9284     | 5.1101     | 5.3307     |   5.7 |  1.53
Other   |            | 1.374      |            |       |  0.41

Nlocal:    341.5 ave 372 max 293 min
Histogram: 3 1 0 0 0 0 0 0 5 3
Nghost:    964.25 ave 1010 max 908 min
Histogram: 2 2 0 0 0 0 3 2 1 2
Neighs:    0 ave 0 max 0 min
Histogram: 12 0 0 0 0 0 0 0 0 0
FullNghs:  11131.7 ave 12349 max 9287 min
Histogram: 3 1 0 0 0 0 0 2 3 3

Total # of neighbors = 133580
Ave neighs/atom = 32.5964
Neighbor list builds = 11821
Dangerous builds = 0

write_data		${DIR}/data.eq-${NAME}-${TEMP}
write_data		run_6/data.eq-${NAME}-${TEMP}
write_data		run_6/data.eq-hardcavity_freeze_6-${TEMP}
write_data		run_6/data.eq-hardcavity_freeze_6-215
undump          1

reset_timestep  0

unfix           2
unfix           3
unfix           4


################################################
#######         Run Simulation         #########
################################################

log				${DIR}/log.run_${NAME}
log				run_6/log.run_${NAME}
log				run_6/log.run_hardcavity_freeze_6
