
### Dimensions ###


### IMPORT ATOMS ###
read_data ../Box_Setup/data.Ibeam_240K
Reading data file ...
  orthogonal box = (0.0000000 0.0000000 0.0000000) to (68.908000 85.848302 27.975384)
  8 by 8 by 2 MPI processor grid
  reading atoms ...
  8493 atoms
  reading velocities ...
  8493 velocities
  read_data CPU = 0.020 seconds
group water type 2
1689 atoms in group water
group graphite type 1
6804 atoms in group graphite


# Define potential
#
pair_style          sw
pair_coeff * * MLC_e.sw C mW

# Add velocity/set timestep
#

fix		1 graphite setforce 0.0 0.0 0.0
velocity 	graphite set 0.0 0.0 0.0
velocity            water create ${START_TEMP} ${SEED} rot yes dist gaussian
velocity            water create 240 ${SEED} rot yes dist gaussian
velocity            water create 240 32412 rot yes dist gaussian
timestep            5.0

# Define output
#
compute 1 water msd
compute 2 water temp


thermo	            100
thermo_style custom step c_2 press vol etotal ke pe c_1[4] density

# Neighbor lists
#
neigh_modify        delay 0 every 1 check yes


# Set fixes
#
fix                 2 water momentum 10 linear 1 1 1 rescale
fix		3 water nvt temp ${START_TEMP} ${START_TEMP} $(100.0*dt)
fix		3 water nvt temp 240 ${START_TEMP} $(100.0*dt)
fix		3 water nvt temp 240 240 $(100.0*dt)
fix		3 water nvt temp 240 240 500

# Run 0.05 ns equilibration
#
dump                1 all custom 100 ${DIR}/eq.${NAME}.dump id type x y z vx vy vz
dump                1 all custom 100 run_5/eq.${NAME}.dump id type x y z vx vy vz
dump                1 all custom 100 run_5/eq.ibeam_cooling_5.dump id type x y z vx vy vz
run                 10000
Neighbor list info ...
  update every 1 steps, delay 0 steps, check yes
  max neighbors/atom: 2000, page size: 100000
  master list distance cutoff = 6.6747184
  ghost atom cutoff = 6.6747184
  binsize = 3.3373592, bins = 21 26 9
  1 neighbor lists, perpetual/occasional/extra = 1 0 0
  (1) pair sw, perpetual
      attributes: full, newton on
      pair build: full/bin/atomonly
      stencil: full/bin/3d
      bin: standard
Per MPI rank memory allocation (min/avg/max) = 3.603 | 4.507 | 4.728 Mbytes
Step c_2 Press Volume TotEng KinEng PotEng c_1[4] Density 
       0          240   -298.97748    165492.15   -16025.669    1207.5858   -17233.255            0    1.1252403 
     100    238.46871   -624.00956    165492.15   -16038.361    1199.8809   -17238.242   0.85794119    1.1252403 
     200    238.15798    -408.9735    165492.15   -16094.333    1198.3174   -17292.651    1.2733887    1.1252403 
     300    236.74908   -602.66543    165492.15   -16110.763    1191.2284   -17301.991     1.681203    1.1252403 
     400    239.13028   -518.06658    165492.15   -16090.241    1203.2097    -17293.45    2.1396974    1.1252403 
     500    239.87539   -463.88841    165492.15   -16068.857    1206.9588   -17275.816    2.5633963    1.1252403 
     600    237.84446   -378.94178    165492.15   -16038.719      1196.74   -17235.459    2.9754237    1.1252403 
     700    244.28805   -430.35595    165492.15   -16008.913    1229.1616   -17238.075    3.4050211    1.1252403 
     800    238.04067   -538.62819    165492.15   -16003.306    1197.7272   -17201.033    4.0388545    1.1252403 
     900    243.89297   -421.51853    165492.15   -16007.446    1227.1737   -17234.619    4.5210037    1.1252403 
    1000    241.21621   -376.58337    165492.15   -16062.807    1213.7053   -17276.512    5.0079674    1.1252403 
    1100    231.25991   -448.24899    165492.15   -16092.799    1163.6091   -17256.408     5.463212    1.1252403 
    1200    231.71385   -459.41947    165492.15     -16072.3    1165.8931   -17238.193    5.8807903    1.1252403 
    1300    233.47019   -556.94587    165492.15   -16043.972    1174.7303   -17218.702      6.39719    1.1252403 
    1400    242.22002   -354.98411    165492.15   -16025.407    1218.7561   -17244.163    6.8910216    1.1252403 
    1500    244.91914   -601.46008    165492.15   -16010.119     1232.337   -17242.456    7.3389345    1.1252403 
    1600    246.67444   -455.08949    165492.15   -15996.647    1241.1689   -17237.816    7.9234656    1.1252403 
    1700    238.15333   -334.58397    165492.15   -16037.413     1198.294   -17235.707    8.3385778    1.1252403 
    1800    236.89136   -292.57422    165492.15   -16075.827    1191.9443   -17267.771    8.6839847    1.1252403 
    1900    229.72727   -469.65276    165492.15   -16097.077    1155.8974   -17252.974    8.9365155    1.1252403 
    2000    232.41825    -327.7433    165492.15   -16102.108    1169.4374   -17271.546     9.321315    1.1252403 
    2100    248.49232   -390.73519    165492.15   -16068.187    1250.3158   -17318.502    9.4181822    1.1252403 
    2200    243.21614    -444.2278    165492.15   -16027.615    1223.7681   -17251.383     9.772098    1.1252403 
    2300    239.16869   -420.75027    165492.15   -16021.336    1203.4029   -17224.739    10.225344    1.1252403 
    2400     239.8003   -371.99188    165492.15   -16067.772    1206.5809   -17274.353    10.732185    1.1252403 
    2500    239.19601   -591.03743    165492.15   -16107.405    1203.5404   -17310.945    11.416883    1.1252403 
    2600      239.939   -470.35346    165492.15   -16099.369    1207.2788   -17306.647    11.960159    1.1252403 
    2700     238.2433   -451.30839    165492.15   -16078.486    1198.7467   -17277.232    12.507144    1.1252403 
    2800    235.30336   -400.17836    165492.15   -16054.968    1183.9541   -17238.922    12.822363    1.1252403 
    2900    241.44832   -440.05756    165492.15   -16040.884    1214.8731   -17255.757    13.106513    1.1252403 
    3000    245.53063   -377.48413    165492.15   -16051.515    1235.4137   -17286.929    13.449978    1.1252403 
    3100     238.2097   -621.90626    165492.15   -16064.684    1198.5777   -17263.262    13.658052    1.1252403 
    3200    247.26407    -540.6798    165492.15   -16079.617    1244.1357   -17323.753    13.799136    1.1252403 
    3300    239.27481    -315.0449    165492.15   -16121.977    1203.9369   -17325.914    14.211195    1.1252403 
    3400    231.26051   -419.32212    165492.15   -16160.422    1163.6121   -17324.034    14.298772    1.1252403 
    3500    231.94271   -612.19958    165492.15   -16149.342    1167.0446   -17316.386    14.661715    1.1252403 
    3600    244.53545   -600.06975    165492.15   -16082.135    1230.4064   -17312.542     14.81768    1.1252403 
    3700    244.38122   -269.02499    165492.15   -16055.254    1229.6304   -17284.884    15.236011    1.1252403 
    3800    238.44198   -483.06423    165492.15   -16065.543    1199.7464   -17265.289    15.677994    1.1252403 
    3900    239.79956   -400.69502    165492.15   -16112.925    1206.5772   -17319.502    15.848329    1.1252403 
    4000    236.20092   -468.38771    165492.15   -16135.126    1188.4703   -17323.596    16.097269    1.1252403 
    4100    239.34708   -428.27266    165492.15   -16124.417    1204.3006   -17328.718    16.335321    1.1252403 
    4200    240.60084   -303.30326    165492.15   -16114.997    1210.6089   -17325.606     16.77811    1.1252403 
    4300    234.60232   -598.71626    165492.15   -16106.802    1180.4268   -17287.229    17.019126    1.1252403 
    4400    244.44573   -312.48508    165492.15   -16091.883    1229.9549   -17321.838    17.599655    1.1252403 
    4500    244.27014   -441.62608    165492.15   -16094.818    1229.0715    -17323.89    17.971496    1.1252403 
    4600    235.36989   -417.90481    165492.15   -16137.632    1184.2889   -17321.921    17.935474    1.1252403 
    4700    233.93539   -756.63883    165492.15   -16164.697     1177.071   -17341.768    18.408991    1.1252403 
    4800    240.14016   -512.91732    165492.15   -16120.872     1208.291   -17329.163    18.734532    1.1252403 
    4900    237.35777   -353.23399    165492.15   -16084.155    1194.2911   -17278.446    19.388101    1.1252403 
    5000     245.5931   -498.66807    165492.15   -16070.038     1235.728   -17305.766    19.663968    1.1252403 
    5100     243.0889   -338.54192    165492.15   -16066.464    1223.1279   -17289.592    20.215216    1.1252403 
    5200    239.95592   -359.47596    165492.15   -16100.271     1207.364   -17307.635    20.457648    1.1252403 
    5300    233.47762   -555.17366    165492.15   -16155.096    1174.7677   -17329.864    20.867596    1.1252403 
    5400     236.3577    -373.4923    165492.15   -16147.316    1189.2591   -17336.575     21.47861    1.1252403 
    5500    233.32821   -307.53502    165492.15   -16112.848    1174.0159   -17286.864     21.96042    1.1252403 
    5600    248.73043   -462.87559    165492.15   -16081.792    1251.5138   -17333.305    21.860481    1.1252403 
    5700    242.88193   -557.71384    165492.15   -16086.166    1222.0865   -17308.252    22.059101    1.1252403 
    5800    245.62256   -432.75283    165492.15   -16082.061    1235.8763   -17317.937    22.331073    1.1252403 
    5900    248.91142   -560.41814    165492.15   -16054.528    1252.4245   -17306.952    22.717148    1.1252403 
    6000    245.29452    -414.7285    165492.15   -16005.466    1234.2257   -17239.691    23.122932    1.1252403 
    6100    246.46442   -454.78884    165492.15   -15993.282    1240.1122   -17233.394    23.452513    1.1252403 
    6200    236.19355   -578.86118    165492.15   -16063.719    1188.4332   -17252.152    23.523139    1.1252403 
    6300    235.89468     -499.011    165492.15   -16086.322    1186.9294   -17273.251    24.057505    1.1252403 
    6400    240.13653   -454.48128    165492.15   -16067.079    1208.2727   -17275.351    24.428148    1.1252403 
    6500    241.83337   -416.92618    165492.15   -16039.055    1216.8106   -17255.865    24.375557    1.1252403 
    6600    244.97353   -460.12794    165492.15   -16058.432    1232.6106   -17291.043    24.719435    1.1252403 
    6700    235.37486   -608.28778    165492.15   -16121.508    1184.3139   -17305.822      24.9293    1.1252403 
    6800    240.92129   -536.72249    165492.15   -16126.838    1212.2213    -17339.06    25.633372    1.1252403 
    6900    246.95854   -203.72055    165492.15   -16100.055    1242.5984   -17342.654    25.918901    1.1252403 
    7000    239.98933   -525.10715    165492.15   -16063.623    1207.5321   -17271.155    26.352141    1.1252403 
    7100    248.00213   -338.71312    165492.15   -16001.034    1247.8493   -17248.883    26.776097    1.1252403 
    7200    237.19201   -523.95233    165492.15   -16012.055     1193.457   -17205.512    27.404513    1.1252403 
    7300    238.02361   -486.93779    165492.15   -16041.221    1197.6414   -17238.862    28.011068    1.1252403 
    7400    238.92193   -548.80675    165492.15   -16074.973    1202.1613   -17277.134    28.079044    1.1252403 
    7500    248.13513   -483.50394    165492.15   -16092.166    1248.5185   -17340.685    27.943502    1.1252403 
    7600    235.70409   -578.15962    165492.15   -16107.595    1185.9705   -17293.565    28.295238    1.1252403 
    7700    232.52068   -520.25036    165492.15   -16128.542    1169.9528   -17298.495    28.555672    1.1252403 
    7800    242.48162   -480.28288    165492.15   -16138.722    1220.0723   -17358.794    28.739481    1.1252403 
    7900       239.54   -501.69502    165492.15   -16122.865    1205.2712   -17328.136    28.914135    1.1252403 
    8000    241.46657   -506.23638    165492.15   -16078.933    1214.9649   -17293.898    29.868277    1.1252403 
    8100    242.28779   -409.59185    165492.15   -16052.121     1219.097   -17271.218    30.026163    1.1252403 
    8200    244.53515   -360.33376    165492.15   -16079.926    1230.4049   -17310.331    30.390429    1.1252403 
    8300    231.20239   -532.73886    165492.15   -16124.217    1163.3197   -17287.537    30.684521    1.1252403 
    8400    235.91092   -488.97721    165492.15   -16128.755    1187.0111   -17315.766    30.892292    1.1252403 
    8500    243.78948   -460.72263    165492.15   -16130.009     1226.653   -17356.662    31.272332    1.1252403 
    8600    232.26753    -327.3778    165492.15   -16120.754     1168.679   -17289.433    31.941202    1.1252403 
    8700    243.96787     -449.097    165492.15   -16082.016    1227.5505   -17309.567    32.241454    1.1252403 
    8800    241.04633    -559.4186    165492.15   -16029.081    1212.8505   -17241.932    32.749033    1.1252403 
    8900    247.29213   -452.09346    165492.15   -16026.987    1244.2769   -17271.264    33.042108    1.1252403 
    9000    241.64219   -327.08134    165492.15   -16055.807    1215.8486   -17271.656    33.733716    1.1252403 
    9100    235.15817   -552.13148    165492.15   -16087.016    1183.2236   -17270.239    34.424899    1.1252403 
    9200    241.23153   -612.78944    165492.15   -16085.438    1213.7823    -17299.22    34.788173    1.1252403 
    9300    229.93542   -383.37212    165492.15   -16066.703    1156.9448   -17223.648    34.864576    1.1252403 
    9400    240.57616   -226.85865    165492.15   -16043.684    1210.4848   -17254.169    35.192074    1.1252403 
    9500    243.96645    -521.5721    165492.15   -16041.391    1227.5434   -17268.935    35.792636    1.1252403 
    9600    233.68753   -329.57041    165492.15   -16108.481    1175.8239   -17284.305    35.984938    1.1252403 
    9700    240.92414   -67.150342    165492.15   -16147.152    1212.2357   -17359.388    36.355779    1.1252403 
    9800    234.24302   -439.55977    165492.15   -16130.224    1178.6189   -17308.843    36.874904    1.1252403 
    9900    244.45411   -586.98759    165492.15   -16077.096    1229.9971   -17307.093      37.2087    1.1252403 
   10000    240.57648   -195.07222    165492.15   -16066.799    1210.4864   -17277.285    37.857614    1.1252403 
Loop time of 5.97305 on 128 procs for 10000 steps with 8493 atoms

Performance: 723.248 ns/day, 0.033 hours/ns, 1674.186 timesteps/s
96.6% CPU use with 128 MPI tasks x no OpenMP threads

MPI task timing breakdown:
Section |  min time  |  avg time  |  max time  |%varavg| %total
---------------------------------------------------------------
Pair    | 0.00073957 | 1.8266     | 4.5889     | 117.4 | 30.58
Neigh   | 0.0041933  | 0.13113    | 0.31057    |  27.7 |  2.20
Comm    | 0.20074    | 1.6882     | 4.0914     |  81.2 | 28.26
Output  | 0.14534    | 0.14539    | 0.14623    |   0.0 |  2.43
Modify  | 0.17651    | 2.1016     | 5.5395     | 133.5 | 35.18
Other   |            | 0.08022    |            |       |  1.34

Nlocal:        66.3516 ave         140 max           0 min
Histogram: 32 4 10 18 0 0 2 28 25 9
Nghost:        699.383 ave         922 max         491 min
Histogram: 16 6 15 16 13 13 15 18 4 12
Neighs:         0.00000 ave           0 max           0 min
Histogram: 128 0 0 0 0 0 0 0 0 0
FullNghs:      6952.23 ave       16709 max           0 min
Histogram: 41 23 0 0 0 0 14 30 14 6

Total # of neighbors = 889886
Ave neighs/atom = 104.77876
Neighbor list builds = 566
Dangerous builds = 0
write_data 	    ${DIR}/data.${NAME}_eq
write_data 	    run_5/data.${NAME}_eq
write_data 	    run_5/data.ibeam_cooling_5_eq
System init for write_data ...

undump              1
unfix 		3



################################################
#######         Run Simulation         #########
################################################

reset_timestep      0
timestep	    10.0
log                 ${DIR}/log.run_${NAME}
log                 run_5/log.run_${NAME}
log                 run_5/log.run_ibeam_cooling_5
