
# Set production fixes - Nose/Hoover
#
fix                 4 water temp/csvr ${START_TEMP} ${END_TEMP} 500.0 928347
fix                 4 water temp/csvr 240 ${END_TEMP} 500.0 928347
fix                 4 water temp/csvr 240 227 500.0 928347


## divide "droplet" into core and surface
#region		core_reg cylinder z 135 135 44.6 20 INF units box
#region		surface_reg cylinder z 135 135 44.6 20 INF units box side out
#group		core dynamic all region core_reg
#group		surface dynamic all region surface_reg

## compute pressure core
#compute        peratom_core core stress/atom NULL
#compute        p_core core reduce sum c_peratom_core[1] c_peratom_core[2] c_peratom_core[3]
#variable       press_core equal -(c_p_core[1]+c_p_core[2]+c_p_core[3])/(3*1249982.5)


## compute pressure surface
#compute        peratom_surf surface stress/atom NULL
#compute        p_surf surface reduce sum c_peratom_surf[1] c_peratom_surf[2] #c_peratom_surf[3]
#variable       press_surf equal -(c_p_surf[1]+c_p_surf[2]+c_p_surf[3])/(3*42395)

## compute total pressure of drop
compute        peratom water stress/atom NULL
compute        p water reduce sum c_peratom[1] c_peratom[2] c_peratom[3]
variable       press equal -(c_p[1]+c_p[2]+c_p[3])/(3*58301)


# compute order parameter
compute        3 all orientorder/atom nnn NULL cutoff 3.5

# compute center of mass of bridge
compute 	4 water com

# Run simulation
thermo_style        custom step c_2 press vol etotal ke pe v_press c_1[4] c_4[*]
thermo              200
dump		     1 water custom 400 ${DIR}/prod.${NAME}.dump id type x y z vx vy vz c_3[*] c_peratom[*]
dump		     1 water custom 400 run_24/prod.${NAME}.dump id type x y z vx vy vz c_3[*] c_peratom[*]
dump		     1 water custom 400 run_24/prod.ibeam_cooling_24.dump id type x y z vx vy vz c_3[*] c_peratom[*]
run                 ${STEPS}
run                 5200000
Neighbor list info ...
  update every 1 steps, delay 0 steps, check yes
  max neighbors/atom: 2000, page size: 100000
  master list distance cutoff = 6.67472
  ghost atom cutoff = 6.67472
  binsize = 3.33736, bins = 48 11 12
  2 neighbor lists, perpetual/occasional/extra = 1 1 0
  (1) pair sw, perpetual
      attributes: full, newton on
      pair build: full/bin/atomonly
      stencil: full/bin/3d
      bin: standard
  (2) compute orientorder/atom, occasional, copy from (1)
      attributes: full, newton on
      pair build: copy
      stencil: none
      bin: none
Per MPI rank memory allocation (min/avg/max) = 0.8532 | 5.995 | 7.146 Mbytes
Step c_2 Press Volume TotEng KinEng PotEng v_press c_1[4] c_4[1] c_4[2] c_4[3] 
       0    237.32301   -240.84037    229018.04   -21093.548    1571.8757   -22665.424   -425.78213    32.349844    78.592283    15.912555    29.656123 
     200    244.93711   -100.65677    229018.04   -21151.085    1622.3067   -22773.392    93.038001    33.302227    78.592154    15.911767    29.648902 
     400    242.43396   -239.16761    229018.04   -21163.081    1605.7274   -22768.808   -473.89035    34.834814    78.591976    15.913391    29.648385 
     600    224.34889   -53.948093    229018.04   -21281.787    1485.9435    -22767.73    268.43792     36.24912    78.591758    15.913143    29.649784 
     800    229.58275   -512.40871    229018.04   -21265.367    1520.6092   -22785.977   -1522.8372    37.955458    78.590648    15.917311    29.628162 
    1000    245.86859   -291.97899    229018.04   -21123.349    1628.4761   -22751.825   -665.52025    39.564704    78.590557    15.915123    29.619661 
    1200    235.43543   -364.54758    229018.04   -21191.214    1559.3736   -22750.588    -961.5782    41.278922    78.590613    15.916048    29.585513 
    1400     245.5225   -307.14254    229018.04   -21058.288    1626.1839   -22684.472   -721.13549     42.88891    78.590917    15.916304    29.567605 
    1600    248.19514   -276.77521    229018.04   -21054.557    1643.8858   -22698.442   -609.41086    44.356577    78.590556    15.917289    29.574923 
    1800    241.89776   -94.718608    229018.04   -21133.115    1602.1759   -22735.291    161.05355     45.04155    78.590721    15.917453    29.587661 
    2000    248.23625   -432.55387    229018.04   -21000.717    1644.1581   -22644.875   -1174.8839    46.523447     78.58916    15.919034    29.571083 
    2200    244.44064   -173.74553    229018.04   -21049.888    1619.0183   -22668.906   -176.81828    49.101172    78.586832    15.921618    29.579957 
    2400    241.40461    -209.6147    229018.04   -21069.704    1598.9096   -22668.614   -350.11898    51.181484     78.58599    15.920988    29.601957 
    2600    239.22595   -312.32539    229018.04   -21112.769    1584.4796   -22697.249   -710.97365    52.594076    78.586831    15.920503    29.614925 
    2800    243.56745   -378.62003    229018.04   -21062.736    1613.2349   -22675.971   -960.05697    54.436997    78.586241    15.921951    29.616783 
    3000    236.62122    -404.9387    229018.04   -21203.159    1567.2275   -22770.386   -1091.7605    55.158939    78.586998    15.923809    29.633399 
    3200    236.17773   -258.36905    229018.04   -21206.157    1564.2901   -22770.447   -538.41255      57.0965    78.588077    15.924726    29.648363 
    3400    245.50204   -329.29234    229018.04   -21176.563    1626.0484   -22802.611    -767.8336    58.195121    78.590074    15.926507     29.65383 
    3600    239.43682   -276.40282    229018.04   -21195.379    1585.8762   -22781.255   -593.37895    59.237009    78.592249    15.925819    29.670332 
    3800    242.41658   -280.22356    229018.04   -21225.114    1605.6123   -22830.726   -601.07051    60.672341    78.592859    15.925441      29.6634 
    4000    234.98105   -360.74297    229018.04   -21258.614    1556.3641   -22814.978    -852.5729    61.824771    78.593698    15.923013    29.639255 
    4200    248.38895   -62.889522    229018.04   -21181.322    1645.1694   -22826.492    209.24589    63.202128    78.591732    15.922231    29.657473 
    4400    241.88275   -280.42332    229018.04   -21104.469    1602.0765   -22706.546   -590.54008    65.278934    78.591563    15.922313    29.663786 
    4600    239.57544   -11.201671    229018.04   -21167.673    1586.7944   -22754.468    439.69358    66.209058    78.591527    15.924996    29.667359 
    4800    242.86154   -496.61452    229018.04   -21132.653    1608.5594   -22741.212   -1411.9118    67.699158     78.59266    15.924622    29.661514 
    5000    242.03332   -254.95601    229018.04   -21230.952    1603.0738   -22834.026   -468.13515    69.594308    78.595491    15.925727    29.662794 
    5200    238.97105   -443.02719    229018.04   -21197.679    1582.7913    -22780.47   -1187.2227    70.925909    78.596292    15.927482    29.678131 
    5400    246.08392    -305.1971    229018.04   -21196.483    1629.9024   -22826.385   -691.35027    72.471359    78.596617    15.927791    29.691705 
    5600    231.90179   -366.70038    229018.04   -21204.958     1535.969   -22740.927    -933.4922    74.427359    78.597759    15.929536     29.68808 
    5800    249.77497   -223.33146    229018.04   -21032.994    1654.3496   -22687.344   -429.27033    75.210944    78.596785    15.931915    29.687765 
    6000    231.71684   -440.42467    229018.04   -21198.593     1534.744   -22733.337   -1204.5792    77.483592    78.598313    15.933155    29.662379 
    6200    230.64357   -275.13753    229018.04   -21101.605    1527.6353    -22629.24   -590.90064    79.568186    78.597469    15.935125    29.645577 
    6400    241.09327   -203.80414    229018.04   -21064.285    1596.8475   -22661.132   -292.61892    81.748796    78.599702    15.935481    29.667672 
    6600     232.7439   -317.86285    229018.04   -21149.687    1541.5466   -22691.233   -694.44749    82.558375    78.600369    15.934784    29.656952 
    6800    245.46598   -276.02488    229018.04   -21128.533    1625.8095   -22754.343   -579.56868    83.027229    78.602393    15.935103    29.648761 
    7000     228.5459   -330.92205    229018.04   -21173.604    1513.7417   -22687.346   -807.14156    85.111768    78.602333    15.936669    29.647224 
    7200    234.36371    -462.0963    229018.04    -21116.23    1552.2752   -22668.505   -1322.5689    86.735084    78.599777    15.939147    29.633087 
    7400    239.19271   -163.14969    229018.04   -21198.914    1584.2594   -22783.174   -162.92171    87.310168     78.60107    15.934356    29.646402 
    7600    230.07947    -286.0046    229018.04   -21194.295    1523.8992   -22718.194   -602.56136    89.470672    78.601639     15.93372    29.652807 
    7800    239.73806   -454.37357    229018.04   -21071.788    1587.8714   -22659.659   -1311.6335    91.268778    78.602143    15.930384    29.671554 
    8000    243.83315   -175.98226    229018.04   -21076.106    1614.9947   -22691.101   -186.98274    92.524137    78.600099    15.928766    29.656647 
    8200    238.28868   -218.20462    229018.04   -21155.991    1578.2717   -22734.263   -319.76637    94.427615    78.598195    15.924958    29.674792 
    8400    240.30569   -323.74868    229018.04   -21145.667    1591.6311   -22737.298   -757.68923    97.465969    78.597476    15.923235    29.696175 
    8600    238.00601   -345.94357    229018.04   -21093.398    1576.3995   -22669.797   -882.39439    96.956789    78.595201    15.921362     29.69054 
    8800    243.88623   -381.25044    229018.04   -21101.684    1615.3463    -22717.03   -1008.7359    96.523093    78.595291    15.918584    29.695498 
    9000    242.65906   -417.38108    229018.04   -21072.497    1607.2183   -22679.716   -1132.4572    97.725461    78.593925    15.918654    29.680785 
    9200    241.87443   -253.57761    229018.04   -21126.221    1602.0214   -22728.242    -521.9538    99.014974    78.595613     15.91968    29.675718 
    9400     238.2203   -181.57659    229018.04   -21196.179    1577.8188   -22773.997   -223.41415    101.01683    78.597562    15.918247    29.678653 
    9600    237.55908   -305.60498    229018.04   -21211.033    1573.4393   -22784.472   -714.69785    101.27461    78.597147    15.917977    29.634802 
    9800    236.28133   -425.58095    229018.04   -21148.854    1564.9763    -22713.83   -1208.3537     101.5269    78.595915    15.918617     29.61815 
   10000     246.8679   -367.30559    229018.04   -21021.989     1635.095   -22657.084   -972.36546    101.99967    78.597369    15.919485    29.613647 
   10200    245.03702   -342.52358    229018.04   -21070.689    1622.9684   -22693.657   -829.29139    103.12501    78.597785    15.920647    29.605056 
   10400    240.54864   -203.65963    229018.04   -21091.609    1593.2402   -22684.849   -281.95561    104.44508    78.599316    15.920061    29.584295 
   10600    241.42116    -392.8414    229018.04   -21072.529    1599.0193   -22671.548   -1061.0116    104.77854    78.598844    15.919762    29.595718 
   10800    237.89168   -434.16981    229018.04   -21131.996    1575.6422   -22707.638   -1157.5827    105.30491    78.598002    15.920784     29.57988 
   11000    241.36285   -376.07203    229018.04   -21154.189    1598.6331   -22752.822    -980.8829    107.53244     78.59897    15.918202    29.574341 
   11200    238.66596   -234.76789    229018.04   -21142.742    1580.7705   -22723.512   -433.44522    108.55917    78.598155    15.918441    29.574015 
   11400    235.91567   -170.80649    229018.04   -21136.902    1562.5544   -22699.456   -163.95777    108.04823    78.595663    15.921897    29.582776 
   11600    244.48111   -327.93998    229018.04   -21071.951    1619.2864   -22691.238   -780.04831    110.33937    78.595096    15.924551    29.571702 
   11800    239.18288   -281.94595    229018.04   -21094.155    1584.1943    -22678.35   -647.79534    111.43616    78.595673    15.924799    29.572644 
   12000    243.31054   -365.74971    229018.04   -20985.318    1611.5333   -22596.851   -956.30288    114.03524    78.595602    15.924643    29.576247 
   12200     241.8509   -165.76497    229018.04   -21073.709    1601.8656   -22675.574   -195.66967    116.02224    78.595536    15.924506    29.570787 
   12400    245.60588   -330.37069    229018.04   -20975.551    1626.7361   -22602.287   -800.98238    117.88188    78.595824     15.92427    29.551688 
   12600     245.9675   -378.92327    229018.04    -20971.85    1629.1313   -22600.981   -1009.1379    120.20837    78.596446    15.925409    29.557251 
   12800    241.83701   -278.38605    229018.04   -21100.163    1601.7736   -22701.937   -624.34451    121.42599     78.59862    15.924641    29.550184 
   13000    237.72686   -181.94828    229018.04   -21158.868    1574.5506   -22733.418   -260.32434    123.63664    78.600835    15.924809    29.539486 
   13200    241.42415   -281.48012    229018.04   -21103.084     1599.039   -22702.123    -621.9296    125.92726    78.602268    15.923335    29.545982 
   13400    243.64004   -153.10336    229018.04   -21061.067    1613.7157   -22674.783   -73.321062    127.69921    78.603304    15.923029    29.527653 
   13600    242.66224   -242.43547    229018.04   -21061.309    1607.2394   -22668.549   -468.86352    129.03484    78.602624    15.922788    29.533054 
   13800     237.5165   -327.87505    229018.04   -21138.715    1573.1573   -22711.872   -816.53884    129.78003    78.601769    15.924292    29.566916 
   14000    240.54396   -172.89645    229018.04   -21084.306    1593.2093   -22677.515   -212.26675    131.95412    78.602848    15.924381    29.594358 
   14200    233.36559   -324.80738    229018.04   -21166.476    1545.6643   -22712.141   -751.54136    133.18986    78.601366    15.925058    29.580659 
   14400    230.51852   -219.19774    229018.04   -21214.634    1526.8071   -22741.441    -352.0678    134.21865    78.599974     15.92656    29.599756 
   14600     232.3304   -300.60375    229018.04   -21122.382    1538.8079    -22661.19    -673.5562    134.52287     78.60209    15.928536    29.625718 
   14800    239.91072   -233.83374    229018.04   -21087.215     1589.015    -22676.23   -416.90237     135.6344    78.602087    15.928531    29.631557 
   15000    229.00946   -383.74327    229018.04   -21084.762    1516.8121   -22601.574   -1000.3386    137.01577    78.602892    15.929483     29.63878 
   15200     238.1481   -350.75761    229018.04   -21206.987    1577.3406   -22784.327   -884.57297    137.30996    78.601888    15.931014    29.634502 
   15400    244.34204   -216.19152    229018.04   -21136.359    1618.3653   -22754.724   -345.85519    139.31817    78.603095    15.927763    29.641807 
   15600    237.70307    -367.1524    229018.04   -21194.786     1574.393   -22769.179   -970.34516    141.19427    78.601683    15.925777    29.640586 
   15800    244.49707   -296.02822    229018.04   -21046.806    1619.3921   -22666.198   -703.13366    142.71606    78.600958    15.926465     29.61248 
   16000    241.62776   -264.67252    229018.04   -21114.663    1600.3876    -22715.05   -550.56646    143.04689    78.600818    15.923913    29.615019 
   16200    245.32093   -239.79808    229018.04   -21020.478    1624.8488   -22645.327   -513.65509    145.01245    78.601269    15.924321    29.616396 
   16400    242.56102   -221.49988    229018.04    -21050.72    1606.5689   -22657.289   -405.37788    147.18515    78.602232    15.924463    29.620013 
   16600    244.72845   -334.66427    229018.04   -21060.896    1620.9246    -22681.82   -824.76406    149.23381    78.603756    15.925566    29.625872 
   16800    242.11362   -374.26399    229018.04   -21050.576    1603.6057   -22654.182   -969.53836    150.24399    78.603344    15.926551    29.639928 
   17000    240.17261    -240.0056    229018.04   -21058.991    1590.7496    -22649.74   -445.28648    153.62819    78.601313    15.924477    29.626947 
   17200     240.8202    -331.5154    229018.04   -21072.515    1595.0389   -22667.554   -830.50067    154.22421    78.601944    15.922671    29.635229 
   17400    240.47929   -283.29164    229018.04   -21023.707    1592.7809   -22616.488   -662.22375    155.78867    78.601722    15.923475    29.646789 
   17600    244.23181   -272.20257    229018.04   -21000.455    1617.6352    -22618.09   -625.32517     156.6818     78.60063      15.9235    29.635633 
   17800     244.5905   -486.36384    229018.04   -21038.835    1620.0109   -22658.846   -1411.4274    158.20295    78.600597    15.923597    29.623338 
   18000    242.63106   -342.52937    229018.04   -21062.089    1607.0328   -22669.122   -880.72401    159.20858    78.601448    15.922578    29.615508 
   18200    239.24679   -270.17457    229018.04   -21099.866    1584.6176   -22684.484   -586.90524    162.85913    78.601939    15.921963    29.600307 
   18400    238.98017   -210.66713    229018.04   -21113.636    1582.8517   -22696.488   -387.92241    164.42555    78.601989    15.921406    29.600861 
   18600    239.68822   -247.82105    229018.04   -21035.822    1587.5414   -22623.363   -541.24314    166.31661    78.602104    15.919843    29.632446 
   18800    244.20994   -222.50494    229018.04   -21080.235    1617.4904   -22697.726    -462.2414    169.47071    78.602295    15.919305    29.639883 
   19000    236.37533   -416.37486    229018.04   -21113.925    1565.5989   -22679.523   -1132.0049    170.91443    78.601107    15.919752    29.654344 
   19200    239.12076   -294.28762    229018.04   -21103.233    1583.7829   -22687.016   -716.22316    171.78133    78.600944    15.918157    29.654352 
   19400    239.91404   -255.22139    229018.04   -21060.677    1589.0371   -22649.714    -533.2006    173.64653    78.599583    15.919137    29.652418 
   19600    243.55053   -292.33602    229018.04   -21092.779    1613.1228   -22705.902   -630.16169     174.3651    78.599938    15.921018    29.654409 
   19800    242.59454    -131.8192    229018.04   -21095.984     1606.791   -22702.775   -55.833708      173.279     78.60046    15.919287    29.657593 
   20000    237.27693    -285.8701    229018.04   -21109.224    1571.5705   -22680.795    -662.0079    176.06448    78.600417     15.91647    29.642426 
   20200    239.43455   -150.00012    229018.04    -21101.88    1585.8612   -22687.741   -113.85253    177.65139    78.599882    15.916928    29.636126 
   20400    231.40139   -274.44605    229018.04   -21203.446    1532.6547   -22736.101   -597.00242    177.71184    78.599613    15.916381    29.637746 
   20600     232.9411   -361.67205    229018.04   -21134.955    1542.8527   -22677.807   -938.79331    178.76023    78.600972    15.914704    29.633237 
   20800    236.11282   -237.77758    229018.04   -21105.919    1563.8602   -22669.779   -445.34659     181.5838    78.603221    15.913144    29.641299 
   21000     241.6021   -302.57839    229018.04   -21119.693    1600.2177   -22719.911   -722.51543    183.23839    78.603944    15.912185    29.633491 
   21200    244.38236   -379.47204    229018.04   -21070.871    1618.6323   -22689.504   -988.97713    183.34471    78.604564    15.911258    29.633214 
   21400    231.35514    -346.1071    229018.04   -21184.644    1532.3484   -22716.993   -865.46922    184.47524    78.604366    15.911678    29.649826 
   21600    242.62351   -302.63733    229018.04   -21079.059    1606.9828   -22686.042   -706.59384    185.75837    78.606394    15.911715    29.666167 
   21800    235.67132   -507.10175    229018.04   -21082.211     1560.936   -22643.147   -1501.2286    186.72699    78.608693     15.90981    29.676373 
   22000    238.86378   -317.37573    229018.04    -21100.26    1582.0808    -22682.34   -761.45769    188.31028    78.610916      15.9062    29.689417 
   22200    238.30766   -265.10229    229018.04   -21073.064    1578.3974   -22651.462   -556.67544    190.51311    78.611456    15.904126    29.695674 
   22400    232.87899   -237.87175    229018.04   -21107.093    1542.4414   -22649.534   -467.62291    192.04972    78.611431    15.904407    29.716138 
   22600    243.24846   -61.823458    229018.04   -21093.942    1611.1221   -22705.064    224.33245    193.25482      78.6109    15.903138    29.721654 
   22800    238.04557    -194.2951    229018.04   -21068.469    1576.6615    -22645.13   -311.81973    193.44562    78.607839    15.902647    29.723315 
   23000    233.94399   -325.43975    229018.04   -21104.525    1549.4953    -22654.02   -801.71594    195.98781    78.606497    15.902362    29.720772 
   23200    234.51405   -325.27181    229018.04   -21132.867     1553.271   -22686.138   -789.56774    196.34047    78.605835     15.90209    29.713467 
   23400    239.56853   -303.34698    229018.04   -21057.508    1586.7486   -22644.257   -738.25626    197.66017     78.60719    15.903666    29.709395 
   23600    236.22685   -396.99933    229018.04   -21169.893    1564.6154   -22734.509   -1062.6489    199.22952    78.606258    15.902579    29.694399 
   23800    234.71901   -228.23987    229018.04   -21199.812    1554.6285    -22754.44   -417.07016    201.12716    78.606269    15.902309    29.692612 
   24000    242.85903   -407.07704    229018.04    -21082.72    1608.5428   -22691.263   -1097.9498    202.87877    78.609136    15.902957    29.693011 
   24200    236.88742   -201.05443    229018.04   -21113.064    1568.9906   -22682.055   -306.21332    205.12431    78.610414    15.903272    29.677217 
   24400    240.04258   -272.81441    229018.04   -21083.936    1589.8884   -22673.824    -574.1732    205.31355    78.611422     15.90174    29.655261 
   24600    240.11949   -239.43377    229018.04    -21111.49    1590.3978   -22701.888    -447.5279    207.06743    78.613189    15.900702    29.657463 
   24800    236.80619   -469.92959    229018.04   -21117.444    1568.4527   -22685.897   -1381.3768    207.58618    78.614047    15.901034    29.651338 
   25000    235.21103   -265.13518    229018.04   -21098.281    1557.8873   -22656.169   -540.25987    208.41993    78.615292    15.902232    29.657572 
   25200     237.3125    -108.7235    229018.04   -21075.245    1571.8061   -22647.051    60.109842    208.60827    78.615178      15.9048    29.682716 
   25400    240.09982   -381.68106    229018.04   -21099.491    1590.2675   -22689.758   -983.30889    210.60346     78.61306    15.906231    29.707135 
   25600    245.56908   -289.18618    229018.04   -21109.172    1626.4924   -22735.664   -651.28588    212.47537    78.615114    15.904905    29.717013 
   25800    236.07825   -355.54743    229018.04   -21141.068    1563.6312   -22704.699   -894.91211    214.17987    78.613443    15.904447    29.726095 
   26000    234.85322    -128.9073    229018.04   -21174.254    1555.5174   -22729.771   -35.819602    215.81993     78.61216    15.903652    29.751818 
   26200     245.6023   -217.58697    229018.04   -21108.029    1626.7124   -22734.742   -324.69023    218.75625    78.613179    15.903605    29.759432 
   26400    233.06842   -230.31063    229018.04   -21162.985    1543.6961   -22706.681   -411.01135     220.6795    78.613253    15.903668    29.736537 
   26600    236.52088   -242.05844    229018.04     -21143.3     1566.563   -22709.863   -468.81245     221.8958    78.612228    15.905484     29.75191 
   26800    242.47896   -283.20214    229018.04   -21085.031    1606.0254   -22691.056   -651.93417    223.92975    78.613849    15.908469    29.736211 
   27000    238.44645   -378.13378    229018.04   -21101.005    1579.3167   -22680.321   -972.15504      224.752    78.614814    15.908984     29.73298 
   27200    242.76042   -302.67028    229018.04   -21036.001    1607.8896   -22643.891   -761.07924     226.6325    78.615864    15.909421    29.731446 
   27400    238.69511   -324.37119    229018.04    -21093.37    1580.9636   -22674.333   -781.08223    226.64144      78.6153    15.911716    29.738974 
   27600     241.3331   -181.37978    229018.04   -21115.821     1598.436   -22714.257   -208.49826    229.27822    78.615146    15.912207    29.721536 
   27800    234.17816   -378.52353    229018.04    -21222.44    1551.0463   -22773.486   -978.08367    231.57811    78.615471     15.91287    29.688662 
   28000    235.36453   -386.65336    229018.04   -21137.188     1558.904   -22696.092   -1035.6312    232.61191     78.61609    15.913452    29.706549 
   28200    246.80741   -239.51079    229018.04   -21089.192    1634.6943   -22723.886   -462.32524    233.29497    78.615803    15.915469    29.726169 
   28400     247.4628    -260.3228    229018.04    -21081.33    1639.0352   -22720.365   -506.01725    235.43215    78.618618    15.915694    29.710098 
   28600    239.11885   -292.95108    229018.04   -21085.244    1583.7702   -22669.014   -662.21021    235.93879    78.617877    15.915817    29.706173 
   28800    234.84212   -203.76913    229018.04   -21171.969    1555.4439   -22727.413   -285.94833    235.31722    78.618789    15.916672    29.708276 
   29000     241.7276     -207.291    229018.04   -21133.092    1601.0489   -22734.141   -332.31444     237.1467    78.618422    15.916371    29.708791 
   29200    232.23688   -171.15156    229018.04   -21158.916    1538.1884   -22697.104    -158.8451     238.7469    78.617823    15.913367    29.699707 
   29400     240.0118   -177.06153    229018.04   -21091.451    1589.6845   -22681.136   -224.49023    240.34653    78.618376     15.91384    29.700122 
   29600    244.42675   -163.24687    229018.04   -21136.641    1618.9263   -22755.567   -143.74552    242.13429    78.617923    15.912224      29.6795 
   29800    244.15385   -184.63847    229018.04   -21113.064    1617.1188   -22730.183   -270.01761    244.93312    78.617168    15.912518    29.667033 
   30000    235.42687    -375.3806    229018.04   -21116.832    1559.3169   -22676.149   -982.00853    245.36134    78.618274    15.911287    29.666372 
   30200     234.8635   -362.34949    229018.04   -21149.279    1555.5855   -22704.865   -968.55883    246.76511      78.6169    15.909742    29.658983 
   30400    239.98085   -207.45088    229018.04    -21161.77    1589.4795   -22751.249   -304.17117    246.33298    78.616505    15.908035     29.65355 
   30600    231.78202   -373.31017    229018.04   -21276.005    1535.1757   -22811.181   -966.63183    246.94239    78.617472    15.906362    29.641716 
   30800    238.99547   -420.43252    229018.04   -21198.377     1582.953    -22781.33   -1182.7225    248.22108     78.61601    15.903205    29.630202 
   31000    244.86933   -391.70582    229018.04   -21170.568    1621.8577   -22792.425   -1036.1379     250.0879    78.612278     15.90395    29.629802 
   31200    238.37599   -330.48648    229018.04   -21067.161      1578.85   -22646.011   -815.55365     251.5115    78.611595    15.906003    29.609781 
   31400    244.88943   -507.66913    229018.04    -21059.07    1621.9908   -22681.061   -1494.5429    253.12711    78.613458    15.906911    29.608346 
   31600    243.01679   -255.23275    229018.04   -21015.286    1609.5876   -22624.873   -551.69584    253.69976    78.614774     15.90483    29.601611 
   31800    242.61376   -290.24393    229018.04   -21080.532    1606.9183    -22687.45   -687.36193    254.75182    78.616199    15.904984    29.605653 
   32000    240.38633   -277.24962    229018.04   -21063.709    1592.1652   -22655.874   -634.29793     256.1161    78.616519    15.905194    29.595511 
   32200    238.17832    -223.4607    229018.04   -21139.274    1577.5408   -22716.814   -410.21946    257.09787    78.614833    15.905201    29.598383 
   32400    237.93271    -217.6084    229018.04   -21138.195     1575.914   -22714.109   -329.73219     257.3649    78.614381     15.90314    29.579757 
   32600    240.11351   -303.40103    229018.04    -21140.33    1590.3582   -22730.688   -711.77034    259.28562    78.613211    15.904544    29.590743 
   32800     236.6115   -351.51138    229018.04   -21109.077    1567.1631    -22676.24   -894.34653     260.2835    78.613391    15.906757    29.604279 
   33000      248.413   -267.81614    229018.04    -21107.18    1645.3287   -22752.508   -569.04365     260.8303    78.613697    15.903881    29.633907 
   33200    241.30154   -391.51052    229018.04   -21109.188    1598.2269   -22707.415   -1043.9819    262.56208    78.614793    15.906187    29.634663 
   33400    234.27033   -434.33118    229018.04   -21131.384    1551.6567    -22683.04   -1245.9475    264.68514    78.613193    15.908098    29.635694 
   33600    236.69909   -193.09483    229018.04   -21190.028    1567.7433   -22757.771   -247.42091    264.74657    78.612886    15.908116    29.655652 
   33800     236.5638   -414.38775    229018.04   -21122.277    1566.8472   -22689.125   -1125.5768    267.01345    78.612668    15.908216    29.670098 
   34000    234.47709   -231.85396    229018.04   -21192.856    1553.0262   -22745.882   -423.68999    267.58339    78.611097     15.90802    29.689703 
   34200     237.4096   -378.22034    229018.04   -21170.625    1572.4492   -22743.074   -992.72886    268.99504    78.611645    15.908259    29.710352 
   34400    234.04378    -314.4825    229018.04   -21185.086    1550.1562   -22735.242   -758.23237    271.87612    78.611271    15.907878    29.722347 
   34600    235.03491   -165.36146    229018.04   -21161.517    1556.7208   -22718.238   -183.53984    273.86881    78.610733    15.910699    29.725057 
   34800     241.3546   -265.97096    229018.04    -21141.31    1598.5784   -22739.889   -564.58689    275.00787    78.611885    15.913213    29.750797 
   35000     242.3586   -147.84709    229018.04   -21103.092    1605.2283    -22708.32   -81.383461    276.82646    78.613137    15.916798    29.753285 
   35200    237.24973    -329.1289    229018.04   -21079.242    1571.3904   -22650.633    -816.6311    277.91818    78.613902    15.920648    29.754299 
   35400    239.30521   -131.84366    229018.04   -21029.817    1585.0046   -22614.821   -10.078945    278.99492    78.612506    15.923245    29.757267 
   35600    236.77825   -275.66007    229018.04   -21093.316    1568.2676   -22661.583   -595.52193    281.30769    78.614251    15.923428    29.738726 
   35800    245.23824   -215.48749    229018.04    -21050.94    1624.3011   -22675.241   -337.95831    283.08686    78.617082    15.923748    29.719673 
   36000    239.81766   -320.64185    229018.04    -21153.12    1588.3986   -22741.518   -776.31226    285.22421    78.616948    15.921901    29.732171 
   36200    231.08864   -298.22863    229018.04   -21166.034    1530.5833   -22696.617   -731.47729    286.67509    78.616892    15.920037    29.731872 
   36400    244.60841   -198.38877    229018.04   -21095.547    1620.1296   -22715.677   -295.07495    287.43462    78.617701    15.920327     29.72003 
   36600    235.22214   -292.03447    229018.04   -21133.898    1557.9609   -22691.858    -616.3518    289.85791    78.618521    15.917544    29.731794 
   36800    241.86848   -323.84204    229018.04   -21151.488     1601.982    -22753.47   -818.42896    290.98742    78.617502    15.916231      29.7181 
   37000    240.53624   -230.96618    229018.04    -21126.64    1593.1581   -22719.799   -407.25868    290.48025    78.616073    15.917362    29.712773 
   37200    229.21414   -455.03479    229018.04   -21227.436    1518.1678   -22745.604   -1316.1338    293.85518    78.614728    15.918168    29.715535 
   37400    234.79524   -275.51401    229018.04   -21160.265    1555.1334   -22715.398   -578.80199    294.66651    78.614817    15.918277     29.73384 
   37600    241.47756   -411.15036    229018.04   -21114.066    1599.3928   -22713.458   -1127.7308    295.80114    78.611186    15.916722    29.731873 
   37800    235.51939   -211.26256    229018.04   -21217.664    1559.9297   -22777.594   -328.61664    298.52935    78.613365    15.914841    29.726428 
   38000    233.63844   -347.75158    229018.04   -21155.509    1547.4715   -22702.981   -861.82782    301.01247    78.614418    15.915234    29.731708 
   38200    238.33163   -304.19212    229018.04   -21160.697    1578.5562   -22739.253    -711.9809     302.3411    78.616218    15.915989    29.731227 
   38400    238.80778   -296.77448    229018.04    -21193.88    1581.7099    -22775.59   -711.92949    305.14159    78.617073    15.916278    29.723975 
   38600    238.85119   -354.45974    229018.04   -21163.958    1581.9974   -22745.956   -859.99199    307.81296    78.616645    15.915471    29.728044 
   38800    240.38722   -269.90247    229018.04   -21157.708     1592.171   -22749.879    -543.7448    308.39001    78.616514    15.914293    29.752631 
   39000    239.22653   -477.83919    229018.04   -21132.152    1584.4834   -22716.635   -1359.6071    312.16474    78.615113    15.914907    29.758056 
   39200    235.70996   -109.39702    229018.04   -21226.696    1561.1919   -22787.888     37.69665    308.95634    78.616633    15.914231    29.760462 
   39400     239.6762   -291.72815    229018.04   -21155.579    1587.4617    -22743.04   -637.93515    310.65651    78.617149    15.913375    29.769899 
   39600    238.68895   -343.81812    229018.04    -21184.05    1580.9228   -22764.973    -857.8154    312.27006    78.615883    15.914137    29.788821 
   39800    240.34469   -447.72587    229018.04   -21014.922    1591.8894   -22606.812   -1266.6482     313.6524    78.615355    15.912027    29.784333 
   40000    234.21594   -301.46163    229018.04   -21139.875    1551.2965   -22691.171   -702.70588    314.64413    78.614815    15.912629     29.80285 
   40200    232.69253   -276.45496    229018.04   -21212.421    1541.2064   -22753.628   -562.75994    317.50316    78.615412    15.912667    29.783179 
   40400    244.21142   -266.27841    229018.04   -21089.451    1617.5001   -22706.951    -526.2871    315.38386    78.616197    15.911207     29.78275 
   40600    235.37339   -356.73393    229018.04    -21209.07    1558.9627   -22768.032   -888.22117    314.97419     78.61499    15.909407    29.770426 
   40800    234.28717   -301.32348    229018.04   -21185.844    1551.7682   -22737.612   -702.28522    314.24007    78.613857    15.908058    29.775461 
   41000    239.64198   -234.18533    229018.04    -21114.75    1587.2351   -22701.985   -422.27022    314.38195    78.612884     15.90588    29.787866 
   41200    239.28465   -335.01107    229018.04     -21112.5    1584.8684   -22697.368   -823.11624    312.83703    78.611925    15.905838    29.794222 
   41400    238.62179   -133.02778    229018.04   -21146.345     1580.478   -22726.823   -50.932268    314.88326    78.609906    15.906127    29.794903 
   41600    248.43512   -394.27716    229018.04   -21068.338    1645.4752   -22713.813   -1035.7501    316.62393    78.610091    15.905862    29.803885 
   41800    239.68032   -262.47164    229018.04   -21134.692     1587.489   -22722.181   -559.23165    317.24669    78.610081    15.907566    29.815333 
   42000    234.73885   -405.25995    229018.04    -21112.84    1554.7599     -22667.6   -1105.3502    317.86708    78.610405    15.909784    29.791197 
   42200    239.24801   -378.02069    229018.04   -21117.743    1584.6257   -22702.369   -1032.3065    319.16608    78.611027    15.910587    29.781924 
   42400    238.92305   -393.30738    229018.04   -21064.072    1582.4734   -22646.545    -1076.233    322.02034    78.610631    15.908997    29.767196 
   42600    237.32461   -381.48544    229018.04   -21132.558    1571.8863   -22704.444   -1034.0692    323.09293    78.611474    15.910187    29.764668 
   42800    244.06377   -284.66043    229018.04   -20996.046    1616.5222   -22612.568   -648.65366    326.52337    78.611343    15.910499    29.767324 
   43000    242.09632   -371.13115    229018.04   -20973.795    1603.4911   -22577.286   -945.20057    327.59205    78.613127    15.911663    29.767445 
   43200    242.58318   -346.08384    229018.04   -21023.162    1606.7157   -22629.877   -805.61676    328.97345    78.614724    15.912859    29.781326 
   43400    240.01512   -240.83259    229018.04   -21119.257    1589.7065   -22708.963   -437.48833    330.69115    78.613992    15.913336     29.76162 
   43600    241.81096   -297.22561    229018.04   -21149.527     1601.601   -22751.128   -635.80795     329.4343    78.613831    15.913756    29.766356 
   43800    242.80338   -405.14259    229018.04   -21089.697    1608.1742   -22697.871   -1124.2832    330.02064    78.615609    15.914987    29.752198 
   44000    241.25738   -305.90152    229018.04   -21156.808    1597.9345   -22754.743   -711.12445    332.08807    78.615282    15.914372    29.747456 
   44200    244.22923   -306.93307    229018.04    -21092.96    1617.6181   -22710.578   -702.09768    332.62133    78.613487    15.915658    29.750626 
   44400    245.48328   -466.21813    229018.04   -21089.942    1625.9241   -22715.866   -1306.9195    336.17781    78.613276    15.915824    29.736806 
   44600    244.61443   -194.68314    229018.04   -21086.687    1620.1694   -22706.857   -250.94322    336.79396    78.611958    15.913836    29.748228 
   44800    244.10719   -369.80358    229018.04   -21135.347    1616.8098   -22752.157   -953.00802    338.11135    78.612682    15.912464    29.743387 
   45000    232.26381   -399.24225    229018.04   -21139.312    1538.3668   -22677.679   -1024.3655    339.74258    78.612562    15.914099    29.736764 
   45200    243.05384   -192.18651    229018.04   -20989.112    1609.8331   -22598.945   -269.70573    341.14849     78.61205    15.915428    29.731422 
   45400    247.03019   -378.27973    229018.04   -20923.247    1636.1699   -22559.417   -1009.5343    344.65631    78.611215    15.917047      29.7418 
   45600     246.4885   -30.099228    229018.04   -20948.086     1632.582   -22580.668    388.32824    346.44985    78.608752    15.918448    29.724239 
   45800    233.18404   -281.74241    229018.04    -21022.34    1544.4618   -22566.802   -598.06078    350.57654    78.607844    15.920495    29.743744 
   46000    235.40724   -398.79386    229018.04   -21049.049    1559.1869   -22608.236   -1052.1506    350.87688    78.607398    15.919468    29.746933 
   46200    239.19192   -220.77399    229018.04   -21027.653    1584.2542   -22611.907   -388.85318    351.21757     78.60729    15.919264    29.736148 
   46400     238.7061   -380.94373    229018.04   -21025.999    1581.0364   -22607.035   -980.34918    354.39607    78.607771    15.920887    29.745466 
   46600    236.07606   -229.01354    229018.04    -21068.73    1563.6167   -22632.346   -367.58228    353.92751    78.609137     15.91906    29.779297 
   46800    243.20444   -210.50369    229018.04   -21046.555    1610.8306   -22657.385   -331.69749    355.59452    78.608533    15.917763    29.762918 
   47000    243.78895   -171.47112    229018.04   -21004.523     1614.702   -22619.225   -145.22141    357.46669    78.610688    15.919143    29.784603 
   47200    244.73636   -300.76649    229018.04    -21080.65     1620.977   -22701.627   -675.19821    358.68847    78.610986    15.920696    29.788826 
   47400    242.31419   -234.16019    229018.04    -21101.46    1604.9341   -22706.395   -396.64625    358.17437    78.608731    15.921228    29.805254 
   47600     241.5094   -314.79475    229018.04     -21055.9    1599.6037   -22655.504   -743.40728    358.23338    78.608621    15.920932    29.811522 
   47800    240.01069   -198.28343    229018.04   -21041.954    1589.6772   -22631.632   -267.35524    359.50328    78.608236    15.920783    29.789157 
   48000    241.52579   -252.64827    229018.04   -21053.808    1599.7122   -22653.521   -500.01099    361.31541    78.607993    15.919761    29.780638 
   48200     239.7062   -247.62739    229018.04   -21110.684    1587.6604   -22698.345   -460.69663    362.48994    78.608113    15.918237    29.773847 
   48400    240.68246   -389.52152    229018.04   -21164.197    1594.1266   -22758.323   -984.28394    364.15586    78.608585    15.914514    29.776593 
   48600    244.67543   -288.73493    229018.04    -21131.85    1620.5734   -22752.424    -646.1872    365.70885    78.609248    15.913356    29.765961 
   48800    238.27227   -238.34607    229018.04    -21093.14     1578.163   -22671.303   -411.88424    365.15556    78.608829    15.911747    29.754294 
   49000    237.25297   -291.70803    229018.04   -21113.375    1571.4118   -22684.787   -634.53488     366.5912    78.610647    15.910554    29.739483 
   49200    243.42658   -160.86848    229018.04   -21110.553    1612.3019   -22722.855   -139.23121    368.66873    78.611674     15.91057    29.753228 
   49400     241.3759   -321.13514    229018.04   -21104.798    1598.7195   -22703.517   -766.12245    370.79848    78.612775    15.909123     29.75469 
   49600    242.63035   -241.09666    229018.04   -21122.772    1607.0281     -22729.8   -474.31079    367.75414    78.613395    15.906142     29.74928 
   49800     237.0009   -301.85078    229018.04   -21178.017    1569.7423   -22747.759   -714.96197    370.21422    78.614013    15.906491    29.758996 
   50000    239.71566   -185.86414    229018.04   -21131.904    1587.7231   -22719.627   -262.82639    370.33432    78.615047    15.906798    29.732926 
   50200     238.6222   -466.22423    229018.04   -21131.595    1580.4807   -22712.076   -1324.0699    371.60198    78.615753     15.90711    29.749872 
   50400    240.68977   -199.44176    229018.04   -21123.007     1594.175   -22717.182   -313.19487    371.34031    78.614358    15.908684    29.725939 
   50600     234.4922   -299.77594    229018.04   -21136.971    1553.1262   -22690.098   -665.45804    373.43831    78.615078    15.907253    29.726578 
   50800    242.42006   -116.86956    229018.04   -21154.184    1605.6353    -22759.82    34.757158    373.83907    78.615634    15.904731    29.747601 
   51000    238.02978   -429.81189    229018.04    -21129.89    1576.5569   -22706.447   -1166.4516     376.4487    78.615009    15.904919    29.760337 
   51200    236.71221   -287.83457    229018.04    -21109.75    1567.8302    -22677.58   -640.45567    376.67836    78.614011    15.907094     29.74287 
   51400    243.25012   -273.00548    229018.04    -21182.03    1611.1331   -22793.163   -600.16561    377.94518    78.614209     15.90976      29.7483 
   51600    244.33985   -354.73791    229018.04   -21162.465    1618.3508   -22780.816     -860.399    378.93824    78.612629    15.909907    29.731361 
   51800    242.37793   -134.43064    229018.04   -21140.713    1605.3563   -22746.069   -76.660562    378.34489    78.615095    15.909536    29.716812 
   52000    238.91733   -428.39672    229018.04    -21120.21    1582.4355   -22702.646   -1194.5151    380.35756    78.615585    15.910234     29.72538 
   52200    237.82308   -231.42822    229018.04   -21120.112    1575.1879   -22695.299   -417.81356     379.4358    78.615638    15.908084    29.715184 
   52400    237.05331   -230.04184    229018.04   -21170.668    1570.0894   -22740.757   -389.94067    379.80084     78.61637    15.907862    29.717236 
   52600    235.20667   -136.80932    229018.04   -21144.679    1557.8584   -22702.538   -63.617133    380.07162    78.617474    15.906077    29.726306 
   52800    232.41522   -194.72981    229018.04   -21254.472    1539.3696   -22793.842   -243.41585    379.53419    78.615917    15.906404    29.730344 
   53000    231.76902   -255.62853    229018.04   -21198.307    1535.0897   -22733.397   -509.82419    380.07462    78.615202    15.906464    29.745142 
   53200    237.46625   -347.32108    229018.04   -21155.011    1572.8244   -22727.836   -863.86618    379.80644    78.613587     15.90895    29.728857 
   53400    241.32391   -234.95432    229018.04   -21149.693    1598.3751   -22748.068   -446.40502    381.74275    78.610933    15.906407    29.702634 
   53600    233.07806   -263.10574    229018.04   -21137.204    1543.7599   -22680.964   -553.11467    382.09976    78.610162    15.908546     29.69381 
   53800     235.7191   -319.12715    229018.04   -21155.331    1561.2525   -22716.584   -750.10093    383.96196    78.608788    15.910498    29.699385 
   54000    243.05297   -559.06735    229018.04   -21057.398    1609.8273   -22667.225   -1702.3312    385.12608    78.609247    15.909625    29.690074 
   54200    237.79618   -298.77184    229018.04   -21156.352    1575.0097   -22731.362   -701.41268    383.13152     78.60962    15.909061      29.6535 
   54400    234.55092   -441.87401    229018.04    -21178.18    1553.5151   -22731.695   -1221.7181     385.9909    78.608344    15.907301    29.667869 
   54600    237.23108   -409.64588    229018.04   -21090.899    1571.2668   -22662.166   -1123.0469    386.52427    78.608694    15.909123    29.668986 
   54800     243.6487   -322.86591    229018.04   -21092.875     1613.773   -22706.648    -786.1292    389.94639    78.610433    15.909097     29.67298 
   55000    237.66715   -440.94781    229018.04   -21083.609    1574.1551   -22657.764   -1250.1565    391.06953     78.61139    15.907317     29.64929 
   55200    247.30391   -354.05998    229018.04   -21063.509    1637.9828   -22701.492   -893.66954    391.92069    78.611962     15.90532    29.659975 
   55400    251.16573   -337.01694    229018.04   -21105.964     1663.561   -22769.525   -853.37642    393.00012    78.611018    15.904204    29.670487 
   55600    241.81134   -324.46346    229018.04   -21078.674    1601.6035   -22680.278   -746.54716    393.89751    78.610894    15.904133    29.656023 
   55800     240.7401   -203.44352    229018.04   -21119.641    1594.5084    -22714.15   -301.76514    393.84111     78.61292    15.899453    29.679415 
   56000    237.10686   -199.93853    229018.04   -21098.319    1570.4441   -22668.763   -279.12181    395.26038    78.612987    15.896258    29.682239 
   56200    246.72234   -276.45607    229018.04   -21048.462    1634.1308   -22682.593   -567.64528    395.14317    78.613911    15.894895    29.682039 
   56400    241.51687   -272.60177    229018.04   -21086.608    1599.6532   -22686.261   -581.57187    395.55846     78.61377    15.893604    29.659443 
   56600    230.65588   -374.95518    229018.04   -21160.259    1527.7169   -22687.976   -997.68267    396.44185    78.614308     15.89483    29.651218 
   56800    234.89969   -240.33218    229018.04   -21135.603    1555.8252   -22691.428   -470.99344    398.06924    78.614232     15.89607    29.663882 
   57000    233.91863   -338.79946    229018.04   -21213.154    1549.3273   -22762.481   -818.48889    398.52026    78.615296    15.896581    29.671659 
   57200    237.83437   -276.33641    229018.04   -21196.236    1575.2626   -22771.499   -585.07359    400.06536    78.613745    15.900208    29.658608 
   57400    234.26766   -347.23284    229018.04    -21218.33     1551.639   -22769.969   -903.67015    400.81623    78.615875    15.903226    29.667226 
   57600    241.49877   -252.68921    229018.04   -21100.031    1599.5333   -22699.565   -504.75692    399.92966    78.614726    15.904433    29.652006 
   57800    238.58951   -253.97628    229018.04   -21082.576    1580.2642    -22662.84   -540.06732    401.07356    78.614044    15.903309    29.641674 
   58000    243.86321   -384.39369    229018.04   -21037.317    1615.1938   -22652.511   -1020.7927    401.62826    78.614091     15.90474    29.630448 
   58200    238.89452   -175.99938    229018.04   -21025.568    1582.2844   -22607.853   -230.36932     403.4684    78.614275    15.901958    29.601463 
   58400    237.31402   -346.37231    229018.04   -21119.822    1571.8162   -22691.638   -871.17644    405.44265    78.615348    15.897726    29.578371 
   58600    237.60508   -387.98939    229018.04   -21057.768     1573.744   -22631.512   -1041.0339    408.30486    78.616046     15.89777    29.589829 
   58800     239.5121   -205.00032    229018.04   -21076.979    1586.3748   -22663.354   -335.12855    409.50494    78.617212    15.898015    29.586832 
   59000    238.57053   -437.11179    229018.04   -21117.849    1580.1385   -22697.987   -1212.7522    410.77401     78.61923    15.897469    29.588343 
   59200    232.43085   -260.08885    229018.04   -21163.362    1539.4732   -22702.835   -503.91245    411.80887    78.618779    15.898858    29.582192 
   59400    242.21125   -272.18384    229018.04   -21164.821    1604.2523   -22769.073   -596.53159    411.53427    78.617833    15.899124    29.576841 
   59600    247.33246   -391.03584    229018.04   -21099.376    1638.1719   -22737.548   -1041.8292    411.20995    78.615534    15.902295    29.569943 
   59800    250.31745   -256.35768    229018.04   -21070.058    1657.9426   -22728.001   -499.75443    412.68492    78.613216    15.902856    29.584071 
   60000    240.43474   -212.09934    229018.04   -21152.272    1592.4858   -22744.758   -348.19724    415.66885    78.612992    15.901245    29.601567 
   60200    245.21204   -226.44012    229018.04   -21029.071    1624.1276   -22653.199   -396.90798    415.34489    78.612844    15.901869    29.596564 
   60400    239.64497   -258.26235    229018.04   -21117.435    1587.2549    -22704.69   -503.59941    416.53186    78.612436    15.903038    29.601039 
   60600    239.53633   -371.59984    229018.04   -21113.599    1586.5353   -22700.135   -978.14115    418.45624    78.611213    15.904533    29.623202 
   60800    240.11721   -312.26045    229018.04   -21173.022    1590.3827   -22763.405   -745.32718    420.79351    78.609583    15.903006     29.61807 
   61000    234.28237   -177.99305    229018.04   -21175.792    1551.7365   -22727.528   -198.71141    420.41585    78.610867    15.900709    29.616983 
   61200    235.36866   -258.44642    229018.04   -21217.616    1558.9314   -22776.547   -531.14447    423.73011    78.609505    15.901221    29.619162 
   61400    238.61398   -187.90699    229018.04   -21164.323    1580.4263   -22744.749   -236.14191    423.42916    78.607902    15.903222    29.640221 
   61600    240.13689   -258.17264    229018.04   -21152.743    1590.5131   -22743.256   -489.39665     424.5092     78.60891    15.904643    29.612982 
   61800    246.43896   -350.67672    229018.04   -21089.134    1632.2539   -22721.388     -884.168    427.78856    78.610167    15.904526    29.599386 
   62000    238.47848   -180.36792    229018.04   -21189.995    1579.5288   -22769.524   -224.04402    428.83891    78.609493    15.905629    29.619649 
   62200    245.43563   -293.65203    229018.04   -21117.959    1625.6085   -22743.567   -669.28039    430.51532    78.609526    15.907721    29.624399 
   62400    242.94752   -283.75802    229018.04   -21075.325    1609.1289   -22684.454   -621.77498     432.1697    78.608527    15.908839    29.636183 
   62600    244.66005   -368.66813    229018.04   -21131.003    1620.4716   -22751.474   -938.09494    432.24804    78.607463    15.909887    29.653122 
   62800    242.32096   -219.54613    229018.04   -21125.305     1604.979   -22730.284   -371.27767    432.11065    78.607392    15.909041    29.654678 
   63000    242.40823    -221.9413    229018.04   -21165.379     1605.557   -22770.936   -355.20362    434.43757    78.610447    15.909084    29.657722 
   63200    239.12719   -254.14005    229018.04   -21256.424    1583.8255    -22840.25   -483.64415     434.1683    78.610365    15.907051    29.651843 
   63400    243.04724   -249.28207    229018.04     -21113.8    1609.7894    -22723.59   -463.44179    436.42108     78.60953    15.903236    29.637619 
   63600    237.93123   -276.01635    229018.04   -21126.275    1575.9042   -22702.179   -589.28986    440.00755    78.609133    15.901663    29.657842 
   63800    240.02085   -298.87971    229018.04   -21068.596    1589.7445   -22658.341   -699.96527    441.79762    78.608683      15.8997     29.63169 
   64000    238.76418   -224.31582    229018.04   -21142.636    1581.4211   -22724.057   -395.05604    443.15698    78.608858    15.897658    29.648004 
   64200    237.99105   -276.84912    229018.04   -21108.771    1576.3004   -22685.072   -587.12845    444.03123    78.607332    15.897158    29.673911 
   64400    238.56131   -251.34459    229018.04   -21062.417    1580.0774   -22642.494   -492.13982    448.52503    78.606563    15.896918    29.690301 
   64600     242.2379   -249.82934    229018.04   -21137.437    1604.4288   -22741.866   -495.42092    446.73307    78.607365    15.895207    29.675674 
   64800    242.74827   -387.85271    229018.04    -21068.46    1607.8092   -22676.269   -1029.4118    449.06455    78.608801     15.89536    29.689931 
   65000    235.34459   -215.13417    229018.04   -21158.055    1558.7719   -22716.827   -349.51488    449.38687    78.610149    15.898294     29.68654 
   65200    236.12429   -439.30082    229018.04   -21188.617    1563.9362   -22752.553   -1280.4663    451.12111    78.608239    15.900286     29.64867 
   65400    243.33169   -96.232308    229018.04   -21092.179    1611.6734   -22703.852    104.51742    451.23349    78.608423    15.899505    29.650841 
   65600    238.95264   -354.33882    229018.04   -21060.533    1582.6693   -22643.203    -890.0468    452.38782    78.609089    15.898311    29.651246 
   65800    241.17891   -339.48449    229018.04   -21158.981    1597.4147   -22756.396   -827.25335    454.42945    78.610404    15.896105    29.647185 
   66000    240.54315   -431.96315    229018.04   -21166.872    1593.2038   -22760.076   -1171.3087    456.36423    78.611963    15.896378     29.64433 
   66200    237.53149   -316.01676    229018.04   -21092.396    1573.2566   -22665.652   -779.89769    455.68168    78.610994    15.897351    29.635924 
   66400    238.28305   -283.77886    229018.04   -21173.586    1578.2344    -22751.82   -599.38403     455.7866    78.611268    15.898204     29.64062 
   66600    245.53991   -308.77322    229018.04   -21120.604    1626.2992   -22746.904   -678.67132    455.05125    78.611813    15.898356     29.64769 
   66800    233.66834   -344.07046    229018.04   -21184.678    1547.6695   -22732.348   -834.94629     455.2826    78.612897    15.900601    29.642322 
   67000    240.11618   -229.68892    229018.04   -21129.451    1590.3759   -22719.827   -445.37747    458.64574    78.613409    15.903967    29.638671 
   67200    227.83135    -273.6826    229018.04   -21167.204     1509.009   -22676.213   -571.34094    459.06287    78.614434    15.901991    29.635712 
   67400    237.61733   -167.76112    229018.04   -21085.383    1573.8251   -22659.209   -129.03376    459.62676    78.615083    15.901685    29.630465 
   67600     238.9481   -197.39733    229018.04   -21106.638    1582.6393   -22689.277   -267.53076    459.98649    78.613639    15.899086    29.629087 
   67800    236.99036   -377.95046    229018.04   -21135.061    1569.6725   -22704.733   -960.78641    462.00106    78.611566    15.898316    29.650635 
   68000    242.45226   -381.31497    229018.04   -21104.527    1605.8486   -22710.376   -1008.1952    463.65091    78.612028    15.901211     29.66004 
   68200    235.66422   -372.06994    229018.04   -21152.879    1560.8889   -22713.768   -959.86148    463.62311    78.612781    15.903797    29.687932 
   68400    240.72649   -277.66522    229018.04   -21041.658    1594.4182   -22636.076   -622.98287    464.28476    78.612477    15.905487    29.708416 
   68600    242.86413   -187.70961    229018.04   -21084.908    1608.5765   -22693.485   -254.52048    464.19704    78.612056    15.907582    29.705686 
   68800    245.36598   -312.62179    229018.04   -21086.009    1625.1472   -22711.156   -726.46448     466.2696    78.611308    15.908241    29.699253 
   69000    239.60402   -373.71394    229018.04   -21058.692    1586.9837   -22645.676   -1006.3366    467.62537    78.612039    15.907983    29.699952 
   69200    241.34063   -231.86733    229018.04   -21091.134    1598.4858    -22689.62   -373.22993    470.27755    78.612051    15.908667    29.703707 
   69400    240.02211   -271.06734    229018.04   -21107.958    1589.7528   -22697.711    -540.9099    470.16023    78.612975    15.905689    29.704705 
   69600    238.67698   -297.21418    229018.04   -21100.844    1580.8435   -22681.688   -673.96489    473.06519    78.612478    15.903497    29.696276 
   69800     239.0598   -232.78699    229018.04   -21104.334    1583.3791   -22687.713   -407.39949    475.84529    78.610778    15.904091    29.691968 
   70000    239.60502    -319.0123    229018.04   -21176.248    1586.9903   -22763.238   -747.88964    479.03086    78.610487    15.903485    29.707445 
   70200     239.6114   -170.62366    229018.04   -21182.936    1587.0325   -22769.969   -177.70361    481.77029    78.612311    15.903607    29.704265 
   70400    239.93975   -251.77735    229018.04   -21190.506    1589.2073   -22779.713   -475.21035    485.02644    78.613748     15.90338    29.682474 
   70600    241.85701   -308.72035    229018.04   -21149.581     1601.906   -22751.487    -697.6002     484.6919    78.611845    15.904839    29.668149 
   70800    234.40321   -314.22038    229018.04   -21165.375    1552.5368   -22717.911   -697.10757    487.12524    78.611166    15.911934    29.664628 
   71000    239.03423   -305.39035    229018.04   -21122.026    1583.2098   -22705.236   -706.97809    489.64984    78.609544    15.915252    29.671914 
   71200    251.15565   -288.43915    229018.04   -21018.476    1663.4942   -22681.971   -616.85812     491.6153    78.607635     15.91546    29.671818 
   71400    243.30725   -360.87242    229018.04   -21099.049    1611.5115   -22710.561   -893.92965    492.48987    78.606115     15.91507    29.666356 
   71600    237.62171   -183.57489    229018.04   -21138.245    1573.8541   -22712.099   -210.50613    493.04895    78.602617    15.913968    29.675294 
   71800    236.35802   -386.74899    229018.04   -21156.866    1565.4842   -22722.351   -1025.9697    496.32286    78.602108    15.913232    29.680488 
   72000    239.67722   -163.97077    229018.04    -21143.07    1587.4685   -22730.539    -126.6048    497.19849    78.602228    15.913816    29.679757 
   72200    234.19728    -281.1916    229018.04   -21135.735    1551.1729   -22686.908   -570.09824    498.37132    78.602718    15.915075    29.674231 
   72400    240.86951   -283.74487    229018.04   -21091.895    1595.3655   -22687.261   -604.59528    496.55391    78.604005    15.916753    29.651688 
   72600    245.55892   -180.61407    229018.04    -21125.21    1626.4251   -22751.635   -200.08444    497.76306    78.605713    15.917796    29.684729 
   72800    239.22407   -304.29124    229018.04   -21149.951    1584.4671   -22734.418    -683.2044     499.6921    78.607264    15.919578    29.681657 
   73000    231.98636   -149.46536    229018.04   -21178.967    1536.5292   -22715.496   -84.896141    502.76056    78.607611    15.922883    29.678369 
   73200    244.30033   -366.39028    229018.04   -21049.449     1618.089   -22667.538   -929.18079    505.52435    78.608267     15.92392    29.668215 
   73400    242.60092   -427.14079    229018.04    -21065.43    1606.8332   -22672.263   -1186.5077    504.40781    78.608187    15.923007     29.67195 
   73600    236.61413   -230.07755    229018.04   -21096.958    1567.1806   -22664.138   -407.00234    506.15579    78.609993    15.923428    29.678557 
   73800    252.72297   -311.33299    229018.04   -21058.443    1673.8752   -22732.318   -713.25353     506.8083    78.611154    15.923619    29.684988 
   74000    246.95084   -300.61639    229018.04   -20995.992    1635.6443   -22631.637     -706.711    506.28159    78.610415     15.92304    29.692043 
   74200    245.12254   -361.55697    229018.04    -21062.65    1623.5348   -22686.185    -915.3468    508.04431    78.610247    15.922817    29.700034 
   74400     236.5674   -199.54418    229018.04   -21108.257     1566.871   -22675.128     -250.071    508.77492     78.60842    15.921395    29.690894 
   74600    232.90537   -340.75236    229018.04   -21147.753    1542.6161   -22690.369    -830.4228    512.18214    78.607583    15.921213    29.694434 
   74800    239.60189   -259.75828    229018.04   -21081.433    1586.9695   -22668.403   -535.46685    512.21769     78.60686    15.921606    29.689498 
   75000    240.99092   -293.20168    229018.04   -21114.703    1596.1696   -22710.872   -685.12075    513.71308    78.605482    15.922213    29.703831 
   75200    240.25304   -284.36732    229018.04   -21105.588    1591.2824    -22696.87   -651.97316    512.36421    78.604607     15.92291     29.67914 
   75400    242.80069   -571.54465    229018.04   -21047.819    1608.1564   -22655.976   -1770.3525    515.40291    78.604689    15.922125    29.666056 
   75600     246.8211    -145.5577    229018.04   -21083.572     1634.785   -22718.357   -111.01354    513.47877    78.605752     15.92054    29.671297 
   75800    236.22092   -267.63848    229018.04   -21105.738    1564.5762   -22670.314   -545.02932    517.19462    78.606362    15.920562    29.644601 
   76000    246.49645   -226.06901    229018.04   -21118.196    1632.6347    -22750.83   -390.65307    519.99152    78.605832    15.921987    29.631692 
   76200    230.83604   -136.84008    229018.04    -21176.71    1528.9102    -22705.62   -41.394902    520.18617    78.607968    15.921868    29.620753 
   76400    238.32619   -311.92384    229018.04   -21234.249    1578.5201   -22812.769    -749.3282    522.37775    78.608798    15.921341    29.630462 
   76600    244.09051   -332.15298    229018.04   -21171.557    1616.6993   -22788.256   -788.21066    522.76844    78.608253    15.922581    29.661249 
   76800    247.16933   -334.13568    229018.04   -21086.096    1637.0914   -22723.188   -819.76503    521.40426    78.609207    15.920572    29.644968 
   77000    238.99159   -257.85234    229018.04   -21147.566    1582.9273   -22730.493   -507.97346    521.85689     78.61059    15.923067    29.660598 
   77200    235.42409   -374.40686    229018.04   -21166.708    1559.2985   -22726.006   -1000.8992    521.02532    78.611747     15.92578    29.658645 
   77400    238.38087   -402.02035    229018.04   -21161.396    1578.8823   -22740.279   -1111.3394    520.02087    78.613201    15.925423    29.674852 
   77600    236.23787   -193.35081    229018.04   -21134.942    1564.6885   -22699.631   -270.47086    518.29471     78.61506    15.925629    29.667043 
   77800    231.13541   -346.66143    229018.04   -21121.434     1530.893   -22652.327   -856.14952    521.44319    78.614364    15.924713    29.668269 
   78000    239.27501   -305.24485    229018.04   -21148.918    1584.8045   -22733.722   -697.35197    521.17786     78.61382    15.921573     29.67487 
   78200    238.79432   -256.60423    229018.04   -21095.267    1581.6208   -22676.887   -504.42387    521.60033    78.613186    15.918617    29.683433 
   78400    239.38925    -243.1804    229018.04   -21111.787    1585.5612   -22697.348   -473.30307    523.39263    78.612534    15.916049    29.679899 
   78600    240.37143   -265.13305    229018.04   -21175.326    1592.0665   -22767.392   -517.80699    522.95347    78.610264    15.915642     29.67788 
   78800    243.66926   -292.41265    229018.04   -21154.684    1613.9092   -22768.593   -672.54966    524.92258    78.609526    15.916429    29.665622 
   79000     243.9487   -190.72878    229018.04   -21168.026      1615.76   -22783.786   -240.03141    528.04195    78.610435    15.916687    29.654212 
   79200     243.1111   -258.69623    229018.04   -21151.949    1610.2123   -22762.162   -532.58568    525.87539    78.609406    15.917146    29.663662 
   79400    242.88694   -453.03852    229018.04    -21200.91    1608.7276   -22809.638   -1294.0262    526.26902    78.610465    15.919185    29.664129 
   79600    235.46332   -322.85632    229018.04   -21176.998    1559.5583   -22736.557   -804.63557    528.36527    78.612471    15.920282    29.669754 
   79800    239.56553   -454.87563    229018.04   -21134.638    1586.7287   -22721.367   -1264.6085    531.32522    78.614161    15.920233    29.697524 
   80000    231.97185   -390.84767    229018.04   -21168.574     1536.433   -22705.007    -1048.579    532.92844    78.614473    15.918472    29.706986 
   80200    236.31143   -418.06538    229018.04   -21162.119    1565.1757   -22727.294   -1134.6479    533.48841    78.616117    15.917176    29.694325 
   80400    236.31141   -301.14699    229018.04   -21260.626    1565.1755   -22825.802   -707.48096    534.01712    78.618171     15.91677    29.665511 
   80600    248.00567   -234.12482    229018.04   -21081.038    1642.6308   -22723.669    -446.5106    533.78554    78.618222    15.917874    29.671363 
   80800    242.40076   -221.60312    229018.04   -21140.077    1605.5075   -22745.584   -382.50427    535.06547    78.616861    15.916075    29.678652 
   81000    241.21058   -327.70509    229018.04   -21080.305    1597.6245    -22677.93    -762.4051    537.12585    78.616346    15.915414    29.683331 
   81200    235.20996   -392.18578    229018.04   -21097.104    1557.8802   -22654.984   -1044.2477    539.67238     78.61476    15.912331    29.676841 
   81400    233.78757   -276.37803    229018.04   -21162.738    1548.4592   -22711.197    -576.7384    540.37135    78.614748     15.91097    29.673794 
   81600    249.64596   -464.99548    229018.04   -21079.741     1653.495   -22733.236   -1314.6696    542.42101    78.615655     15.91019    29.666845 
   81800     242.7703   -295.01348    229018.04   -21078.209     1607.955   -22686.164   -673.88571     541.1191    78.617062    15.908975    29.643442 
   82000    253.13501   -235.64397    229018.04   -21024.327    1676.6043   -22700.931   -426.94103    540.72946    78.617693    15.908147    29.623666 
   82200    243.54695   -225.14431    229018.04   -21112.168    1613.0991   -22725.267    -401.5641    540.32239    78.617601    15.909212    29.630729 
   82400     239.8187   -323.50617    229018.04    -21138.76    1588.4056   -22727.166   -762.97328    541.18575    78.617965    15.908972    29.657875 
   82600    245.57197   -238.10377    229018.04   -21113.406    1626.5116   -22739.917   -412.05311    541.61903    78.617854    15.908264    29.649292 
   82800    243.88597     -420.595    229018.04   -21079.643    1615.3446   -22694.987   -1131.1298    541.34596    78.617657    15.909958    29.624397 
   83000     238.4476    -290.0825    229018.04   -21096.084    1579.3243   -22675.408   -609.87955    539.91527     78.61506    15.910864    29.602524 
   83200    243.47244   -273.61701    229018.04   -21106.125    1612.6056   -22718.731   -532.21067    539.83416    78.617524    15.909118    29.589339 
   83400    238.93037   -378.41893    229018.04   -21138.256    1582.5219   -22720.777   -993.08816    542.02544    78.618521    15.909198    29.586835 
   83600    237.56427   -268.88126    229018.04   -21101.626    1573.4737     -22675.1   -581.13796    543.85965    78.618369     15.91019    29.588584 
   83800     238.7162    -218.7661    229018.04   -21171.239    1581.1033   -22752.343   -371.65623    542.86014    78.618895    15.911441    29.594266 
   84000    236.93663    -321.1794    229018.04   -21170.254    1569.3166    -22739.57   -768.37073    543.39156    78.618109    15.909745    29.590946 
   84200    236.53253   -204.93699    229018.04   -21178.512    1566.6401   -22745.152   -306.51423    545.53357    78.620061    15.908829    29.580366 
   84400    234.67866   -357.28639    229018.04   -21113.866    1554.3612   -22668.228   -868.80923    547.82443    78.621984    15.909033    29.594991 
   84600    234.95539   -376.76402    229018.04   -21130.834    1556.1941   -22687.028   -959.28367    547.70458    78.624397    15.905759    29.589736 
   84800    233.60359   -222.81583    229018.04   -21194.701    1547.2407   -22741.942   -411.67619    549.30515    78.623511    15.904787    29.581161 
   85000    240.48598   -445.36074    229018.04    -21127.18    1592.8252   -22720.005   -1274.5955    547.82029    78.622495    15.904974    29.606037 
   85200    241.49175   -257.67826    229018.04   -21051.417    1599.4868   -22650.903   -496.12279    548.71457    78.622643    15.905574    29.596368 
   85400     240.3867   -358.61334    229018.04   -21080.885    1592.1676   -22673.052    -880.1339    551.36495    78.622834    15.906085    29.604705 
   85600    243.90115   -379.94531    229018.04   -21039.487    1615.4451   -22654.932   -1008.8285    551.32925    78.623076    15.906962    29.625966 
   85800    239.01868    -187.3902    229018.04   -21045.499    1583.1068   -22628.606   -226.73929    552.42254    78.622787    15.909543    29.617422 
   86000    236.45633   -440.76722    229018.04    -21003.66    1566.1354   -22569.796   -1220.4217    551.80472    78.621096    15.913281    29.626389 
   86200    241.12689    -128.3198    229018.04   -21074.524    1597.0702   -22671.594   -52.433815    551.23629    78.621721    15.913912    29.646408 
   86400    241.38462   -337.88616    229018.04   -21078.169    1598.7772   -22676.946   -823.81531    554.93233    78.624638    15.913949    29.650392 
   86600    245.81229   -308.62577    229018.04   -21049.304    1628.1033   -22677.408   -729.01132    556.29328    78.623865    15.916025    29.657403 
   86800    235.01234   -313.06211    229018.04   -21138.657    1556.5713   -22695.228   -718.08278    557.97504    78.623051    15.920056    29.657886 
   87000    237.02915   -93.164396    229018.04   -21151.968    1569.9293   -22721.897    145.76674    554.91955    78.623453    15.922566    29.676604 
   87200     238.3088   -404.57325    229018.04   -21105.345     1578.405    -22683.75   -1119.4298    556.23931    78.622602     15.92363     29.68039 
   87400    243.17851    -339.4669    229018.04   -21108.942    1610.6588     -22719.6   -830.76667    555.46912    78.619379    15.923392    29.668054 
   87600    245.60813   -397.49579    229018.04   -21059.627    1626.7511   -22686.378   -1074.1968    554.86257    78.620269    15.924826     29.66839 
   87800    235.56045   -394.62928    229018.04   -21209.994    1560.2017   -22770.196   -1058.3204    554.84961        78.62    15.926072    29.665677 
   88000    246.29353   -147.72551    229018.04   -21052.179    1631.2907    -22683.47   -57.554541    553.77134    78.621403    15.926061     29.65477 
   88200     245.0643   -340.40713    229018.04   -21079.599     1623.149   -22702.748   -829.36413    554.92653    78.621172    15.923986    29.652447 
   88400    239.87755   -295.78084    229018.04   -21096.179    1588.7954   -22684.975   -636.54517    556.34471    78.621066     15.92216    29.652662 
   88600    236.14198   -397.05591    229018.04   -21204.384    1564.0533   -22768.438   -1044.9694    558.08099    78.622197    15.921476    29.631007 
   88800    238.53689   -213.69804    229018.04   -21217.935    1579.9157   -22797.851   -326.05372     559.7746    78.621561    15.923287    29.639144 
   89000    235.16032   -274.23816    229018.04   -21248.045    1557.5515   -22805.596   -572.90011    560.72096    78.619548    15.921855    29.657895 
   89200    242.17176   -227.10648    229018.04   -21214.904    1603.9908   -22818.895   -370.52465    561.13112    78.620094    15.918067    29.633509 
   89400    245.42903   -306.41829    229018.04   -21183.725    1625.5648    -22809.29   -680.60422    560.69331    78.618168    15.914638    29.655749 
   89600    233.46215   -348.33646    229018.04   -21288.123    1546.3038   -22834.426    -891.1261    560.67372    78.619929    15.912659    29.674082 
   89800    233.88263   -339.52094    229018.04   -21222.954    1549.0889   -22772.043   -849.31234    562.90795    78.621062    15.911424    29.685419 
   90000    237.50273   -300.32971    229018.04    -21128.15    1573.0661   -22701.216   -635.79442    562.45621    78.621722    15.909809     29.68526 
   90200    235.45222   -199.77575    229018.04   -21173.319    1559.4848   -22732.804   -272.92742    562.64929    78.622502    15.909056    29.686285 
   90400    234.79535   -315.84215    229018.04   -21236.722    1555.1341   -22791.856   -724.76552    565.47318    78.623553    15.907791    29.682134 
   90600    237.37126   -352.36505    229018.04    -21258.34    1572.1953   -22830.536   -891.26103    565.27967    78.623511    15.907371    29.681482 
   90800    253.04658   -251.29246    229018.04    -21117.59    1676.0186   -22793.609   -449.68624    563.62193    78.624505    15.905738    29.647315 
   91000    237.49506   -355.55228    229018.04   -21204.804    1573.0152   -22777.819   -895.41301    565.53242    78.624226    15.905881    29.658239 
   91200    230.98012   -219.98412    229018.04    -21222.77    1529.8645   -22752.634   -372.33051    566.20874    78.624037    15.904307     29.65428 
   91400     236.8649   -246.27325    229018.04   -21199.873    1568.8415   -22768.715   -452.95209    564.78855    78.624278    15.905407    29.633957 
   91600     238.2689   -371.06744    229018.04   -21135.299    1578.1407    -22713.44   -932.90727    567.88617    78.624032    15.907273     29.61422 
   91800    237.85882   -283.39622    229018.04   -21061.881    1575.4246   -22637.305   -614.55509    566.52929    78.623149    15.909037    29.622076 
   92000    244.47727   -207.47709    229018.04   -21116.047     1619.261   -22735.308   -300.18227    565.71909    78.624937    15.911312    29.620193 
   92200    239.33062   -472.11032    229018.04   -21125.209    1585.1728   -22710.382   -1339.2676    567.85878    78.624357    15.915453    29.629336 
   92400    241.85317   -292.30116    229018.04   -21091.296    1601.8806   -22693.177   -599.82751    566.38703    78.624227    15.915686    29.637405 
   92600    235.80359   -154.52874    229018.04   -21077.271    1561.8121   -22639.083   -93.124152    566.85022    78.623481    15.913351    29.655505 
   92800    236.31498   -353.75537    229018.04   -21144.855    1565.1992   -22710.054   -866.58497    568.53098    78.622838    15.913483    29.660577 
   93000    231.03192   -448.47418    229018.04   -21143.465    1530.2076   -22673.673   -1250.4416    571.13797    78.621441    15.913153     29.65738 
   93200    243.07509   -255.93356    229018.04   -21030.862    1609.9738   -22640.836   -509.86304    571.57818    78.622325    15.911322    29.637351 
   93400    236.28866   -278.26723    229018.04   -21122.101    1565.0248   -22687.126   -563.58368    571.87427    78.621784    15.910903    29.630129 
   93600    237.35869   -291.81061    229018.04   -21130.954     1572.112   -22703.066   -598.49065    572.33178    78.622991    15.911936    29.634664 
   93800    244.98779   -486.48124    229018.04   -21048.027    1622.6423    -22670.67   -1377.6458    573.80143    78.623099    15.915601    29.640751 
   94000    241.18628   -274.73004    229018.04   -21092.905    1597.4635   -22690.369   -581.69349    573.95861     78.62357    15.916469    29.636554 
   94200    236.80275    -263.9572    229018.04   -21092.743    1568.4298   -22661.173   -516.40191    575.38212    78.623624    15.916317    29.642644 
   94400    240.91355   -427.56789    229018.04    -20989.85    1595.6572   -22585.507   -1178.3423     575.4192    78.622895    15.917857    29.631837 
   94600     239.0026    -265.2652    229018.04   -21037.908    1583.0002   -22620.908   -517.01744    577.20746    78.623374    15.916862    29.617568 
   94800    247.14956    -375.9782    229018.04   -20948.934    1636.9605   -22585.894   -963.90767    578.16431    78.622276     15.91451    29.632533 
   95000    239.64336   -314.55633    229018.04   -21012.973    1587.2443   -22600.217   -769.72664    579.89207    78.622166    15.913612    29.612884 
   95200    242.24552   -335.15462    229018.04   -21129.917    1604.4793   -22734.396   -820.98396    583.33837    78.621837    15.911626    29.602833 
   95400    236.16521   -413.57844    229018.04   -21142.309    1564.2072   -22706.516   -1155.0289    585.02808    78.623875    15.910223     29.58679 
   95600    238.67325   -368.51865    229018.04   -21135.472    1580.8189    -22716.29   -997.96108    587.75605    78.625264    15.907255    29.603589 
   95800    236.72179   -333.80715    229018.04   -21064.858    1567.8936   -22632.752   -782.02249    589.15013    78.627991    15.905148    29.614312 
   96000    237.39849   -380.56848    229018.04    -21104.69    1572.3757   -22677.066   -1005.3584    592.78046    78.631561     15.90469    29.609317 
   96200    237.17094    -229.8524    229018.04   -21140.447    1570.8685   -22711.315    -400.7741    591.56266    78.631993    15.900762    29.622001 
   96400    233.46561   -261.75242    229018.04   -21068.032    1546.3268   -22614.359   -523.98336    594.73559    78.633017    15.898339    29.614185 
   96600    232.55842   -302.87705    229018.04   -21168.587    1540.3181   -22708.905   -687.03366    594.06163    78.632252    15.896466    29.625181 
   96800    241.71267   -147.67498    229018.04   -21137.384      1600.95   -22738.334   -82.950369    596.13309    78.630321    15.894469    29.629471 
   97000     236.8104    -420.0345    229018.04   -21142.115    1568.4805   -22710.596    -1161.202    597.14504    78.628606    15.894379     29.59805 
   97200    242.91942   -173.52321    229018.04   -21132.407    1608.9428    -22741.35   -213.68702    597.29022    78.627736    15.894176    29.606038 
   97400    244.64231   -321.12955    229018.04   -21118.955    1620.3541   -22739.309   -739.30542    598.21115     78.62706    15.893817    29.600472 
   97600    241.99703   -252.89997    229018.04   -21144.054    1602.8334   -22746.888   -513.37542    599.75339     78.62653    15.895302    29.616546 
   97800    240.04268   -326.17696    229018.04   -21209.299     1589.889   -22799.188   -765.92523    601.86422    78.627719    15.896652    29.614066 
   98000     229.7394   -325.80053    229018.04   -21292.917    1521.6467   -22814.564   -778.88133    602.49914    78.628966    15.896806    29.589352 
   98200    232.47955   -413.38666    229018.04   -21256.653    1539.7957   -22796.448   -1137.3912    604.85734    78.629416    15.895181    29.563352 
   98400    237.85747   -342.05555    229018.04     -21201.6    1575.4156   -22777.016   -815.32805    603.74063    78.629271    15.892268    29.571272 
   98600    243.94032   -263.22792    229018.04   -21203.109    1615.7046   -22818.813   -508.61657    605.75282    78.629624    15.891541    29.595841 
   98800     250.3685   -188.43913    229018.04    -21092.56    1658.2807   -22750.841   -227.95247    606.42649    78.632017    15.891657    29.580243 
   99000    245.08958    -411.2859    229018.04   -21075.262    1623.3165   -22698.579   -1139.5925    609.30879      78.6323    15.889305    29.571246 
   99200    238.37877   -164.75362    229018.04   -21125.058    1578.8684   -22703.927   -146.59208    607.76158    78.632811    15.888406    29.579889 
   99400    236.51991   -379.67752    229018.04   -21193.722    1566.5565   -22760.279   -996.63635    609.93477    78.631435    15.887472    29.553481 
   99600    237.32609   -189.47598    229018.04   -21138.983    1571.8961   -22710.879   -297.07548    610.67876    78.629006    15.885515    29.563848 
   99800    247.78346   -248.88955    229018.04   -21118.532    1641.1591   -22759.691   -470.70182    611.82034    78.630082    15.882881    29.573939 
  100000    238.55223   -286.26512    229018.04    -21129.86    1580.0173   -22709.877   -603.62686    613.65496    78.629977    15.883193    29.579624 
  100200    249.92594   -214.75702    229018.04   -21048.578    1655.3495   -22703.928   -348.73244    613.06636    78.630296    15.886255     29.60586 
  100400    241.01282   -168.29688    229018.04   -21089.143    1596.3147   -22685.458   -160.47448    613.16699    78.629196    15.887347    29.637703 
  100600    240.59793   -84.457601    229018.04   -21122.495    1593.5667   -22716.061    150.51728    613.77411    78.630195    15.890625    29.622394 
  100800    244.78246   -378.74748    229018.04   -21077.417    1621.2824   -22698.699   -956.94843    616.16635    78.629213    15.893088    29.622992 
[...]
 5175800    234.97012   -375.54364    229018.04   -23274.085    1556.2917   -24830.376   -996.53228    9152.5969    79.077647    15.708234     29.91496 
 5176000    219.55427   -244.36534    229018.04   -23408.787    1454.1869   -24862.974   -541.77276    9147.6434    79.077666    15.712227    29.892936 
 5176200    214.99904   -342.50922    229018.04   -23391.606     1424.016   -24815.622   -890.59826    9149.4412    79.079034    15.715776    29.902792 
 5176400    228.87354   -405.56291    229018.04   -23349.309    1515.9118   -24865.221   -1120.7179    9153.1521    79.079381     15.71876    29.886335 
 5176600    226.43787   -169.65369    229018.04   -23317.631    1499.7795   -24817.411   -151.93735    9147.7838    79.080219    15.723515    29.898726 
 5176800    222.12456   -342.31235    229018.04   -23363.766    1471.2109   -24834.977   -895.25332    9148.4435    79.080646    15.724061    29.890789 
 5177000    235.97153   -453.45462    229018.04    -23271.88    1562.9244   -24834.805   -1336.0042    9151.9475    79.079504    15.725954    29.892158 
 5177200    229.61036   -251.49236    229018.04   -23272.751    1520.7921   -24793.543   -508.84101    9146.4549    79.078268    15.726862    29.894576 
 5177400    221.92126   -416.36272    229018.04   -23310.564    1469.8644   -24780.429   -1171.0844    9149.5717    79.077437    15.728017    29.879816 
 5177600    220.99612   -379.56233    229018.04   -23308.219    1463.7368   -24771.956   -1008.1919    9150.5204    79.076894    15.731369    29.889515 
 5177800    225.34796   -331.21135    229018.04   -23276.115    1492.5607   -24768.676   -856.39353    9149.6155    79.075564    15.733026    29.896841 
 5178000    228.16065   -413.84662    229018.04   -23365.437    1511.1901   -24876.627   -1167.1498    9150.1933    79.073423    15.733779    29.885147 
 5178200    222.83384   -430.27146    229018.04   -23358.122    1475.9087   -24834.031   -1165.9031    9151.2137      79.0729    15.735434    29.886852 
 5178400    232.27478   -259.09242    229018.04   -23253.595    1538.4394   -24792.035   -527.40752    9148.6938    79.071689    15.738072    29.887693 
 5178600    226.92832   -307.46447    229018.04    -23309.33    1503.0279   -24812.357   -740.77596    9148.6174    79.068799    15.738929    29.889487 
 5178800    225.48324   -384.67483    229018.04   -23278.091    1493.4567   -24771.548   -1051.4835     9152.371    79.066486    15.739877    29.884779 
 5179000    230.85184   -292.01791    229018.04   -23239.233    1529.0148   -24768.247   -694.34455    9148.7382     79.06577    15.740131    29.894206 
 5179200    224.28623   -365.81623    229018.04   -23305.652    1485.5284   -24791.181    -985.9389    9149.0509     79.06679    15.742164    29.892821 
 5179400    226.09314   -382.12681    229018.04   -23330.761    1497.4962   -24828.257   -1031.8908    9150.7466    79.066224    15.740707    29.909363 
 5179600    227.70454    -372.1095    229018.04   -23298.986    1508.1691   -24807.155   -991.99158    9150.2795    79.066572    15.741898    29.899795 
 5179800    228.55427   -345.08118    229018.04   -23282.184    1513.7972   -24795.981   -854.24848     9149.232    79.065819    15.740791    29.903073 
 5180000     226.5149   -395.88554    229018.04   -23319.464    1500.2897   -24819.753   -1066.2442     9149.368    79.065952    15.741334    29.895182 
 5180200    226.05752   -265.48144    229018.04   -23337.906    1497.2603   -24835.166   -562.75663    9148.6049    79.067182     15.74222    29.899523 
 5180400    225.15235   -371.16786    229018.04   -23319.376    1491.2651   -24810.641   -1007.1963    9149.7319     79.06749    15.741477    29.901073 
 5180600    228.15576   -331.48605    229018.04   -23344.864    1511.1577   -24856.021   -853.05903    9151.2174    79.065627    15.740589    29.904172 
 5180800    225.97201   -235.91562    229018.04   -23370.852    1496.6939   -24867.546   -461.51263    9147.6778    79.065714    15.742909    29.911523 
 5181000    227.87876   -387.15387    229018.04   -23310.837    1509.3231    -24820.16   -1021.5103    9152.4795    79.065093     15.74498    29.905707 
 5181200    231.41149   -310.82315    229018.04   -23281.762    1532.7216   -24814.483   -760.72549    9148.8862    79.065012    15.745083    29.907263 
 5181400    225.86787   -242.63543    229018.04   -23280.759    1496.0042   -24776.763   -497.40218    9148.4638    79.065861    15.747971    29.903252 
 5181600    232.27037   -368.30684    229018.04   -23287.033    1538.4103   -24825.443   -948.29979    9149.7513    79.067377    15.748752    29.900305 
 5181800    215.18926   -339.36486    229018.04   -23371.874    1425.2759    -24797.15   -850.95712     9150.216    79.067389      15.7507    29.886184 
 5182000    224.33573   -193.76901    229018.04   -23376.842    1485.8563   -24862.698   -276.58605    9147.4426    79.068882    15.751618    29.877101 
 5182200    227.70974   -415.55254    229018.04   -23300.058    1508.2036   -24808.262   -1144.7127    9149.9928    79.070627    15.753867    29.884714 
 5182400    230.81075   -241.39404    229018.04   -23307.854    1528.7427   -24836.597   -454.93918    9148.9432    79.071469    15.753641    29.888699 
 5182600    226.21091   -294.35428    229018.04   -23264.845    1498.2763   -24763.122   -660.45271    9148.9363    79.071381    15.755239    29.889867 
 5182800     227.3591   -486.01532    229018.04   -23271.705    1505.8811   -24777.586   -1433.1248    9151.8333    79.072803     15.75641    29.895074 
 5183000    225.54518   -290.23086    229018.04   -23274.959    1493.8669   -24768.826   -693.88035    9147.1982    79.072392    15.757502    29.881653 
 5183200    226.78837   -357.44622    229018.04   -23285.358     1502.101   -24787.459   -918.00278     9149.812    79.072554    15.759739    29.893235 
 5183400    223.47696   -395.44013    229018.04   -23313.668    1480.1683   -24793.836   -1076.4352    9149.0778    79.072214    15.761907    29.892438 
 5183600    227.72592   -258.27875    229018.04   -23300.066    1508.3107   -24808.376   -553.39369    9147.3111    79.071593    15.760996    29.894557 
 5183800    219.30886   -279.10613    229018.04   -23353.022    1452.5615   -24805.584   -588.60391    9147.8804    79.071461    15.762543    29.884487 
 5184000    225.48434   -425.67405    229018.04    -23310.09     1493.464   -24803.554   -1187.0066    9150.5808    79.073125     15.76381    29.887906 
 5184200    228.09618   -326.19958    229018.04   -23322.075    1510.7631   -24832.838   -862.86469    9146.8656    79.071896    15.763812     29.89771 
 5184400    226.43996   -319.58468    229018.04   -23297.362    1499.7933   -24797.155   -768.13548    9150.2805    79.073049    15.764566    29.895103 
 5184600    226.32499   -380.76699    229018.04   -23301.802    1499.0319   -24800.833   -1017.9073    9152.4896    79.073059    15.766448    29.889746 
 5184800    227.38122   -292.73775    229018.04   -23287.595    1506.0277   -24793.623   -659.23946    9150.7915    79.072007    15.764773    29.885368 
 5185000    231.89578   -322.14345    229018.04   -23283.707    1535.9292   -24819.636   -828.25506    9149.3261    79.072781    15.764836    29.894775 
 5185200    228.32932   -311.40986    229018.04   -23297.833    1512.3073    -24810.14    -755.5912    9150.1109    79.073358     15.76667    29.894552 
 5185400    226.78114   -301.93492    229018.04   -23332.662    1502.0531   -24834.715   -684.47222    9149.1344    79.072442    15.766311    29.912408 
 5185600    228.92414   -341.46748    229018.04   -23302.272     1516.247   -24818.519   -887.83923    9148.4635     79.07161    15.765868    29.910031 
 5185800    232.42139    -306.6618    229018.04   -23213.447    1539.4105   -24752.858   -726.76728    9149.9522    79.073449    15.766967    29.905851 
 5186000    229.08981   -400.06385    229018.04   -23253.136    1517.3443   -24770.481    -1088.601    9150.2941    79.071769    15.767791    29.911612 
 5186200    230.21349   -292.03251    229018.04   -23321.502    1524.7868   -24846.289   -678.04049    9149.2814    79.072059    15.768218     29.90187 
 5186400    226.43936   -319.14031    229018.04   -23345.331    1499.7894    -24845.12    -780.3893    9153.3266    79.071271    15.769857     29.91737 
 5186600    227.04202   -358.46518    229018.04    -23272.55     1503.781   -24776.331   -953.58669     9149.077    79.070288    15.770772    29.917516 
 5186800     232.8738   -242.57814    229018.04   -23281.376     1542.407   -24823.783   -465.78235    9149.1547    79.069839     15.77171    29.917936 
 5187000      226.128   -361.18567    229018.04   -23281.623    1497.7271    -24779.35   -908.99568    9151.8548    79.069542    15.773643    29.920931 
 5187200    227.39299   -310.59949    229018.04   -23303.745    1506.1056    -24809.85   -739.87828    9147.4281    79.069906    15.776021    29.912915 
 5187400    229.47637   -398.69015    229018.04   -23273.242    1519.9046   -24793.147   -1100.3792    9151.5498    79.070377     15.77619    29.917073 
 5187600    227.58814   -375.72588    229018.04   -23287.451    1507.3982   -24794.849   -984.69993    9150.8073    79.071765    15.778971    29.910135 
 5187800    229.33728   -371.48121    229018.04   -23280.485    1518.9834   -24799.468   -986.85423    9151.2072    79.073143    15.779223    29.910471 
 5188000    226.97558   -315.38127    229018.04   -23286.473     1503.341   -24789.814   -756.51272    9147.9177    79.073474    15.779602    29.904995 
 5188200    228.86615   -404.05657    229018.04    -23266.84    1515.8629   -24782.703   -1087.9684    9150.5237    79.074684    15.779965    29.912208 
 5188400    227.92511   -374.10771    229018.04   -23309.364    1509.6301   -24818.994   -986.90689    9151.4951    79.075593    15.782104    29.915162 
 5188600    230.39351   -372.09819    229018.04   -23243.137    1525.9791   -24769.117   -1007.4381    9150.4897    79.074733    15.780954    29.913239 
 5188800    230.01822   -420.53339    229018.04   -23289.408    1523.4935   -24812.901   -1175.4912    9153.2661    79.076839    15.780974    29.926343 
 5189000    226.47511   -320.37721    229018.04   -23291.177    1500.0262   -24791.204   -801.32321    9151.3471    79.077581    15.781032    29.923132 
 5189200     226.7285   -344.98113    229018.04   -23304.365    1501.7044    -24806.07   -864.14503    9150.3839    79.078847    15.780121    29.916811 
 5189400    228.12912   -429.16507    229018.04   -23290.632    1510.9813   -24801.613   -1199.2677    9152.6405    79.079909    15.780152     29.90844 
 5189600    230.82647   -306.48687    229018.04   -23276.668    1528.8468   -24805.515   -706.38699    9150.1778    79.081036    15.780787    29.918813 
 5189800    228.29284   -364.83402    229018.04   -23322.075    1512.0656   -24834.141   -962.77991    9152.1345    79.083014    15.782138     29.91699 
 5190000    229.92501   -435.78745    229018.04   -23294.438    1522.8761   -24817.314   -1222.3862    9152.5395    79.082801    15.781686    29.918185 
 5190200    224.57183   -306.83451    229018.04   -23276.006    1487.4201   -24763.426   -758.37098    9151.1474    79.082928    15.784001    29.922201 
 5190400     225.4508   -254.49182    229018.04   -23299.786    1493.2418   -24793.028   -538.52678    9151.2391    79.082435    15.784584    29.916629 
 5190600    226.61149   -440.34956    229018.04   -23286.601    1500.9295   -24787.531   -1226.6007    9153.7396    79.083205    15.783025    29.929896 
 5190800    232.48661   -192.20381    229018.04   -23297.944    1539.8425   -24837.787   -312.00875    9150.0675    79.083301    15.783451    29.920178 
 5191000    220.12561   -238.40323    229018.04   -23401.167    1457.9711   -24859.138   -454.65542    9151.5562    79.083026    15.783934    29.920891 
 5191200    226.27367   -410.49124    229018.04   -23327.176    1498.6919   -24825.868   -1114.8155    9155.0263     79.08255    15.783406    29.921534 
 5191400    223.61601   -187.86569    229018.04   -23302.805    1481.0894   -24783.894   -299.79257    9152.6403    79.083846    15.785115      29.9239 
 5191600    224.77412   -291.76273    229018.04   -23314.283    1488.7599   -24803.043   -704.22921    9153.6246    79.084328    15.787138    29.925226 
 5191800    224.73806   -432.93543    229018.04   -23264.089     1488.521    -24752.61   -1213.5182    9155.3044     79.08451    15.786069    29.922993 
 5192000      234.374   -198.99894    229018.04   -23269.044    1552.3434   -24821.387   -326.66722    9149.6097    79.085329    15.786141    29.925894 
 5192200    228.14448   -324.89784    229018.04    -23291.08     1511.083   -24802.163   -797.57896    9153.2707    79.083582    15.785361    29.922969 
 5192400     223.1326   -503.08289    229018.04   -23343.331    1477.8875   -24821.218   -1495.7256    9153.0495    79.084777    15.784224    29.921952 
 5192600    224.11105   -276.00239    229018.04   -23346.214    1484.3682   -24830.582    -647.2636    9150.4821    79.084606    15.784864    29.921766 
 5192800    228.04123   -332.96018    229018.04   -23262.069    1510.3992   -24772.468   -829.68562    9152.6716    79.083368    15.786384    29.912657 
 5193000    221.72176    -341.9939    229018.04   -23307.201     1468.543   -24775.744   -873.67735    9151.4552    79.082864    15.788025    29.922481 
 5193200    227.84624   -119.09251    229018.04   -23314.337    1509.1076   -24823.444    24.219553    9149.1979    79.082297    15.789327    29.911868 
 5193400     227.4616    -406.8243    229018.04   -23264.046      1506.56   -24770.606   -1125.2444    9154.0759    79.082981     15.79275    29.918031 
 5193600    226.53546   -344.44111    229018.04   -23318.077    1500.4259   -24818.503   -894.88372    9151.8486    79.083081    15.793432    29.917467 
 5193800    227.17914   -225.39398    229018.04   -23332.503    1504.6892   -24837.192   -414.62884    9149.6741    79.083766    15.793711    29.921693 
 5194000    224.67853   -349.13822    229018.04   -23323.767    1488.1268   -24811.894   -897.47043     9150.946    79.083941    15.797337    29.927079 
 5194200    227.52352   -345.66904    229018.04    -23302.33    1506.9702     -24809.3   -875.08548    9153.8964    79.084122    15.796904    29.930807 
 5194400     227.3962   -269.57573    229018.04    -23298.95    1506.1269   -24805.077   -592.90986    9149.8941     79.08411    15.797651    29.923414 
 5194600    224.26725   -314.49009    229018.04   -23335.278    1485.4027   -24820.681   -770.52215    9151.9373    79.084362    15.798431    29.921842 
 5194800    225.13336   -433.59222    229018.04    -23356.29    1491.1393    -24847.43   -1216.2727    9153.5038    79.083637    15.799622    29.916088 
 5195000    224.72267   -304.08296    229018.04   -23265.376    1488.4191   -24753.795   -715.04941    9151.7663    79.083369    15.801144    29.913112 
 5195200    225.60941   -361.25567    229018.04   -23316.656    1494.2924   -24810.948   -964.46276    9153.5737    79.083336    15.802874    29.912191 
 5195400    227.42519   -313.39812    229018.04    -23239.94    1506.3189   -24746.259   -735.61893    9153.0824    79.084066    15.804307    29.909953 
 5195600    220.78377   -270.83204    229018.04   -23300.597    1462.3304   -24762.927    -639.4082    9150.4328    79.083061    15.805771    29.897431 
 5195800    233.30486   -252.00263    229018.04   -23245.622     1545.262   -24790.884   -514.79617    9153.6525    79.084517    15.807971    29.907931 
 5196000    230.02118   -336.32797    229018.04   -23264.515    1523.5131   -24788.028   -850.16133    9152.1283    79.085154    15.810653    29.899086 
 5196200    232.85553   -194.30997    229018.04   -23217.075     1542.286   -24759.361   -300.60199    9151.2325    79.083882    15.809968    29.904637 
 5196400    228.52793    -341.3378    229018.04   -23272.631    1513.6227   -24786.254   -878.38388    9151.7343    79.082843    15.811206    29.892785 
 5196600    218.87986   -351.83411    229018.04   -23389.305    1449.7201   -24839.025   -930.19569    9151.2856    79.083786    15.811791    29.898631 
 5196800    229.25672   -269.54506    229018.04   -23282.555    1518.4498   -24801.005   -593.13236    9152.0282    79.085572    15.814254    29.903471 
 5197000    230.97807   -310.10886    229018.04   -23333.149    1529.8509       -24863   -747.29106    9151.7983    79.086765    15.813208    29.905886 
 5197200    230.65862   -307.13834    229018.04   -23231.491    1527.7351   -24759.226    -726.7803    9150.6627    79.086801    15.814505    29.916498 
 5197400    221.31674   -332.88885    229018.04   -23315.887    1465.8604   -24781.747   -809.77365    9152.3612    79.087697    15.815403    29.912062 
 5197600    223.06513   -252.71411    229018.04   -23300.186    1477.4407   -24777.627   -556.46511    9151.7734    79.088149    15.816303    29.906313 
 5197800    233.37246   -256.86458    229018.04   -23197.858    1545.7098   -24743.567   -518.45856    9152.3391    79.087522    15.816376    29.920126 
 5198000    234.23468   -322.48581    229018.04   -23207.247    1551.4206   -24758.668   -794.79022     9152.533    79.087451    15.815531    29.909303 
 5198200    227.89962   -341.71754    229018.04    -23260.52    1509.4612   -24769.981   -854.17169    9153.3498     79.08646    15.814186    29.923264 
 5198400    227.91661   -356.80066    229018.04   -23280.257    1509.5737   -24789.831   -941.98132    9151.1794    79.086489     15.81383    29.904145 
 5198600    228.09819   -284.33892    229018.04   -23338.238    1510.7764   -24849.015   -659.07963    9152.0929    79.088934    15.814681    29.907392 
 5198800    225.33514    -342.8724    229018.04   -23334.763    1492.4757   -24827.239   -888.11389    9152.7365    79.089015    15.815364    29.906833 
 5199000    227.79314    -329.7704    229018.04   -23251.576    1508.7559   -24760.332   -821.06956      9152.12    79.090014    15.815591    29.932397 
 5199200    230.22737   -346.76717    229018.04   -23287.649    1524.8787   -24812.527   -907.82745    9152.4112    79.089012    15.816709    29.926085 
 5199400    223.00472   -231.46235    229018.04   -23316.053    1477.0405   -24793.094   -452.95399    9151.6949     79.08932    15.816529    29.921236 
 5199600    227.38737   -265.12461    229018.04   -23283.793    1506.0684   -24789.861   -586.04856    9150.1742    79.090715    15.816545    29.912194 
 5199800    222.66803   -336.18435    229018.04   -23326.545    1474.8105   -24801.356   -813.46187    9154.8864    79.090935     15.81634    29.916386 
 5200000      232.742   -307.32455    229018.04   -23251.968    1541.5341   -24793.502   -747.73769    9152.3087    79.090397    15.816636     29.92351 
Loop time of 7199.91 on 160 procs for 5200000 steps with 8943 atoms

Performance: 624.008 ns/day, 0.038 hours/ns, 722.231 timesteps/s
97.8% CPU use with 160 MPI tasks x no OpenMP threads

MPI task timing breakdown:
Section |  min time  |  avg time  |  max time  |%varavg| %total
---------------------------------------------------------------
Pair    | 0.2413     | 1485.5     | 5716       |5171.2 | 20.63
Neigh   | 0.3643     | 97.235     | 373.09     |1225.3 |  1.35
Comm    | 11.531     | 1982.2     | 5806       |4608.9 | 27.53
Output  | 89.54      | 89.614     | 91.495     |   1.6 |  1.24
Modify  | 225.36     | 3446.1     | 7006.6     |4930.1 | 47.86
Other   |            | 99.21      |            |       |  1.38

Nlocal:    55.8937 ave 177 max 0 min
Histogram: 72 0 48 0 0 0 0 0 4 36
Nghost:    539.619 ave 937 max 0 min
Histogram: 16 8 0 8 8 39 30 14 21 16
Neighs:    0 ave 0 max 0 min
Histogram: 160 0 0 0 0 0 0 0 0 0
FullNghs:  5604.71 ave 22174 max 0 min
Histogram: 92 28 0 0 0 0 0 2 19 19

Total # of neighbors = 896754
Ave neighs/atom = 100.274
Neighbor list builds = 554726
Dangerous builds = 0
write_data 		${DIR}/data.${NAME}_run
write_data 		run_24/data.${NAME}_run
write_data 		run_24/data.ibeam_cooling_24_run
Total wall time: 2:00:14
