
### Dimensions ###


### IMPORT ATOMS ###
read_data ../Box_Setup/data.Ibeam_240K
  orthogonal box = (0 0 0) to (157.504 36.4877 39.8503)
  10 by 4 by 4 MPI processor grid
  reading atoms ...
  8943 atoms
  reading velocities ...
  8943 velocities
group water type 2
2223 atoms in group water
group graphite type 1
6720 atoms in group graphite


# Define potential
#
pair_style          sw
pair_coeff * * MLC_e.sw C mW

# Add velocity/set timestep
#

fix		1 graphite setforce 0.0 0.0 0.0
velocity 	graphite set 0.0 0.0 0.0
velocity            water create ${START_TEMP} ${SEED} rot yes dist gaussian
velocity            water create 240 ${SEED} rot yes dist gaussian
velocity            water create 240 18379 rot yes dist gaussian
timestep            5.0

# Define output
#
compute 1 water msd
compute 2 water temp


thermo	            100
thermo_style custom step c_2 press vol etotal ke pe c_1[4] density

# Neighbor lists
#
neigh_modify        delay 0 every 1 check yes


# Set fixes
#
fix                 2 water momentum 10 linear 1 1 1 rescale
fix                 3 all nve
fix                 4 water temp/csvr ${START_TEMP} ${START_TEMP} 500.0 928347
fix                 4 water temp/csvr 240 ${START_TEMP} 500.0 928347
fix                 4 water temp/csvr 240 240 500.0 928347

# Run 0.05 ns equilibration
#
dump                1 all custom 100 ${DIR}/eq.${NAME}.dump id type x y z vx vy vz
dump                1 all custom 100 run_24/eq.${NAME}.dump id type x y z vx vy vz
dump                1 all custom 100 run_24/eq.ibeam_cooling_24.dump id type x y z vx vy vz
run                 10000
Neighbor list info ...
  update every 1 steps, delay 0 steps, check yes
  max neighbors/atom: 2000, page size: 100000
  master list distance cutoff = 6.67472
  ghost atom cutoff = 6.67472
  binsize = 3.33736, bins = 48 11 12
  1 neighbor lists, perpetual/occasional/extra = 1 0 0
  (1) pair sw, perpetual
      attributes: full, newton on
      pair build: full/bin/atomonly
      stencil: full/bin/3d
      bin: standard
Per MPI rank memory allocation (min/avg/max) = 0.463 | 3.758 | 4.742 Mbytes
Step c_2 Press Volume TotEng KinEng PotEng c_1[4] Density 
       0          240   -163.35224    229018.04   -21211.582    1589.6064   -22801.188            0   0.87555383 
     100    241.97738   -307.67931    229018.04   -21175.059    1602.7033   -22777.763   0.83373051   0.87555383 
     200    237.17857    -521.8903    229018.04   -21212.427     1570.919   -22783.346    1.2423076   0.87555383 
     300    240.85751   -291.56076    229018.04   -21210.787     1595.286   -22806.073    1.6089479   0.87555383 
     400    235.77237   -282.32347    229018.04   -21227.614    1561.6053   -22789.219    1.9105688   0.87555383 
     500    239.44041   -100.63575    229018.04   -21233.379       1585.9   -22819.279    2.2946768   0.87555383 
     600    232.92124   -307.66209    229018.04   -21337.625    1542.7212   -22880.346    2.6569821   0.87555383 
     700    236.31992   -247.66583    229018.04    -21299.68    1565.2319   -22864.912    3.0099807   0.87555383 
     800    224.44191   -364.39349    229018.04   -21332.625    1486.5595   -22819.185    3.4241859   0.87555383 
     900    234.16308   -389.94745    229018.04   -21278.167    1550.9464   -22829.113    3.6707368   0.87555383 
    1000    245.58512   -337.19693    229018.04   -21220.922    1626.5987   -22847.521    4.0702554   0.87555383 
    1100    235.94089   -247.63857    229018.04   -21230.552    1562.7214   -22793.274    4.5641873   0.87555383 
    1200    241.91849   -175.36165    229018.04    -21277.91    1602.3132   -22880.223    5.0313273   0.87555383 
    1300    237.16899   -243.76882    229018.04   -21235.686    1570.8556   -22806.542    5.5580292   0.87555383 
    1400    239.97582   -313.86107    229018.04   -21177.398    1589.4462   -22766.844    5.7508265   0.87555383 
    1500    242.24781    -363.5524    229018.04   -21182.656    1604.4944    -22787.15    5.9973748   0.87555383 
    1600    244.92095    -199.8386    229018.04   -21172.186    1622.1996   -22794.385    6.2896832   0.87555383 
    1700    237.58384   -310.15384    229018.04   -21181.823    1573.6033   -22755.427    6.7920166   0.87555383 
    1800    243.71623    -320.2609    229018.04   -21184.338    1614.2203   -22798.558    7.2494521   0.87555383 
    1900    249.38151   -384.29504    229018.04   -21101.763    1651.7435   -22753.507    7.6982339   0.87555383 
    2000    247.24012   -377.97942    229018.04   -21075.192    1637.5603   -22712.752    8.3465614   0.87555383 
    2100    244.41481   -312.75896    229018.04   -21099.519    1618.8472   -22718.367    8.8013596   0.87555383 
    2200    243.29177   -299.64532    229018.04   -21093.182    1611.4089   -22704.591    9.0802096   0.87555383 
    2300    244.02257   -405.64665    229018.04   -21142.775    1616.2493   -22759.024    9.4636571   0.87555383 
    2400    244.75432   -416.99869    229018.04   -21137.773    1621.0959   -22758.869    9.9303917   0.87555383 
    2500    245.42682   -193.01635    229018.04   -21123.142    1625.5502   -22748.692     10.14653   0.87555383 
    2600    242.45143   -210.17297    229018.04   -21177.256    1605.8431   -22783.099    10.447472   0.87555383 
    2700    247.35929   -200.19108    229018.04   -21158.314    1638.3496   -22796.664    10.736258   0.87555383 
    2800    240.45116   -296.08793    229018.04   -21173.487    1592.5946   -22766.081    11.166028   0.87555383 
    2900    237.05946   -283.13754    229018.04   -21233.299    1570.1302   -22803.429    11.708481   0.87555383 
    3000    239.45808   -383.41287    229018.04    -21262.65     1586.017   -22848.667    12.053369   0.87555383 
    3100    238.61129   -209.77613    229018.04   -21260.348    1580.4084   -22840.756    12.373544   0.87555383 
    3200    234.07086   -251.88146    229018.04   -21267.674    1550.3355   -22818.009    12.804336   0.87555383 
    3300    236.97913   -120.85927    229018.04   -21228.589    1569.5981   -22798.187    12.927685   0.87555383 
    3400    242.91529   -269.80965    229018.04   -21235.112    1608.9154   -22844.027    13.183784   0.87555383 
    3500    233.83719   -215.90755    229018.04   -21242.343    1548.7879   -22791.131    13.308023   0.87555383 
    3600     236.1969   -271.76264    229018.04   -21230.709    1564.4171   -22795.126     13.38242   0.87555383 
    3700    239.30591   -345.15776    229018.04   -21264.873    1585.0091   -22849.882    13.738928   0.87555383 
    3800    239.94854   -408.50872    229018.04   -21259.499    1589.2655   -22848.764    13.925452   0.87555383 
    3900    243.72966   -337.92226    229018.04   -21244.169    1614.3093   -22858.479    14.214208   0.87555383 
    4000    232.79721    -207.2403    229018.04   -21264.572    1541.8997   -22806.471    14.418773   0.87555383 
    4100    239.58429   -218.96655    229018.04   -21204.106     1586.853   -22790.959    14.974238   0.87555383 
    4200    243.88744   -292.54941    229018.04   -21169.394    1615.3543   -22784.749    15.379044   0.87555383 
    4300    245.75775   -327.28355    229018.04   -21087.128    1627.7421    -22714.87    15.661636   0.87555383 
    4400     244.5349   -360.24536    229018.04   -21103.509    1619.6426   -22723.152    15.954987   0.87555383 
    4500    242.58139   -347.77354    229018.04   -21142.335    1606.7038   -22749.038      16.4955   0.87555383 
    4600    240.20453    -166.0169    229018.04   -21187.744    1590.9611   -22778.705     16.89166   0.87555383 
    4700    236.15724   -192.37351    229018.04   -21223.379    1564.1544   -22787.534    17.263127   0.87555383 
    4800    234.25616   -351.72921    229018.04   -21172.412    1551.5629   -22723.975    17.448386   0.87555383 
    4900    235.54333   -367.01131    229018.04   -21175.525    1560.0883   -22735.613    17.631397   0.87555383 
    5000    231.04007   -561.42709    229018.04   -21176.545    1530.2615   -22706.806    18.011607   0.87555383 
    5100    236.14402   -298.04472    229018.04   -21168.619    1564.0668   -22732.685    18.398526   0.87555383 
    5200     241.4963   -345.08252    229018.04   -21142.364    1599.5169   -22741.881     18.79842   0.87555383 
    5300    232.84599   -231.45789    229018.04   -21197.796    1542.2228   -22740.019    19.346107   0.87555383 
    5400    235.27716   -208.20303    229018.04   -21163.956    1558.3253   -22722.281    19.773676   0.87555383 
    5500    230.50592   -365.87648    229018.04   -21192.032    1526.7237   -22718.756    20.026961   0.87555383 
    5600    227.59469   -414.06307    229018.04   -21211.785    1507.4416   -22719.226    20.428189   0.87555383 
    5700     235.7092   -291.27011    229018.04   -21172.238    1561.1869   -22733.425     20.58507   0.87555383 
    5800    248.55569   -268.74269    229018.04   -21080.393    1646.2738   -22726.666    20.945856   0.87555383 
    5900    239.82212   -264.81558    229018.04   -21122.247    1588.4282   -22710.675    21.273658   0.87555383 
    6000    229.15883   -260.35379    229018.04   -21223.767    1517.8014   -22741.568    21.741623   0.87555383 
    6100    241.50458    -164.8199    229018.04   -21202.219    1599.5717   -22801.791    21.789112   0.87555383 
    6200    237.00147   -319.86007    229018.04   -21185.329     1569.746   -22755.075    22.049079   0.87555383 
    6300    238.71464   -309.58112    229018.04   -21147.304     1581.093   -22728.396    22.431071   0.87555383 
    6400    240.47868   -500.95033    229018.04    -21138.63    1592.7769   -22731.407    22.822972   0.87555383 
    6500    245.61722   -400.06227    229018.04   -21164.664    1626.8112   -22791.475    23.163975   0.87555383 
    6600    239.07615   -309.31195    229018.04   -21213.306    1583.4874   -22796.793    23.240174   0.87555383 
    6700    234.35392   -284.73665    229018.04   -21268.512    1552.2104   -22820.723    23.497688   0.87555383 
    6800    241.10947   -313.30212    229018.04   -21227.692    1596.9548   -22824.647    24.006868   0.87555383 
    6900    233.19315   -293.05796    229018.04   -21249.975    1544.5222   -22794.497    24.181815   0.87555383 
    7000    230.68111   -242.79477    229018.04   -21271.302     1527.884   -22799.186    23.867444   0.87555383 
    7100    247.50155   -286.96096    229018.04   -21192.887    1639.2918   -22832.179    24.296811   0.87555383 
    7200    240.66448   -252.40852    229018.04    -21202.56    1594.0075   -22796.567    24.526354   0.87555383 
    7300      237.016   -293.14662    229018.04   -21259.967    1569.8423   -22829.809    24.680972   0.87555383 
    7400    232.48803   -300.13706    229018.04   -21259.273    1539.8519   -22799.125    24.803927   0.87555383 
    7500     232.6075   -332.87747    229018.04   -21268.696    1540.6432   -22809.339    25.077299   0.87555383 
    7600    236.23724   -306.67271    229018.04   -21285.362    1564.6843   -22850.046    25.146574   0.87555383 
    7700    231.83495   -121.04993    229018.04   -21249.677    1535.5263   -22785.203    25.299235   0.87555383 
    7800    243.05927   -99.301674    229018.04   -21203.884     1609.869   -22813.753    25.602262   0.87555383 
    7900    234.96586   -446.61116    229018.04   -21181.196    1556.2635    -22737.46    26.049706   0.87555383 
    8000    242.51479   -367.88513    229018.04    -21171.37    1606.2628   -22777.633    26.469527   0.87555383 
    8100    238.82202   -242.66038    229018.04   -21190.556    1581.8042    -22772.36    26.992038   0.87555383 
    8200    236.13154   -389.14669    229018.04   -21217.259    1563.9841   -22781.243    27.361178   0.87555383 
    8300    241.63323    -197.9558    229018.04    -21234.48    1600.4239   -22834.904     27.54587   0.87555383 
    8400    237.51415   -421.11614    229018.04     -21233.2    1573.1417   -22806.341    28.046407   0.87555383 
    8500    239.80206   -261.01924    229018.04   -21244.859    1588.2954   -22833.154    28.374241   0.87555383 
    8600    238.66769   -269.75834    229018.04   -21194.519     1580.782   -22775.301    28.563871   0.87555383 
    8700    224.61935   -340.25608    229018.04   -21242.464    1487.7348   -22730.199    28.974594   0.87555383 
    8800    239.95261   -416.21233    229018.04   -21172.669    1589.2925   -22761.962    28.940653   0.87555383 
    8900    240.22787   -379.39103    229018.04   -21206.449    1591.1156   -22797.565    29.325487   0.87555383 
    9000    240.81485    -245.4684    229018.04   -21168.726    1595.0035   -22763.729    29.626446   0.87555383 
    9100    245.10825   -284.41384    229018.04    -21161.64    1623.4402    -22785.08    29.864293   0.87555383 
    9200    237.60724   -275.42346    229018.04    -21200.48    1573.7583   -22774.238    30.132834   0.87555383 
    9300    238.77968    -229.6713    229018.04    -21238.65    1581.5237   -22820.173     30.26451   0.87555383 
    9400    240.46552   -290.90221    229018.04   -21279.092    1592.6897   -22871.781    30.391878   0.87555383 
    9500    239.70758   -178.68397    229018.04   -21233.175    1587.6696   -22820.845    30.616564   0.87555383 
    9600    229.64858   -173.88627    229018.04   -21288.116    1521.0452   -22809.161     30.97024   0.87555383 
    9700    241.61039   -312.26433    229018.04    -21231.14    1600.2726   -22831.413    31.212164   0.87555383 
    9800    232.20665   -325.42187    229018.04   -21241.084    1537.9882   -22779.072    31.580825   0.87555383 
    9900    239.86625   -392.65957    229018.04     -21186.5    1588.7205    -22775.22    32.119816   0.87555383 
   10000    237.32301   -240.84037    229018.04   -21093.548    1571.8757   -22665.424    32.349844   0.87555383 
Loop time of 14.502 on 160 procs for 10000 steps with 8943 atoms

Performance: 297.889 ns/day, 0.081 hours/ns, 689.558 timesteps/s
97.8% CPU use with 160 MPI tasks x no OpenMP threads

MPI task timing breakdown:
Section |  min time  |  avg time  |  max time  |%varavg| %total
---------------------------------------------------------------
Pair    | 0.00044274 | 3.0497     | 12.21      | 234.7 | 21.03
Neigh   | 0.00037479 | 0.10134    | 0.3844     |  39.1 |  0.70
Comm    | 0.014395   | 3.9965     | 11.505     | 218.4 | 27.56
Output  | 0.174      | 0.17419    | 0.18101    |   0.1 |  1.20
Modify  | 0.39953    | 7.027      | 14.161     | 229.1 | 48.46
Other   |            | 0.1533     |            |       |  1.06

Nlocal:    55.8937 ave 177 max 0 min
Histogram: 72 3 45 0 0 0 0 0 4 36
Nghost:    541.106 ave 961 max 0 min
Histogram: 24 0 0 8 7 49 22 17 21 12
Neighs:    0 ave 0 max 0 min
Histogram: 160 0 0 0 0 0 0 0 0 0
FullNghs:  5622.35 ave 22275 max 0 min
Histogram: 90 30 0 0 0 0 0 2 19 19

Total # of neighbors = 899576
Ave neighs/atom = 100.59
Neighbor list builds = 575
Dangerous builds = 0
write_data 	    ${DIR}/data.${NAME}_eq
write_data 	    run_24/data.${NAME}_eq
write_data 	    run_24/data.ibeam_cooling_24_eq

undump              1
unfix               4



################################################
#######         Run Simulation         #########
################################################

reset_timestep      0
timestep	    10.0
log                 ${DIR}/log.run_${NAME}
log                 run_24/log.run_${NAME}
log                 run_24/log.run_ibeam_cooling_24
