
# Set production fixes - Nose/Hoover
#
fix                 4 water temp/csvr ${START_TEMP} ${END_TEMP} 500.0 928347
fix                 4 water temp/csvr 240 ${END_TEMP} 500.0 928347
fix                 4 water temp/csvr 240 227 500.0 928347


## divide "droplet" into core and surface
#region		core_reg cylinder z 135 135 44.6 20 INF units box
#region		surface_reg cylinder z 135 135 44.6 20 INF units box side out
#group		core dynamic all region core_reg
#group		surface dynamic all region surface_reg

## compute pressure core
#compute        peratom_core core stress/atom NULL
#compute        p_core core reduce sum c_peratom_core[1] c_peratom_core[2] c_peratom_core[3]
#variable       press_core equal -(c_p_core[1]+c_p_core[2]+c_p_core[3])/(3*1249982.5)


## compute pressure surface
#compute        peratom_surf surface stress/atom NULL
#compute        p_surf surface reduce sum c_peratom_surf[1] c_peratom_surf[2] #c_peratom_surf[3]
#variable       press_surf equal -(c_p_surf[1]+c_p_surf[2]+c_p_surf[3])/(3*33365)

## compute total pressure of drop
compute        peratom water stress/atom NULL
compute        p water reduce sum c_peratom[1] c_peratom[2] c_peratom[3]
variable       press equal -(c_p[1]+c_p[2]+c_p[3])/(3*50320)


# compute order parameter
compute        3 all orientorder/atom nnn NULL cutoff 3.5

# compute center of mass of bridge
compute 	4 water com

# Run simulation
thermo_style        custom step c_2 press vol etotal ke pe v_press c_1[4] c_4[*]
thermo              200
dump		     1 water custom 400 ${DIR}/prod.${NAME}.dump id type x y z vx vy vz c_3[*] c_peratom[*]
dump		     1 water custom 400 run_29/prod.${NAME}.dump id type x y z vx vy vz c_3[*] c_peratom[*]
dump		     1 water custom 400 run_29/prod.ibeam_cooling_29.dump id type x y z vx vy vz c_3[*] c_peratom[*]
run                 ${STEPS}
run                 5200000
Neighbor list info ...
  update every 1 steps, delay 0 steps, check yes
  max neighbors/atom: 2000, page size: 100000
  master list distance cutoff = 6.67472
  ghost atom cutoff = 6.67472
  binsize = 3.33736, bins = 48 13 9
  2 neighbor lists, perpetual/occasional/extra = 1 1 0
  (1) pair sw, perpetual
      attributes: full, newton on
      pair build: full/bin/atomonly
      stencil: full/bin/3d
      bin: standard
  (2) compute orientorder/atom, occasional, copy from (1)
      attributes: full, newton on
      pair build: copy
      stencil: none
      bin: none
Per MPI rank memory allocation (min/avg/max) = 6.146 | 6.614 | 7.275 Mbytes
Step c_2 Press Volume TotEng KinEng PotEng v_press c_1[4] c_4[1] c_4[2] c_4[3] 
       0    240.53204   -300.31018    181563.75    -13293.13    989.43286   -14282.563   -481.07538    32.184195    78.706209    25.121128    16.342759 
     200    238.20668   -386.16501    181563.75   -13308.222    979.86745    -14288.09   -842.30387    33.242464    78.704614    25.114466    16.330331 
     400    245.41035   -425.56112    181563.75   -13300.742    1009.4998   -14310.242   -948.10445    34.311928    78.702446    25.110519    16.335242 
     600    231.73997   -336.60237    181563.75   -13368.339    953.26651   -14321.605   -638.34385    35.533625    78.703543    25.108888    16.310306 
     800    235.16598   -455.25588    181563.75   -13364.321    967.35947    -14331.68   -1081.5778    37.084524    78.702078    25.107839    16.310531 
    1000    246.88338   -545.71178    181563.75   -13274.956    1015.5592   -14290.515   -1368.6874    38.283273    78.699104    25.110766     16.33392 
    1200    234.47018    -438.9711    181563.75   -13347.751    964.49729   -14312.248   -1041.5999    38.836086    78.697797    25.108536    16.334343 
    1400    257.91143   -377.31889    181563.75   -13232.339    1060.9233   -14293.262   -758.50544    39.508927    78.697271    25.109302    16.323529 
    1600    248.25011   -323.02577    181563.75     -13212.1    1021.1813   -14233.281   -601.22644    41.186723     78.69912    25.110496    16.329969 
    1800     236.5671   -314.34529    181563.75   -13263.053    973.12298   -14236.176   -561.62439    42.960083    78.701917    25.107377    16.294346 
    2000    253.67685   -383.61324    181563.75   -13167.563    1043.5043   -14211.068   -810.05374    43.875988    78.702035    25.109998    16.330144 
    2200    240.86076   -288.97032    181563.75   -13213.228    990.78503   -14204.013   -484.10288    45.945339     78.70139    25.112051    16.354688 
    2400    241.21215   -232.88096    181563.75   -13265.089    992.23047    -14257.32   -281.61505    47.087835    78.703733     25.11186    16.347035 
    2600    244.50332   -340.95848    181563.75   -13305.751    1005.7688    -14311.52   -665.59136    48.863479    78.701474    25.109526    16.358647 
    2800    244.99104   -352.57435    181563.75    -13301.25     1007.775   -14309.025   -704.85989    51.117621    78.701415    25.107045    16.362687 
    3000    229.17662   -301.12638    181563.75   -13364.414    942.72213   -14307.136   -492.10482    51.851617     78.70168    25.103105     16.35215 
    3200    238.14229   -367.41685    181563.75   -13357.606    979.60257   -14337.209   -756.46094    52.117843    78.702381    25.108288    16.366343 
    3400    237.87594   -330.41012    181563.75   -13305.244    978.50691   -14283.751   -593.91822    53.333192    78.702745     25.11259    16.363342 
    3600    243.87729   -277.96967    181563.75   -13259.816    1003.1936    -14263.01   -443.20445    55.390311    78.699972    25.116053    16.358228 
    3800    237.26905   -514.86415    181563.75   -13285.285    976.01046   -14261.295   -1273.3445    57.388592    78.701026    25.122092    16.342049 
    4000    237.88439   -419.77667    181563.75   -13313.263    978.54168   -14291.805   -931.69441    60.349447    78.698677    25.125555    16.351577 
    4200    246.93578   -335.88509    181563.75   -13242.377    1015.7747   -14258.151   -590.70846    61.164003    78.697754     25.12594    16.338182 
    4400    251.53666    -423.3839    181563.75   -13231.504    1034.7006   -14266.204   -974.07439    62.199528    78.696657    25.122984    16.345122 
    4600     244.8949   -185.60466    181563.75   -13297.523    1007.3795   -14304.903   -99.426444    63.165176    78.698606    25.122487    16.330867 
    4800    240.97211   -390.03309    181563.75   -13280.171    991.24309   -14271.414   -828.70278    64.041274    78.696273     25.11952    16.340639 
    5000    238.15224   -422.54597    181563.75   -13341.411    979.64351   -14321.055   -942.39737    64.094152    78.697098    25.116617    16.336957 
    5200    243.48254   -316.49169    181563.75   -13321.746    1001.5698   -14323.316   -575.21807    64.777557    78.698389    25.116031     16.35163 
    5400     239.2331   -304.28111    181563.75   -13322.751    984.08962   -14306.841   -566.98458    65.972876    78.698345    25.117084    16.372535 
    5600    228.76243    -255.1729    181563.75   -13351.026    941.01836   -14292.044   -369.50832     66.78965    78.700168     25.11892    16.382747 
    5800    247.65293    -515.9617    181563.75   -13218.613    1018.7247   -14237.338   -1301.9881    66.969639    78.703805    25.120916    16.396342 
    6000    235.86374   -491.93015    181563.75   -13383.846    970.22971   -14354.075   -1187.4915     67.93689     78.70334     25.11838    16.395076 
    6200    240.19577   -243.55502    181563.75   -13313.821    988.04959    -14301.87    -337.8156    69.228805    78.703304    25.117355     16.38278 
    6400    244.78932   -488.99971    181563.75   -13293.384    1006.9453   -14300.329   -1148.9759    70.734106    78.703063    25.116482    16.372456 
    6600    230.03494   -299.97793    181563.75   -13368.098    946.25283   -14314.351   -515.72476    72.559573    78.704249    25.115527    16.384239 
    6800    235.68044   -310.63648    181563.75   -13354.306    969.47569   -14323.782    -495.3888    73.765606     78.70931    25.114461    16.379843 
    7000    235.67291   -187.82033    181563.75   -13385.011    969.44471   -14354.455   -114.34099    74.726018    78.710916    25.116015    16.372661 
    7200     240.9673   -321.48787    181563.75   -13299.932    991.22331   -14291.155   -586.79024    75.485875     78.71412    25.116347    16.383627 
    7400    234.15022   -482.09918    181563.75   -13359.438    963.18111   -14322.619   -1098.4629     76.67391    78.713712    25.116059    16.375248 
    7600    233.37075    -395.5559    181563.75   -13389.273    959.97475   -14349.248   -858.36823    77.773781    78.712548    25.121649     16.36699 
    7800    238.82778   -408.25434    181563.75    -13296.97    982.42235   -14279.392   -883.64241    78.352658    78.714498    25.119319    16.345186 
    8000    231.91409   -355.43127    181563.75    -13289.22    953.98277   -14243.203   -724.46661    79.283223    78.719956    25.121714    16.311325 
    8200     244.6207   -341.55904    181563.75   -13342.361    1006.2516   -14348.612    -622.7488    80.773652    78.716928    25.123275    16.335694 
    8400    235.07362   -383.82728    181563.75   -13365.884    966.97953   -14332.864   -813.60385    82.854651    78.714764    25.121834    16.314748 
    8600     233.3264   -340.01309    181563.75   -13279.629    959.79233   -14239.421   -624.34852    83.884144    78.713067    25.118291    16.340241 
    8800    240.29849   -410.40982    181563.75   -13307.644    988.47213   -14296.117     -878.375    84.345364    78.716839    25.115919    16.376685 
    9000    241.06624    -313.3366    181563.75   -13277.313     991.6303   -14268.943   -560.35728    85.646152    78.718679    25.117223    16.369467 
    9200    233.71184   -146.21776    181563.75   -13307.806    961.37782   -14269.184    18.665683    86.030085    78.721924    25.119203    16.381118 
    9400    236.24294   -232.16967    181563.75    -13322.15    971.78954    -14293.94   -251.18425    88.888936    78.722554    25.123913    16.410082 
    9600    225.78682   -434.89651    181563.75   -13381.583    928.77812   -14310.361   -991.35383    91.470348    78.724036    25.126091     16.40548 
    9800    237.30315   -432.74721    181563.75   -13342.132    976.15074   -14318.283   -970.72026    91.958714    78.726393    25.127282    16.403365 
   10000    246.62004   -256.71444    181563.75   -13236.148    1014.4759   -14250.624   -335.71935    93.100422    78.728674    25.124622    16.414663 
   10200     254.0053   -351.81318    181563.75   -13320.097    1044.8554   -14364.952   -715.08247    93.360239    78.727105    25.123002    16.398732 
   10400    231.69985   -409.10026    181563.75   -13319.796    953.10147   -14272.897    -968.5563    96.580441    78.727853    25.121304    16.412671 
   10600    238.92639   -370.17022    181563.75   -13290.426    982.82795   -14273.254   -814.36693    98.954236    78.728048    25.121675    16.395814 
   10800    241.92146    -272.2779    181563.75   -13313.022    995.14826    -14308.17   -395.33374    98.322754    78.729523    25.121437    16.393065 
   11000       233.06   -156.38599    181563.75   -13305.626    958.69648   -14264.322    29.426193    99.740715    78.728826    25.119644    16.380099 
   11200    242.54566   -375.50902    181563.75   -13297.723    997.71591   -14295.439   -781.15363    101.09253    78.731353    25.121365    16.396562 
   11400     240.7849   -335.36895    181563.75   -13278.335    990.47299   -14268.808   -603.29465    101.74202    78.734608    25.123077    16.387193 
   11600    236.00345   -429.98094    181563.75   -13255.815    970.80442   -14226.619   -972.29966    103.62097    78.734583    25.123382    16.413179 
   11800    254.56419   -414.20099    181563.75   -13235.751    1047.1543   -14282.906   -860.08263    104.83115    78.735336    25.124166    16.398443 
   12000    247.74828   -336.56574    181563.75   -13212.666     1019.117   -14231.783   -665.70832    106.05172    78.735951    25.122726    16.356936 
   12200    241.74542   -404.22895    181563.75   -13238.394    994.42412   -14232.818   -923.61311    106.22189    78.737119    25.119864    16.359758 
   12400    248.14445   -307.33107    181563.75   -13205.427    1020.7466   -14226.174    -546.7049    106.62872    78.739082     25.11942    16.349259 
   12600    245.39448    -277.9412    181563.75   -13198.603    1009.4346   -14208.037   -412.67898    106.92766    78.738118     25.12003    16.344904 
   12800    235.25108   -325.07868    181563.75   -13313.041     967.7095   -14280.751   -536.06666    108.18151    78.740315    25.116587    16.321475 
   13000    237.69951   -421.25755    181563.75   -13327.081     977.7812   -14304.862   -919.19414    108.67615    78.741838    25.114811    16.317135 
   13200    251.65508   -227.89693    181563.75   -13293.894    1035.1877   -14329.081   -240.76136     109.7563    78.740552    25.115892    16.328463 
   13400    248.74619   -204.99519    181563.75    -13264.03    1023.2219   -14287.251   -180.72409    109.72745      78.7413    25.114617    16.340066 
   13600    239.37364   -367.78123    181563.75   -13284.655    984.66773   -14269.323   -766.80577    110.43406    78.742639    25.110705    16.329567 
   13800    243.11762   -445.54555    181563.75   -13348.474    1000.0687   -14348.542   -1059.4412    111.92397    78.739628    25.108708    16.372958 
   14000    241.13093   -387.28937    181563.75   -13277.472    991.89641   -14269.368   -841.21262    114.27341    78.737566    25.107277    16.378244 
   14200    240.30309   -266.51285    181563.75   -13309.716    988.49104   -14298.207   -423.78101    114.92585     78.73817    25.105882    16.367318 
   14400    228.26889   -445.18879    181563.75   -13339.016    938.98816   -14278.004   -1059.9942    116.32136     78.73598    25.108301    16.357337 
   14600    236.27623   -397.16192    181563.75   -13295.909    971.92647   -14267.835   -827.05458    116.30757    78.732721    25.110989    16.350403 
   14800    242.39486    -347.7014    181563.75   -13278.653    997.09561   -14275.749   -674.81364    118.59136    78.731176     25.11188    16.360218 
   15000    237.90594   -391.31124    181563.75   -13304.188    978.63034   -14282.819   -859.78387    120.35944    78.729604    25.117242    16.384435 
   15200    235.12532   -360.86658    181563.75   -13371.577     967.1922    -14338.77   -708.85872    121.25804    78.729334     25.11658    16.387273 
   15400    241.77445   -414.41273    181563.75   -13301.769    994.54354   -14296.313   -939.79285    122.15661    78.730115    25.113655     16.41446 
   15600    233.52941   -365.57549    181563.75   -13347.098    960.62742   -14307.725   -725.98806    123.21055    78.733957     25.11018    16.443461 
   15800    242.76762   -507.49859    181563.75   -13261.401    998.62895    -14260.03   -1304.0867    123.35377    78.737255    25.110452     16.43872 
   16000    234.73413     -362.588    181563.75   -13322.848    965.58306   -14288.431   -720.67776    125.67601    78.737743    25.111847    16.402697 
   16200    247.86999   -359.61977    181563.75    -13229.73    1019.6176   -14249.348   -688.75541    126.38149    78.738458    25.115339    16.400284 
   16400    243.48223   -188.16613    181563.75   -13196.635    1001.5685   -14198.204   -115.06059    128.75451    78.739773    25.114187    16.396011 
   16600     245.4376   -439.26397    181563.75   -13262.948    1009.6119    -14272.56   -1032.8595    131.25942     78.74059    25.115867    16.383441 
   16800    246.61495   -405.39879    181563.75   -13278.076     1014.455   -14292.531   -853.67599    133.34777    78.741023    25.114421    16.390013 
   17000    244.71345   -241.70537    181563.75   -13264.039    1006.6331   -14270.672   -317.43299    134.06089    78.740177    25.112672    16.385221 
   17200    238.86019   -428.74483    181563.75   -13291.077    982.55566   -14273.633   -976.48109    136.02891    78.736892    25.115217    16.368644 
   17400    244.77578   -417.18434    181563.75    -13274.12    1006.8895   -14281.009   -907.72775    136.77183     78.73565    25.120207    16.381789 
   17600    252.84685   -207.43342    181563.75    -13236.14      1040.09    -14276.23   -220.23104    138.08933    78.736113    25.123759    16.371761 
   17800    236.35889   -317.76386    181563.75   -13234.438    972.26652   -14206.705   -584.45154    138.30881    78.741039    25.123294    16.361908 
   18000    238.28926   -455.46075    181563.75   -13282.701    980.20715   -14262.908   -1071.0241    140.60064    78.743782    25.121508    16.381302 
   18200    236.91597   -259.36076    181563.75     -13288.4    974.55806   -14262.958    -359.0315    141.30629    78.743112    25.120104    16.389822 
   18400    234.45675   -341.55352    181563.75   -13272.594    964.44204   -14237.036   -606.17675    140.25119    78.740139    25.119344     16.38741 
   18600    244.69435   -404.85804    181563.75   -13262.864    1006.5546   -14269.418   -871.04266    142.14391    78.739634    25.117773    16.386951 
   18800     235.6597   -388.81144    181563.75   -13274.131    969.39038   -14243.521   -837.16362    143.41345    78.739579    25.115934    16.369013 
   19000    246.63879   -424.54395    181563.75   -13285.982    1014.5531   -14300.535   -972.14697    145.75288    78.737743    25.113132    16.364744 
   19200    236.55174   -318.23725    181563.75   -13249.082     973.0598   -14222.142   -581.80374    147.01803    78.736552    25.109351    16.357083 
   19400    245.15502   -389.01036    181563.75   -13217.918    1008.4496   -14226.367   -852.45877    147.85382    78.738481    25.113338    16.367942 
   19600    246.25346   -379.10582    181563.75   -13273.049     1012.968   -14286.017   -804.81922    148.25345    78.739632    25.119591    16.384917 
   19800    238.15601    -421.8962    181563.75   -13269.071    979.65901    -14248.73   -941.63139    149.91136    78.741673    25.120415    16.386912 
   20000    241.10305    -287.0817    181563.75   -13319.759     991.7817   -14311.541   -489.83857    149.33641    78.744443    25.119182    16.378917 
   20200    232.34616   -356.45661    181563.75   -13340.804    955.76009   -14296.564   -651.38989    150.17393    78.743451    25.116296    16.402482 
   20400    229.80958   -280.35119    181563.75   -13377.358    945.32583   -14322.684   -450.20255    150.32938    78.744452    25.112318    16.376613 
   20600    239.41634   -479.04224    181563.75   -13312.552    984.84339   -14297.395   -1150.5309    151.98975    78.745543    25.108562     16.35889 
   20800    247.14232    -263.2579    181563.75   -13340.535    1016.6243   -14357.159   -378.38795    153.32139    78.743228    25.104704    16.361391 
   21000    247.43266   -312.04883    181563.75    -13308.44    1017.8187   -14326.259   -578.88831    153.72436    78.745089    25.107321    16.375963 
   21200    235.03328    -451.7901    181563.75   -13296.223    966.81359   -14263.037   -1029.5947    156.16895    78.741001    25.109178     16.38217 
   21400    234.79287   -444.80691    181563.75   -13345.808    965.82466   -14311.633   -1050.9796     156.3856    78.738545    25.110719    16.358699 
   21600    231.27419   -308.85777    181563.75   -13300.602     951.3505   -14251.953   -544.11101    157.27705    78.736594    25.114292    16.350322 
   21800    247.45425   -398.36179    181563.75   -13287.957    1017.9075   -14305.864   -838.27184    159.62273    78.735419    25.116503    16.366089 
   22000    241.33973   -235.58399    181563.75    -13288.52    992.75529   -14281.275   -279.36785    160.14801    78.734955    25.117114    16.351651 
   22200    239.21715   -374.55185    181563.75   -13279.777    984.02404   -14263.801   -743.26594    161.39574    78.733239    25.117587    16.326131 
   22400     242.8942    -274.0888    181563.75   -13292.189    999.14963   -14291.339   -429.24787    162.79354    78.732316    25.117357    16.278673 
   22600    234.00968   -233.67503    181563.75   -13327.415    962.60302   -14290.018   -265.74484    163.16481    78.735128    25.119619     16.28527 
   22800    242.62527   -289.99479    181563.75   -13279.045    998.04336   -14277.088   -451.57156    163.79605    78.736647    25.124572    16.307247 
   23000    236.17358    -535.5705    181563.75   -13306.044    971.50423   -14277.548   -1304.1379     164.8338    78.732916    25.126693    16.310289 
   23200     239.7675   -336.29939    181563.75   -13298.969     986.2879   -14285.257    -590.9624    164.66211    78.730475    25.128276    16.280633 
   23400    241.32665   -344.13653    181563.75    -13279.54    992.70148   -14272.241   -670.04249    165.64916    78.731078    25.132576    16.254078 
   23600    243.52759   -340.05515    181563.75   -13345.436    1001.7551   -14347.191    -602.4476    166.75216    78.727513    25.139779    16.229689 
   23800    235.92534   -401.50668    181563.75   -13349.849    970.48311   -14320.332   -873.53916    167.73785    78.727373    25.143887    16.208702 
   24000    240.35471   -392.63587    181563.75   -13267.693    988.70339   -14256.396   -827.97139    168.90416     78.72768    25.147533    16.211886 
   24200    246.53109   -392.59445    181563.75   -13247.739      1014.11   -14261.849   -838.33632    170.35996    78.722924    25.149957    16.214091 
   24400    242.26861   -320.80059    181563.75   -13258.685    996.57628   -14255.261    -567.3392    171.40829    78.722058    25.148837    16.211747 
   24600    237.24263   -418.89136    181563.75   -13308.118     975.9018    -14284.02   -980.61787    172.32995     78.72291    25.149908    16.214022 
   24800    236.07805    -224.3326    181563.75   -13301.665    971.11127   -14272.776   -233.27151    174.43461    78.723566    25.149487     16.21212 
   25000    232.97967   -407.70489    181563.75   -13309.521    958.36602   -14267.887   -878.55043     175.7491     78.72578    25.147025    16.233442 
   25200    242.19792   -383.10999    181563.75   -13281.308    996.28545   -14277.593   -774.77236    174.94023    78.725121    25.142387    16.228371 
   25400    237.68514   -168.18749    181563.75   -13307.886    977.72207   -14285.608   -53.395139    174.47994    78.725284    25.142808    16.245257 
   25600     235.2419   -354.01702    181563.75   -13257.029    967.67178     -14224.7   -709.52626    176.30769    78.723823    25.139856    16.226268 
   25800    232.23106   -392.00932    181563.75   -13246.941    955.28662   -14202.228   -829.44868     176.5105    78.725705    25.139141     16.22291 
   26000    236.21592   -326.02474    181563.75   -13284.798    971.67841   -14256.476   -603.98168    177.15355     78.72683    25.138536    16.244375 
   26200    239.68823   -261.69169    181563.75   -13246.465    985.96184   -14232.427   -358.26659    178.38229    78.728818    25.141405    16.260558 
   26400    238.85406   -435.90627    181563.75   -13306.436    982.53044   -14288.966   -963.48491    181.49597     78.73039    25.143987    16.258953 
   26600    239.06585   -185.34165    181563.75   -13316.235    983.40167   -14299.637   -111.02382    182.03595    78.728349    25.143963    16.256202 
   26800    247.59875   -360.91637    181563.75   -13278.616    1018.5019   -14297.118    -719.4904    183.09408     78.72624    25.148095    16.240621 
   27000    235.09083   -355.86583    181563.75   -13343.842    967.05033   -14310.892   -695.10842    182.37021    78.726751     25.15085    16.243252 
   27200    243.74607   -452.49339    181563.75   -13288.001    1002.6538   -14290.655   -1075.5469    182.68997    78.728973    25.155341     16.24845 
   27400    231.20654   -421.07289    181563.75   -13287.085    951.07225   -14238.157   -958.69653    184.59355    78.727566    25.158847    16.263731 
   27600    237.07539   -381.01642    181563.75   -13307.677    975.21387   -14282.891   -795.22939    186.93093     78.72573    25.159431    16.270762 
   27800    233.58124   -457.96596    181563.75   -13399.973    960.84062   -14360.814    -1070.481    186.89497    78.722529     25.16179    16.260526 
   28000    232.04839   -538.92605    181563.75   -13342.604    954.53519   -14297.139   -1318.1327    187.91174    78.725753    25.161848    16.249386 
   28200    241.82876   -452.33339    181563.75   -13273.847    994.76691   -14268.614   -1034.9823    187.38871    78.726425    25.164365    16.264155 
   28400    247.92699   -299.20594    181563.75   -13296.374    1019.8521   -14316.226   -502.80887    188.21173    78.722866    25.162661    16.261305 
   28600    239.74075   -295.21558    181563.75   -13309.323    986.17787   -14295.501    -501.5923     190.6564    78.720858     25.16212    16.262176 
   28800    229.42776   -557.14603    181563.75   -13356.135     943.7552   -14299.891   -1415.8654    193.25691    78.721447    25.163967    16.266875 
   29000    240.08468   -361.30791    181563.75   -13308.591    987.59262   -14296.184   -734.35711    194.71077    78.721707    25.163916    16.264534 
   29200     238.1933    -373.3155    181563.75   -13322.726    979.81238   -14302.539   -771.73679    194.99072    78.721578     25.15853    16.260571 
   29400    239.75271   -347.68358    181563.75   -13319.695    986.22707   -14305.922   -661.38704    196.85986    78.726739    25.157848    16.258285 
   29600    244.39871    -428.3009    181563.75   -13355.111    1005.3385   -14360.449   -965.66446     197.6358    78.731131     25.15857     16.25475 
   29800    240.32177   -438.11663    181563.75    -13341.14    988.56791   -14329.708   -987.08035     198.4153    78.735616    25.162224    16.250986 
   30000    239.34573   -384.97628    181563.75   -13335.376    984.55294   -14319.928   -777.65695    198.70696    78.740729    25.165836    16.270422 
   30200    234.94799   -330.16379    181563.75   -13390.672    966.46274   -14357.135   -563.25134    198.13693    78.743178    25.168787     16.26633 
   30400    232.67671   -553.55098    181563.75   -13404.056     957.1198   -14361.176    -1417.525    200.63309    78.745674    25.169323    16.245877 
   30600    240.71492   -368.38441    181563.75   -13399.641    990.18511   -14389.827   -761.30221    201.04993    78.750264    25.174835    16.255334 
   30800     245.8951   -370.28642    181563.75   -13322.123    1011.4939   -14333.617   -766.06153    202.43749    78.756193    25.174193    16.232419 
   31000    230.36595   -403.36013    181563.75   -13324.325    947.61446   -14271.939   -872.63468    203.58428    78.755385    25.172972    16.232295 
   31200    236.31222    -328.7919    181563.75   -13300.886    972.07454    -14272.96   -580.64527    204.47548    78.758545    25.174103    16.238419 
   31400    241.56837   -338.66723    181563.75   -13331.852    993.69579   -14325.548   -672.43997     204.8479    78.759078    25.171923    16.218265 
   31600     241.2584   -364.49738    181563.75   -13296.608    992.42073   -14289.029   -723.25745    204.60621     78.75807    25.173997     16.25312 
   31800    233.05098   -460.62272    181563.75   -13360.851    958.65936    -14319.51   -1094.2766    205.63499    78.759057     25.17945    16.237371 
   32000    245.56959   -316.60023    181563.75   -13332.227    1010.1549   -14342.382   -567.71955    206.50963    78.758064     25.18431    16.225097 
   32200    236.02924   -312.57778    181563.75   -13383.888    970.91052   -14354.798   -533.49725    206.78304    78.758461    25.185155    16.258982 
   32400     240.2904   -229.80395    181563.75   -13357.454    988.43886   -14345.892   -202.73348    207.61116    78.763256    25.185257    16.255885 
   32600    243.65045    -308.6784    181563.75   -13326.365    1002.2605   -14328.626   -535.41943    208.20756    78.768614    25.183394    16.278587 
   32800    235.63255   -326.93087    181563.75   -13370.091    969.27872   -14339.369   -609.01395    209.02729    78.772703    25.186513    16.303891 
   33000    243.17273   -408.23666    181563.75   -13316.866    1000.2954   -14317.161   -858.63181    207.02554    78.775243    25.188508    16.285614 
   33200    243.99792   -429.65835    181563.75   -13337.515    1003.6898   -14341.205   -981.71142    207.34328    78.773728     25.19114     16.31786 
   33400    239.04096   -353.15107    181563.75    -13316.18    983.29926   -14299.479   -700.89426    207.25434    78.772819    25.192727    16.356617 
   33600     243.9861   -405.44033    181563.75   -13368.111    1003.6412   -14371.752   -834.86796    208.80395    78.770537    25.192411     16.33914 
   33800    239.77242   -463.94935    181563.75   -13317.119    986.30815   -14303.427   -1081.5824    209.48731     78.77385    25.189237     16.36563 
   34000     244.7868   -532.06061    181563.75   -13329.621    1006.9349   -14336.556   -1318.9881    210.36115     78.77579    25.187436    16.363326 
   34200    239.81673   -360.99672    181563.75   -13365.435     986.4904   -14351.925   -747.03468    211.62764    78.778795    25.190005    16.388327 
   34400    230.73615   -321.50405    181563.75   -13379.234    949.13729   -14328.371   -603.12108    211.88212    78.785121    25.190763    16.366994 
   34600    238.75982    -402.8303    181563.75   -13349.036    982.14278   -14331.179   -902.01735    212.85246    78.788165    25.194229    16.363844 
   34800     244.0426   -333.89559    181563.75   -13352.849    1003.8736   -14356.723   -662.39608    214.43585    78.790682    25.199372    16.367592 
   35000    240.56728   -416.89104    181563.75   -13356.574    989.57778   -14346.152    -909.9728    216.46323    78.790568    25.201443    16.373549 
   35200     241.2831   -365.05565    181563.75   -13323.203    992.52234   -14315.726   -749.22082    215.38506    78.795242     25.20495    16.360505 
   35400    248.55607   -261.59071    181563.75   -13307.434    1022.4398   -14329.874   -394.67379    216.90512    78.796184    25.212441    16.330829 
   35600    239.49573    -395.7962    181563.75   -13368.596    985.16996   -14353.766   -808.91597    218.89582    78.793886    25.216663    16.320077 
   35800    242.09034   -429.10368    181563.75   -13325.854    995.84293   -14321.697   -1008.2963     219.0819    78.791783    25.219676    16.321626 
   36000    239.30428    -371.9244    181563.75   -13390.544    984.38243   -14374.926   -793.29154    219.66254     78.79107    25.218895    16.318021 
   36200    232.60534   -467.33207    181563.75   -13395.775    956.82623   -14352.601   -1111.3553    219.27123    78.789396    25.218645    16.319638 
   36400    244.03026   -454.82068    181563.75   -13339.437    1003.8228    -14343.26   -1042.5478    220.58108    78.786702    25.219219    16.348259 
   36600    238.61148   -256.46859    181563.75   -13392.445     981.5326   -14373.978   -375.29839    221.11486    78.788023    25.226473     16.34532 
   36800     234.3888   -418.46182    181563.75   -13413.309    964.16252   -14377.472    -950.1321    222.86526      78.7877    25.229398    16.339318 
   37000    236.10287   -354.54324    181563.75   -13349.373    971.21338   -14320.586   -717.91364    223.12677    78.787837    25.237026    16.316531 
   37200    239.35759   -455.96454    181563.75   -13405.925    984.60174   -14390.527   -1055.9126    222.98084    78.785603    25.241036    16.328194 
   37400     241.8076   -401.09502    181563.75   -13338.088    994.67987   -14332.767   -845.52371    223.60505    78.786523    25.240434    16.317826 
   37600    238.83732   -421.97489    181563.75   -13292.119     982.4616   -14274.581   -916.68155    226.15059    78.787271    25.243962     16.32216 
   37800    233.18771   -397.21444    181563.75   -13334.279    959.22183   -14293.501   -836.03301    228.24697    78.787411    25.246026    16.285253 
   38000    240.24504   -362.55885    181563.75   -13334.853    988.25227   -14323.106   -715.29369    229.58967    78.788215    25.249949    16.274195 
   38200    244.85362   -338.80162    181563.75   -13323.935    1007.2097   -14331.145   -633.31412    230.49495    78.788914    25.250922    16.249991 
   38400    241.31023   -185.65592    181563.75   -13299.565    992.63392   -14292.199   -108.33727    232.33983    78.791531    25.251397    16.253143 
   38600    241.33051   -275.72404    181563.75   -13297.744    992.71738   -14290.461   -447.27959    234.28074    78.790794    25.248919     16.27232 
   38800    242.79124    -288.7919    181563.75   -13298.598    998.72612   -14297.324   -457.80596    233.58042    78.791063    25.250524    16.274914 
   39000    246.22839   -390.49062    181563.75   -13272.777    1012.8649   -14285.642   -829.80533    233.10898    78.785676    25.250946     16.27118 
   39200    230.60947   -428.58503    181563.75   -13316.542    948.61619   -14265.159   -951.00722    233.13224    78.783878    25.250706    16.280291 
   39400    242.50758   -327.77487    181563.75   -13262.589    997.55925   -14260.149   -626.76544    233.30617    78.779863    25.246703    16.304591 
   39600    242.80034   -393.81186    181563.75    -13314.08    998.76353   -14312.844   -862.20654    233.69806    78.777383    25.245392    16.292228 
   39800    247.50761   -372.63252    181563.75   -13220.272     1018.127   -14238.399   -743.10096    235.98409    78.773286    25.241799    16.324283 
   40000    237.22786   -386.00392    181563.75   -13319.067    975.84105   -14294.908   -857.64242    239.03296    78.771746    25.237966    16.344695 
   40200    237.10367   -290.46798    181563.75   -13358.194     975.3302   -14333.524   -446.39971    238.09258    78.766347    25.238076    16.355144 
   40400    240.95974   -345.23814    181563.75   -13242.472    991.19221   -14233.664   -705.77109    239.01786    78.770246    25.236503    16.338587 
   40600    236.98942   -416.48317    181563.75   -13391.788    974.86023   -14366.648    -930.6518    241.30895    78.770145    25.236067     16.33742 
   40800    242.36003   -330.41588    181563.75   -13306.607    996.95231   -14303.559   -659.68688    240.45531    78.768447    25.236819    16.337141 
   41000    241.83346   -310.71898    181563.75    -13263.15    994.78626   -14257.937   -543.22941    240.81726     78.76449    25.235834    16.313171 
   41200    242.82495   -351.68352    181563.75   -13258.214    998.86479   -14257.079   -695.50125    239.49501    78.763554    25.235253     16.30336 
   41400    237.60719   -231.96551    181563.75   -13235.957    977.40144   -14213.359   -280.08496    239.43955    78.761916    25.231887    16.294529 
   41600    245.10546   -497.76097    181563.75   -13196.974    1008.2457    -14205.22   -1186.0351    241.66863    78.763868    25.233209    16.319333 
   41800    235.14394   -491.38277    181563.75   -13250.789    967.26882   -14218.058   -1206.9399    242.44579     78.76552    25.231183    16.303162 
   42000    239.13158   -365.68012    181563.75    -13240.53    983.67202   -14224.202   -761.84356    242.87977    78.765909    25.232323    16.274779 
   42200    235.87169   -474.25747    181563.75   -13266.489    970.26242   -14236.751   -1110.8419    244.47656    78.764299    25.228776    16.266501 
   42400    232.97913   -332.92658    181563.75   -13278.044    958.36381   -14236.407   -611.12961    244.87532    78.764877    25.228932    16.262157 
   42600    238.13391   -420.30993    181563.75    -13297.64    979.56809   -14277.208   -955.99278     245.7597    78.765867     25.23224    16.270516 
   42800    240.05851   -385.10788    181563.75     -13270.2    987.48496   -14257.685   -813.08372    245.84291    78.766304    25.233611    16.270097 
   43000    240.99359   -443.68566    181563.75   -13247.559    991.33145   -14238.891   -999.94759    246.73019    78.767535    25.231939    16.260791 
   43200     241.3254   -448.79825    181563.75   -13241.514    992.69636    -14234.21   -1048.7747    247.05449    78.768313    25.227755    16.279434 
   43400     240.3725   -368.01749    181563.75   -13294.803    988.77656    -14283.58   -753.99001    249.68391    78.768407    25.221158    16.263508 
   43600    235.90168   -305.50884    181563.75    -13343.35    970.38578   -14313.735   -510.16975    250.73112    78.766909    25.221326    16.262647 
   43800    235.60837   -272.52571    181563.75   -13318.961    969.17924    -14288.14   -446.39123    251.45002    78.764868    25.216813    16.242329 
   44000    239.27519   -250.16886    181563.75   -13354.401    984.26276   -14338.664   -325.28347    250.03499    78.763362    25.214792    16.263171 
   44200    245.49567   -280.57801    181563.75   -13311.547    1009.8508   -14321.398   -423.26914    251.49671    78.765049    25.217783    16.225635 
   44400    249.36346    -333.3942    181563.75   -13259.262    1025.7611   -14285.023   -655.92545    250.52627     78.76579    25.219694    16.236112 
   44600     233.7578   -445.81986    181563.75   -13316.264    961.56691   -14277.831   -1044.0133    252.46993    78.768134    25.221618    16.266931 
   44800    241.73084   -548.30335    181563.75   -13316.814    994.36411   -14311.178   -1391.4994    253.62473    78.769132    25.221202    16.257977 
   45000    240.31268   -246.36647    181563.75   -13323.695     988.5305   -14312.226   -298.88372     254.6391    78.767927    25.220802    16.254138 
   45200    246.09729   -344.62753    181563.75   -13234.252    1012.3256   -14246.577   -714.42189    255.97427    78.766259    25.219604    16.264058 
   45400    247.96654   -347.49308    181563.75   -13217.203    1020.0148   -14237.218   -676.67106    256.73115    78.763019    25.216645    16.265776 
   45600    246.20325   -542.71709    181563.75   -13245.262    1012.7615   -14258.023   -1378.6254     256.7624    78.762736    25.215638    16.260578 
   45800    235.44318   -285.47143    181563.75   -13289.135    968.49973   -14257.635   -454.70669    257.53471    78.758403    25.210498    16.278474 
   46000    232.55992   -294.63956    181563.75   -13292.367    956.63939   -14249.006   -493.72922    258.02825    78.754741    25.207304    16.262577 
   46200    243.40164   -393.97761    181563.75   -13270.897     1001.237   -14272.134   -874.15231    258.10309    78.756119    25.209865    16.257231 
   46400    250.82521    -395.2856    181563.75   -13230.239     1031.774   -14262.013    -802.5682    260.46552    78.758611    25.208476    16.263313 
   46600    241.44582   -387.90395    181563.75   -13296.042    993.19171   -14289.234    -812.2956    262.61528    78.757847     25.21194    16.250429 
   46800    250.17651   -223.18129    181563.75   -13258.822    1029.1055   -14287.927   -214.58609     263.7852    78.755859    25.214629    16.245176 
   47000    246.82898   -294.23968    181563.75   -13236.396    1015.3354   -14251.732   -457.25832    265.11789    78.757398    25.216103       16.214 
   47200    244.09282   -324.23666    181563.75   -13320.232    1004.0802   -14324.312   -579.15307    267.25309    78.762365    25.219564    16.210727 
   47400    239.11301   -397.46682    181563.75   -13276.015    983.59562   -14259.611   -853.30875    269.32908    78.763748    25.217342    16.178292 
   47600    249.53741   -257.51052    181563.75   -13276.776    1026.4766   -14303.252   -346.77979    270.82587    78.765195    25.216071     16.18531 
   47800    242.56924   -430.02992    181563.75    -13277.18    997.81292   -14274.993   -969.93347    271.38522     78.76356    25.215612    16.181327 
   48000    240.69507   -167.54332    181563.75   -13294.138    990.10347   -14284.241   -32.391208    269.96347    78.762909    25.212011     16.16914 
   48200    244.68302   -223.18489    181563.75   -13288.735     1006.508   -14295.243   -228.88322    272.35573      78.7611     25.21338    16.183005 
   48400    245.07565   -297.20554    181563.75   -13320.036    1008.1231   -14328.159   -479.10545    274.80547    78.758559    25.213599    16.158471 
   48600    245.31737   -443.50801    181563.75   -13279.676    1009.1174   -14288.793   -1007.6868    275.84088    78.758091    25.213389    16.171705 
   48800    236.06388   -375.64634    181563.75   -13297.587    971.05298    -14268.64   -752.96918    276.63322    78.760022    25.211779    16.174338 
   49000    240.08603   -220.06943    181563.75   -13255.905    987.59819   -14243.503   -223.14274    277.59001    78.757076    25.210855    16.175575 
   49200    239.38241   -381.35682    181563.75     -13275.2    984.70384   -14259.904    -776.0117    277.64668    78.756622    25.208055    16.164101 
   49400    234.07219   -472.56302    181563.75   -13255.689    962.86014   -14218.549   -1108.4243    277.60642    78.752333    25.208254    16.185869 
   49600    241.97732   -513.60782    181563.75   -13276.562    995.37805    -14271.94   -1271.4567    278.08478    78.756094    25.209706    16.167365 
   49800    233.24132   -286.67953    181563.75   -13294.342    959.44233   -14253.784   -474.36066    278.65824    78.758267    25.209853    16.161785 
   50000    241.67094   -357.99637    181563.75   -13333.746    994.11774   -14327.864   -720.34716    279.80909    78.761197    25.212833    16.168028 
   50200    241.44527   -285.47381    181563.75   -13286.283    993.18942   -14279.472   -434.69289    281.86277    78.761197    25.214735    16.195694 
   50400    242.38009   -402.73505    181563.75   -13292.512    997.03485   -14289.547   -895.27372    282.44384    78.759611    25.218182    16.205536 
   50600    241.43838   -244.15943    181563.75   -13360.869    993.16108    -14354.03   -323.40455    282.68958    78.757949    25.218775    16.211758 
   50800    237.16058   -468.09682    181563.75   -13365.069     975.5643   -14340.633    -1089.858     283.4572       78.761    25.218484    16.217075 
   51000    235.90632   -267.99565    181563.75   -13308.404    970.40488   -14278.809   -390.63336    285.25657    78.764536    25.219934     16.23019 
   51200    231.35424   -424.70387    181563.75   -13367.785    951.67979   -14319.465   -921.46485    286.22752    78.767924     25.22257    16.222288 
   51400    238.07944   -536.57702    181563.75   -13317.491    979.34402   -14296.835   -1367.1228    287.18706    78.768813    25.221949    16.200381 
   51600    242.13015   -372.26433    181563.75   -13307.652     996.0067   -14303.658   -760.08635    286.66717    78.765244    25.223154    16.212821 
   51800    244.79585   -226.11063    181563.75    -13307.17    1006.9721   -14314.142   -239.15596    287.32569    78.766293    25.223117    16.232304 
   52000    228.16576   -384.67013    181563.75   -13322.099    938.56394   -14260.663   -780.04257    288.20665    78.766952    25.223589    16.251515 
   52200    242.41909   -287.39658    181563.75   -13310.335    997.19527   -14307.531   -467.36344    288.06056    78.765695    25.228794    16.258662 
   52400    235.41604   -245.95583    181563.75   -13280.537    968.38808   -14248.925   -360.75709     289.1812    78.766607     25.22943    16.277531 
   52600    240.76728   -285.74546    181563.75   -13273.966    990.40053   -14264.367    -455.8366     290.1728    78.765956    25.232217     16.30396 
   52800    235.23921   -294.67109    181563.75   -13362.767    967.66069   -14330.427   -493.08462    291.84359    78.765439    25.234853     16.29211 
   53000    236.88959   -310.03146    181563.75   -13385.433    974.44958   -14359.883    -535.9661    294.73657    78.767304    25.235145     16.31539 
   53200    231.81959   -492.61621    181563.75   -13347.746    953.59404    -14301.34   -1236.6392    297.37961    78.772655    25.234071    16.316375 
   53400    243.99557   -312.48122    181563.75   -13330.389    1003.6801   -14334.069   -518.35739    300.77256    78.774347    25.235411     16.30474 
   53600    243.83543    -281.4853    181563.75   -13260.533    1003.0214   -14263.555   -416.15467    299.59154    78.773669    25.236046    16.289475 
   53800    238.58791   -533.14906    181563.75   -13283.624    981.43562   -14265.059   -1303.9638    299.77841    78.775558    25.234291    16.305554 
   54000    240.18907   -409.16105    181563.75   -13249.315    988.02205   -14237.337   -902.46274    300.50088    78.775354    25.233327     16.30815 
   54200     235.6635   -394.90548    181563.75   -13352.781    969.40603   -14322.187   -823.31735    299.98676     78.77475    25.232762    16.309596 
   54400     235.3331   -463.41664    181563.75   -13322.408     968.0469   -14290.455   -1057.9455    301.68128    78.775237    25.227337     16.31359 
   54600    232.37564   -445.56014    181563.75    -13297.15    955.88134   -14253.031   -1064.8537    301.35722    78.777475     25.22725    16.310306 
   54800    243.88161   -507.40617    181563.75   -13275.823    1003.2113   -14279.034   -1287.4356    303.30597    78.778604    25.228241    16.333807 
   55000    237.68036   -440.75727    181563.75    -13339.51    977.70241   -14317.212   -1041.7955    304.91843    78.778645    25.222962    16.338103 
   55200    246.47482   -324.56314    181563.75   -13315.088    1013.8786   -14328.967    -614.7774    305.86393    78.780989     25.22038    16.332172 
   55400    240.78461   -466.79295    181563.75   -13280.851    990.47178   -14271.323   -1055.9439    306.22871    78.781133      25.2193    16.316003 
   55600    239.30513   -416.81277    181563.75   -13297.279    984.38591   -14281.665    -906.8151    307.37526    78.785103    25.216505    16.311246 
   55800    237.96091   -280.95978    181563.75   -13332.592    978.85644   -14311.448   -418.78052    307.27048    78.788008    25.215635    16.292566 
   56000    231.09642    -240.2096    181563.75   -13346.899    950.61926   -14297.518   -263.37247    310.05845    78.785924    25.214768    16.305747 
   56200    241.32071   -209.45308    181563.75   -13263.586    992.67705   -14256.263   -207.15085    309.65432    78.786517    25.212054    16.325616 
   56400    233.92173   -419.63481    181563.75   -13272.622    962.24123   -14234.863   -939.42809    313.03559    78.785557     25.20903    16.309566 
   56600     233.3683   -378.05783    181563.75   -13316.216    959.96469   -14276.181   -785.60832     311.3872    78.786577    25.208025    16.287851 
   56800    236.97882   -400.11322    181563.75   -13334.123    974.81662    -14308.94   -838.13045    311.86033    78.788819    25.206428    16.308991 
   57000    232.31677   -283.11911    181563.75   -13328.739     955.6392   -14284.378   -401.03181    314.63702    78.789075    25.205137    16.308909 
   57200    230.11633   -310.50247    181563.75    -13334.95    946.58764   -14281.538   -519.74795    315.63641    78.787516    25.207396     16.28619 
   57400    235.06035   -386.45384    181563.75   -13323.468    966.92494   -14290.393   -818.80991    316.91136     78.78852    25.209045    16.289126 
   57600    241.30634   -336.43552    181563.75   -13240.467    992.61795   -14233.085   -659.44004     318.2693    78.789758    25.205743    16.307813 
   57800    239.50973   -346.44266    181563.75   -13267.157    985.22753   -14252.385   -702.65012    318.72307    78.794215     25.20628     16.32011 
   58000    247.84331   -324.45113    181563.75   -13230.454    1019.5079   -14249.962    -564.4315     320.5855    78.793401    25.202403    16.300774 
   58200     239.6688   -377.88894    181563.75   -13274.719    985.88188   -14260.601   -800.56219    320.30582    78.795667    25.203627    16.294874 
   58400    235.29975   -251.27771    181563.75   -13256.735    967.90974   -14224.645     -362.627    321.84744    78.794025    25.199721    16.309598 
   58600     233.6548   -479.87421    181563.75   -13255.394     961.1432   -14216.538   -1169.9173    322.88887    78.791178    25.198322    16.309898 
   58800    239.59741   -408.94338    181563.75   -13251.087    985.58822   -14236.675   -845.77672    325.42526    78.792197     25.19885    16.292794 
   59000     239.6074   -409.20658    181563.75   -13259.168    985.62932   -14244.797   -892.54224    326.55655    78.792853    25.198414     16.32022 
   59200    242.92987   -290.62465    181563.75   -13252.946    999.29638   -14252.242   -443.24723    327.02895    78.794631    25.203156    16.360583 
   59400    241.01727   -320.11408    181563.75   -13282.834    991.42885   -14274.263   -535.46902    328.80661     78.79317    25.208087    16.362187 
   59600    240.17096   -274.33265    181563.75   -13231.798    987.94755   -14219.746    -444.8727    329.77101    78.793253    25.206561     16.35888 
   59800    247.18081   -507.60305    181563.75   -13234.797    1016.7827    -14251.58   -1234.3529     331.4438    78.791188    25.206791    16.357893 
   60000    234.09316   -95.690775    181563.75   -13270.493    962.94641    -14233.44    198.25228    331.00118     78.79393    25.211888    16.338443 
   60200    242.41019    -267.2627    181563.75   -13206.364    997.15864   -14203.523   -355.70095    332.05303    78.794125    25.213015    16.345684 
   60400    234.19506   -215.44562    181563.75   -13260.798    963.36556   -14224.164    -209.7292    333.52971    78.793759    25.218527     16.34091 
   60600    241.38186   -347.32454    181563.75   -13229.292     992.9286   -14222.221   -639.81369    336.43169    78.789767     25.22368    16.326023 
   60800    236.42175   -310.45648    181563.75   -13281.108    972.52511   -14253.633   -568.84878    337.20818    78.790269    25.224961    16.333951 
   61000    237.07413    -352.2159    181563.75   -13321.567    975.20868   -14296.775   -713.60747    338.71466    78.786451    25.223806    16.321132 
   61200    232.34585   -281.94951    181563.75    -13311.25     955.7588   -14267.009    -431.9778    338.73333    78.789156    25.220271     16.29443 
   61400    236.09432   -185.35743    181563.75   -13324.423     971.1782   -14295.601   -81.063631    338.52313    78.785231    25.220397    16.261457 
   61600    238.96904   -500.21032    181563.75   -13311.833    983.00342   -14294.837   -1220.0273    338.55661    78.784018    25.223554    16.254469 
   61800    238.43067   -209.15916    181563.75   -13285.543    980.78883   -14266.332   -200.99067    338.83714    78.787596    25.225532    16.254197 
   62000    241.26434    -365.0516    181563.75   -13288.342    992.44517   -14280.787    -705.6124    342.51361    78.790019    25.225742    16.242939 
   62200    244.93306   -284.39552    181563.75   -13249.859    1007.5365   -14257.396   -464.98755    342.09217    78.788831    25.224999    16.250813 
   62400    248.24027   -272.36611    181563.75   -13249.764    1021.1408   -14270.905   -371.15242    344.26566    78.786409    25.224148    16.235878 
   62600    247.78846   -434.46735    181563.75   -13330.436    1019.2822   -14349.718   -995.02002    344.44932     78.78723    25.222287    16.229331 
   62800    236.84925   -403.33249    181563.75   -13344.312     974.2836   -14318.595   -861.57581    345.40205    78.783653    25.225027    16.220806 
   63000    240.47415   -357.16321    181563.75   -13299.501    989.19471   -14288.696   -704.38737    347.78672    78.779237    25.226991    16.232683 
   63200    232.68616   -174.99866    181563.75   -13360.408    957.15868   -14317.567   -46.740362    347.49047    78.776198     25.22796    16.214048 
   63400     244.1786   -254.21353    181563.75   -13300.689     1004.433   -14305.122   -334.91482    346.12508    78.776084    25.227186    16.208697 
   63600    240.30046   -481.37585    181563.75   -13263.883    988.48025   -14252.364   -1145.3914     351.7854    78.776258    25.227012    16.220313 
   63800      241.997   -328.49288    181563.75   -13274.847    995.45896   -14270.306   -621.76026     351.1153    78.777093    25.225851    16.216025 
   64000    236.32081   -314.48057    181563.75   -13331.528    972.10989   -14303.638   -571.88416    352.21641    78.781216    25.224309    16.208765 
   64200    252.74416   -341.34475    181563.75   -13325.312    1039.6676   -14364.979   -628.50361    353.08846    78.780773    25.222197    16.235548 
   64400      245.782   -350.68677    181563.75   -13320.183    1011.0286   -14331.212   -715.39365    353.85355    78.779578    25.216294    16.220466 
   64600    240.64882    -479.9746    181563.75   -13317.533    989.91322   -14307.446   -1109.8214    355.30087    78.779031    25.215643    16.240423 
   64800    238.52827   -273.90444    181563.75   -13315.786    981.19029   -14296.976   -428.36205    355.00537    78.779525    25.216645    16.280931 
   65000    236.73329   -397.79118    181563.75   -13385.177    973.80664   -14358.984   -804.28715    355.92395    78.782911     25.21784    16.246841 
   65200    230.06146   -269.35578    181563.75   -13359.157    946.36192   -14305.519   -365.84709    354.77455     78.78002    25.220445    16.270691 
   65400    257.73831   -307.00584    181563.75   -13206.439    1060.2112    -14266.65   -541.71469    354.50068    78.780996     25.22077    16.300193 
   65600    239.27709   -255.91846    181563.75   -13278.723     984.2706   -14262.994   -334.67211    355.08723     78.78199    25.226271    16.310643 
   65800    252.11064     -314.932    181563.75   -13273.733    1037.0616   -14310.795   -575.04136    355.56824    78.782765    25.229047    16.347255 
   66000    251.02638   -319.00175    181563.75     -13340.2    1032.6015   -14372.801   -507.11817       356.33    78.783692    25.231882    16.348883 
   66200    242.03082   -340.11266    181563.75   -13308.984    995.59811   -14304.582   -642.67437    356.91238    78.783512     25.23286    16.382292 
   66400    235.47935   -429.70643    181563.75   -13344.647    968.64852   -14313.295   -1019.6581    356.10235     78.78778    25.236698     16.38732 
   66600    241.51183   -434.13813    181563.75   -13347.268    993.46321   -14340.731   -974.72154    357.65905    78.785831     25.24262    16.368675 
   66800    228.90826   -308.15496    181563.75   -13378.053     941.6182   -14319.671   -549.94954    355.34957    78.787185    25.239013    16.379517 
   67000    240.83791   -332.94333    181563.75   -13414.638    990.69105   -14405.329   -604.69149    357.53602    78.785493    25.236679    16.375824 
   67200    234.34737   -467.91207    181563.75   -13433.553    963.99211   -14397.545   -1120.9619    358.55526    78.783994    25.234891     16.34856 
   67400    243.60347   -584.56516    181563.75   -13384.251    1002.0672   -14386.318   -1560.8571    358.85506    78.783685    25.237312    16.364716 
   67600    231.82365    -233.1891    181563.75   -13418.595    953.61072   -14372.206   -329.12097    357.58225    78.781385    25.236913    16.350347 
   67800    242.20974   -372.99265    181563.75   -13364.067     996.3341   -14360.401   -815.69819    360.38129    78.780455    25.239505    16.331806 
   68000    240.06427   -301.75448    181563.75   -13356.435    987.50867   -14343.944    -502.5656    361.19891    78.779921    25.238508    16.360027 
   68200     242.1322   -236.16159    181563.75   -13348.099    996.01513   -14344.114   -292.07732    360.89871    78.781224    25.240008     16.36728 
   68400    242.50945   -345.46612    181563.75   -13292.101    997.56695   -14289.668   -628.85892    362.53545     78.78166    25.243292     16.38342 
   68600    237.09974   -364.50872    181563.75   -13364.312    975.31403   -14339.626   -733.33509    363.26713    78.781297    25.243426    16.391738 
   68800    247.11637   -404.58658    181563.75   -13303.294    1016.5176   -14319.812   -848.21896    363.70193    78.782313    25.241204    16.359572 
   69000    244.96882   -448.12269    181563.75   -13279.567    1007.6836   -14287.251   -1012.7485    364.78402    78.782594    25.235058    16.387386 
   69200    241.81488    -475.8061    181563.75   -13291.036    994.70981   -14285.746    -1126.196    365.45442    78.779424    25.233718    16.369182 
   69400    232.91384    -384.3172    181563.75   -13358.947    958.09523   -14317.042   -833.18549     367.5164    78.780497     25.23579     16.35482 
   69600    238.41707   -314.23636    181563.75   -13310.538    980.73287   -14291.271   -550.71355    366.33557    78.783057    25.241114     16.35213 
   69800    238.68511   -121.84148    181563.75   -13326.363    981.83546   -14308.199    116.98611    368.00665    78.784666    25.244337     16.34235 
   70000    240.90842   -206.53894    181563.75    -13384.71     990.9811   -14375.691   -184.87223    369.27403    78.786573    25.245308    16.348573 
   70200    235.39468   -423.44891    181563.75   -13354.536    968.30021   -14322.836   -875.34103    370.40895    78.784903    25.244246    16.338162 
   70400    237.01575   -263.59437    181563.75   -13340.542    974.96851   -14315.511   -352.77254    369.71727    78.783039    25.246811    16.316926 
   70600    241.91208   -363.22981    181563.75   -13321.913    995.10967   -14317.023   -725.47144     370.1284    78.784606    25.247451    16.318036 
   70800    236.63634   -605.09005    181563.75    -13344.39    973.40781   -14317.798   -1564.9364    370.94302    78.785552    25.246223    16.323466 
   71000    242.00046   -310.37542    181563.75   -13311.346    995.47322   -14306.819   -490.94261    372.71658    78.785825     25.24798    16.316507 
   71200    245.06245   -289.95823    181563.75   -13186.931    1008.0688   -14194.999   -433.77925    372.38404    78.785139    25.248647    16.326314 
   71400    236.81074   -231.71905    181563.75   -13299.261     974.1252   -14273.386   -243.51586    372.69806    78.780049    25.247074    16.338369 
   71600     234.5688   -516.54764    181563.75   -13302.081    964.90297   -14266.984   -1312.0859     375.2636    78.776867    25.247243    16.341043 
   71800    235.18994    -350.3794    181563.75   -13309.226    967.45803   -14276.684    -664.7263    377.05552    78.777313    25.247363     16.35783 
   72000    245.76728   -392.22943    181563.75   -13266.539    1010.9681   -14277.507   -785.97194    381.40091    78.780104     25.24338    16.374068 
   72200    242.86116   -277.62745    181563.75   -13273.532    999.01374   -14272.545   -457.80191    379.48709    78.781681    25.244943    16.374251 
   72400    234.61137   -524.44351    181563.75   -13281.128    965.07806   -14246.206    -1320.682    382.33885    78.785121    25.244174    16.352667 
   72600    241.46362   -354.10317    181563.75   -13255.544    993.26491   -14248.809   -704.99073    379.68202    78.788032    25.242884    16.343226 
   72800    236.23837   -250.32469    181563.75   -13320.975    971.77075   -14292.746   -318.31392    381.88587    78.788713    25.240423    16.344486 
   73000    242.84871   -345.43501    181563.75   -13287.051    998.96249   -14286.014   -641.49567    381.61614    78.792092     25.24173    16.322712 
   73200    247.16945   -448.47349    181563.75   -13211.095    1016.7359   -14227.831    -1044.457    381.68087    78.789788    25.238104    16.313451 
   73400    243.71283     -385.224    181563.75    -13277.66    1002.5171   -14280.177   -784.33604     385.1159    78.788712     25.23739    16.332954 
   73600    237.99658   -446.33356    181563.75   -13250.215    979.00317   -14229.218   -1007.6483    385.69845     78.78597     25.23748     16.33229 
   73800    250.62421   -400.93727    181563.75   -13192.567    1030.9472   -14223.514   -858.20578    384.74049    78.784942    25.239269    16.331717 
   74000    240.73403   -573.61143    181563.75    -13205.82    990.26375   -14196.084   -1427.7855    387.28005    78.785928    25.241325    16.336515 
   74200    249.08936   -377.34355    181563.75   -13210.363    1024.6335   -14234.996   -781.81355      390.223    78.784806    25.243965    16.349969 
   74400    237.05767   -337.38715    181563.75   -13227.296    975.14097   -14202.437   -622.73577    388.86841    78.786465    25.241555    16.330458 
   74600    241.70685   -109.79742    181563.75   -13260.521    994.26543   -14254.786    174.87049    389.15817    78.786449    25.237956    16.340181 
   74800    241.32952   -273.30354    181563.75   -13202.441    992.71327   -14195.154   -395.10081    393.39286    78.785314    25.236534    16.338807 
   75000    243.57559   -377.15986    181563.75   -13260.226    1001.9525   -14262.179   -800.77253    393.93474    78.786094    25.237088    16.341225 
   75200    243.05647   -455.14852    181563.75   -13270.082    999.81712   -14269.899   -1097.1781    393.31286    78.787733    25.240779    16.316788 
   75400    243.32066   -273.38967    181563.75   -13205.392    1000.9039   -14206.296    -486.5659    392.77211    78.784683    25.238392    16.306419 
   75600    236.77461   -282.15136    181563.75   -13291.626     973.9766   -14265.603   -483.32876     392.5016    78.783208    25.239058    16.303615 
   75800    228.50892   -323.16322    181563.75    -13254.68    939.97553   -14194.656   -568.08918    394.22444    78.783871    25.243979    16.304235 
   76000    234.14129   -307.83404    181563.75    -13297.86     963.1444   -14261.004    -557.8507    392.02101    78.783315    25.244626     16.28556 
   76200    234.20014   -425.09816    181563.75   -13351.994    963.38645    -14315.38   -921.77279    393.74304     78.77814     25.24283    16.299756 
   76400    232.06338   -195.11246    181563.75    -13352.94    954.59686   -14307.536   -138.71805    393.26068    78.776961    25.242025    16.311893 
   76600    246.68144   -376.07371    181563.75   -13279.989    1014.7285   -14294.718   -760.39283    396.25183    78.772217     25.24447    16.320031 
   76800    247.26571   -356.11521    181563.75   -13256.946    1017.1319   -14274.077    -728.5041    396.65147    78.769507    25.244407    16.325143 
   77000    236.66479   -461.64842    181563.75   -13281.632    973.52485   -14255.157   -1032.7371    397.49941    78.768911    25.247342    16.325324 
   77200    236.80711   -213.83454    181563.75     -13250.4    974.11029   -14224.511   -197.64275    397.51122     78.76914    25.249602    16.317004 
   77400    243.55362   -334.91041    181563.75   -13214.027    1001.8622   -14215.889   -631.66611    399.43898    78.772284    25.248113    16.314841 
   77600    236.82338   -535.16115    181563.75   -13219.826    974.17721   -14194.003   -1306.6557    398.69765    78.774303    25.249052    16.298965 
   77800    251.92101   -231.29599    181563.75   -13257.315    1036.2816   -14293.597   -227.01008    399.05181    78.773125    25.252422    16.310674 
   78000    233.27691   -278.43945    181563.75   -13336.066    959.58873   -14295.655   -425.56626    399.39841    78.773774    25.252227    16.330057 
   78200    246.07629   -463.80063    181563.75   -13271.819    1012.2392   -14284.058    -1081.837    399.90075    78.778718    25.253432    16.336537 
   78400    235.20725    -433.7061    181563.75   -13300.193    967.52924   -14267.722   -922.09449    400.28593     78.78005     25.25313    16.329356 
   78600    234.14763   -375.11813    181563.75   -13333.655    963.17047   -14296.825   -761.18264    402.01594    78.781971    25.254117    16.326341 
   78800    232.37396   -281.01502    181563.75   -13334.807    955.87444   -14290.682   -421.54918    401.53756    78.781169    25.255304    16.300194 
   79000    232.20389   -256.47015    181563.75   -13314.534    955.17483   -14269.709   -366.56905    402.73677    78.780527    25.253168    16.290953 
   79200       239.07   -342.00806    181563.75   -13288.334    983.41872   -14271.752   -647.05016    405.38532    78.780372    25.254325    16.291298 
   79400    237.70284   -284.39054    181563.75    -13357.46    977.79488   -14335.255   -438.14771    405.57992    78.778348     25.25657    16.288731 
   79600     237.0306   -391.79773    181563.75   -13319.359    975.02959   -14294.388   -806.34686    403.12891    78.780973    25.259555    16.301284 
   79800    237.68628   -316.51879    181563.75   -13325.256    977.72675   -14302.983    -577.9772    403.43723    78.780631     25.26083    16.291603 
   80000    240.59117   -388.59108    181563.75    -13350.63    989.67607   -14340.306   -818.55485    405.12013    78.782235    25.265765    16.290942 
   80200    244.72767   -481.26405    181563.75   -13314.071    1006.6917   -14320.763   -1131.2295    407.30912    78.782656    25.265814    16.270842 
   80400    237.64432   -432.35662    181563.75   -13310.711    977.55414   -14288.265   -981.47953    409.52165    78.783849     25.26439    16.270099 
   80600    246.30785   -422.73325    181563.75   -13256.309    1013.1918   -14269.501   -915.43297    412.46101    78.786491    25.260657    16.301424 
   80800    245.63547   -286.70973    181563.75   -13298.775    1010.4259   -14309.201   -447.94827     413.2279    78.787841    25.255673    16.284256 
   81000    244.81012   -461.66944    181563.75    -13241.79    1007.0308   -14248.821   -1075.0291    413.71702    78.790806    25.256343       16.266 
   81200    239.33383    -309.4397    181563.75    -13274.98    984.50399   -14259.484   -574.65004    412.90021    78.789476    25.256406    16.282103 
   81400    240.94361    -470.5544    181563.75   -13319.111    991.12586   -14310.237   -1071.9611    417.48368    78.789582    25.253185     16.25379 
   81600    242.55983   -382.93833    181563.75   -13267.989    997.77421   -14265.763   -772.01315    418.00984    78.792113    25.251236    16.250624 
   81800     241.1518    -473.7106    181563.75   -13267.359    991.98225   -14259.342   -1110.8348    421.09985    78.795873    25.249046    16.224332 
   82000    245.02397   -523.60183    181563.75   -13224.206    1007.9105   -14232.116   -1295.9469    421.33719    78.794555    25.248289    16.232441 
   82200    244.91709   -352.48635    181563.75   -13271.159    1007.4708    -14278.63   -656.51783     420.8941    78.792808    25.244731    16.255232 
   82400    237.94872   -460.30592    181563.75   -13313.296    978.80631   -14292.103   -1122.5304     422.6066    78.792855    25.245282    16.255632 
   82600    235.32347   -533.22586    181563.75   -13290.452    968.00728   -14258.459   -1372.0598     424.9249     78.79311    25.247613     16.26132 
   82800    242.38452   -305.07997    181563.75   -13251.873    997.05307   -14248.927   -527.81261    425.62641    78.791552    25.247472    16.299407 
   83000    236.44916   -323.64041    181563.75   -13232.903    972.63785   -14205.541   -591.66548     427.8808    78.792708    25.250032    16.322229 
   83200    239.62548   -277.50689    181563.75   -13240.953    985.70368   -14226.657    -428.2217    428.11423    78.797373    25.250746    16.316208 
   83400     234.6743   -282.15075    181563.75   -13262.937    965.33694   -14228.274   -419.36031    428.72872    78.799029    25.251221    16.279822 
   83600     244.5762   -335.31226    181563.75   -13235.984    1006.0686   -14242.053   -606.75061    429.12614    78.795283    25.252649    16.273865 
   83800    231.98078   -313.98554    181563.75   -13296.783     954.2571    -14251.04   -546.00465    429.64945    78.793683    25.255345    16.284511 
   84000    236.68467    -256.2461    181563.75   -13302.404    973.60662    -14276.01   -337.42595    428.87889    78.794023    25.251893    16.275964 
   84200    237.06525    -268.2289    181563.75   -13315.488    975.17214    -14290.66    -358.8721    432.19671    78.791674    25.247071    16.288731 
   84400    236.31225   -311.92525    181563.75   -13288.249    972.07468   -14260.324   -579.04994    433.38717    78.787757    25.245362    16.268547 
   84600    239.52232   -475.13273    181563.75   -13281.861    985.27933    -14267.14   -1110.5661    433.94709    78.782951    25.242811    16.260953 
   84800    233.10392   -365.36552    181563.75   -13319.696    958.87715   -14278.573   -706.69595     433.2277      78.7865    25.242849    16.265004 
   85000    233.12095   -428.54173    181563.75   -13344.219     958.9472   -14303.166   -939.10166    434.09194    78.788477    25.244207    16.295093 
   85200    251.21846   -448.38194    181563.75   -13259.462    1033.3916   -14292.853   -1066.8074    437.85589    78.787966    25.237253    16.302532 
   85400    239.58402    -376.8274    181563.75   -13331.661    985.53315   -14317.194   -783.98952     441.2938    78.785508     25.23794    16.322682 
   85600    236.50958    -375.4988    181563.75   -13326.429    972.88637   -14299.316   -743.77439    442.19934    78.784239    25.236741    16.338685 
   85800    249.78209   -494.40932    181563.75   -13290.585    1027.4831   -14318.068   -1171.4431    446.82291    78.780564    25.237568    16.356169 
   86000    238.91547   -425.05364    181563.75   -13267.792    982.78305   -14250.575    -961.2555    445.18006     78.77843    25.233169    16.362607 
   86200    240.94195    -273.3625    181563.75     -13304.1      991.119   -14295.219   -429.61997    445.27609    78.779996    25.227108    16.354579 
   86400    237.54211   -338.90386    181563.75   -13293.461    977.13372   -14270.595   -645.72178    449.05343    78.783105    25.222078     16.35552 
   86600    239.70037   -269.49408    181563.75   -13269.925    986.01177   -14255.937   -408.14847    452.79674    78.785237    25.211872    16.359181 
   86800    242.76823   -353.72835    181563.75    -13284.55    998.63143   -14283.182   -696.39429    454.16744    78.789665    25.210413    16.382844 
   87000    228.44328   -464.00798    181563.75   -13320.233    939.70552   -14259.938   -1082.0248    453.85013    78.793427    25.207251    16.379934 
   87200    245.70648   -336.20635    181563.75   -13307.667     1010.718   -14318.385   -665.94375    452.87139     78.79809    25.207176    16.387959 
   87400    234.58913   -219.14121    181563.75   -13320.484    964.98657   -14285.471    -205.1452    450.55434     78.80074    25.203693    16.381684 
   87600    245.64197   -321.20642    181563.75   -13304.029    1010.4526   -14314.482   -539.20734    451.44514    78.802599    25.206057    16.359382 
   87800    233.27387   -246.31272    181563.75   -13332.203    959.57623    -14291.78   -278.59656    449.87176    78.804674    25.202198    16.328396 
   88000    236.66897   -216.24353    181563.75   -13252.857    973.54205   -14226.399   -191.75219    452.63327    78.803906    25.197314    16.325668 
   88200    238.65015   -332.43916    181563.75   -13227.655    981.69167   -14209.347    -622.4677    451.52447    78.803782    25.195031    16.309009 
   88400    239.07354   -490.57904    181563.75   -13290.033    983.43326   -14273.466   -1141.5541    453.04113    78.805618    25.192112    16.322862 
   88600    240.76924   -319.12878    181563.75   -13356.184    990.40857   -14346.593   -552.86511    453.32908    78.807641     25.19121    16.302877 
   88800    239.20653    -463.2495    181563.75   -13377.528    983.98033   -14361.508   -1065.3738    455.67014    78.804156    25.189549    16.302088 
   89000    228.42082   -479.72133    181563.75   -13392.696    939.61314    -14332.31   -1134.5576    457.57027    78.803108    25.192359    16.324442 
   89200     235.2959   -365.42998    181563.75    -13391.69     967.8939   -14359.584   -722.62081    456.08715    78.801017    25.196191    16.308684 
   89400    237.22488   -388.67861    181563.75   -13353.913    975.82878   -14329.742   -846.31554    455.51985    78.800169    25.201074    16.317905 
   89600    232.51571   -365.95416    181563.75   -13404.195    956.45754   -14360.653   -694.34682    457.07198    78.801605    25.206598    16.308035 
   89800     238.6803   -348.43819    181563.75   -13331.921    981.81569   -14313.736   -661.20031    458.95206    78.802777    25.206783     16.31557 
   90000    245.69145   -572.12464    181563.75    -13293.05    1010.6562   -14303.706   -1444.4574    463.65513    78.803327    25.207173    16.333406 
   90200    235.27248    -406.9808    181563.75   -13351.675    967.79754   -14319.472   -882.32617    463.39993    78.803108    25.211692    16.332939 
   90400    230.26594   -538.35217    181563.75   -13391.144    947.20306   -14338.347   -1348.2026    466.74672    78.802756    25.213707    16.320456 
   90600    247.34923   -502.20778    181563.75   -13308.888    1017.4755   -14326.363   -1170.6377    464.66665     78.80135    25.214906    16.347733 
   90800    243.88475   -400.95238    181563.75   -13303.105    1003.2243   -14306.329   -837.96496     467.3866    78.805516     25.22243    16.322248 
   91000    240.59884   -338.94146    181563.75   -13335.689    989.70764   -14325.397   -666.72556    470.37994    78.805292    25.224228    16.327695 
   91200    236.24516   -391.44772    181563.75   -13334.708    971.79869   -14306.507   -843.85701    472.66637    78.803992    25.224285    16.332301 
   91400    234.51279   -297.88392    181563.75   -13363.722    964.67256   -14328.395   -484.68747    472.77272    78.800914    25.226574    16.351925 
   91600    252.76816   -408.91647    181563.75   -13256.292    1039.7664   -14296.059   -920.81346    472.12541    78.802515     25.22757    16.353051 
   91800    235.25019   -275.84748    181563.75   -13274.516    967.70585   -14242.222   -437.14496    471.25655    78.799094    25.230269    16.361717 
   92000    242.83236   -324.29039    181563.75   -13233.593    998.89524   -14232.488   -635.35114    471.46103    78.800238    25.232201    16.354262 
   92200    236.56376   -413.50359    181563.75   -13244.564    973.10925   -14217.673   -929.99449    472.85349    78.801956     25.23332    16.345864 
   92400    242.01488   -371.28011    181563.75   -13195.783    995.53255   -14191.315   -753.53396     474.5478    78.806219    25.236813    16.346991 
   92600    239.24341    -288.9769    181563.75   -13275.138    984.13205    -14259.27   -479.32075    472.19821    78.807358    25.233637    16.331965 
   92800    238.58242   -440.62004    181563.75   -13303.048    981.41305   -14284.461   -1014.4177    473.11282    78.806301    25.234247    16.323119 
   93000    229.15795   -349.79002    181563.75   -13318.266    942.64531   -14260.912   -674.33202    474.28962    78.806149    25.230552    16.341769 
   93200    240.99118   -379.68957    181563.75   -13286.302    991.32153   -14277.623   -788.97934    474.28673     78.80832    25.229239    16.358857 
   93400    232.52377   -199.85745    181563.75   -13295.719     956.4907    -14252.21   -179.43142    473.06324    78.805557    25.226598    16.360296 
   93600    244.75871   -347.39929    181563.75     -13272.6    1006.8193   -14279.419   -708.25505    472.90327    78.804874    25.226337    16.366604 
   93800    242.06074   -248.23757    181563.75   -13214.317    995.72119   -14210.038   -335.23711    475.93444    78.802758    25.227634    16.376918 
   94000    236.96881    -272.2818    181563.75   -13299.864    974.77543   -14274.639   -430.08872    478.30227    78.804695    25.232944    16.372724 
   94200    252.14771   -280.38439    181563.75   -13213.466    1037.2141    -14250.68   -414.75701    477.47425    78.806309    25.232374    16.391252 
   94400    243.33666   -405.04286    181563.75    -13223.41    1000.9697    -14224.38   -856.11318     478.7901    78.802451    25.233065    16.379425 
   94600    243.23028    -374.4146    181563.75    -13239.31    1000.5321   -14239.842   -784.02101     481.3468    78.800421    25.232966    16.387279 
   94800    247.67441   -400.03036    181563.75   -13229.027    1018.8131   -14247.841   -923.19494    479.23593    78.800521    25.232597    16.392028 
   95000    232.22591    -323.5227    181563.75   -13317.277    955.26542   -14272.542    -569.6719    482.30618    78.797386    25.233533    16.372254 
   95200    241.14949   -361.50787    181563.75   -13332.404    991.97274   -14324.377   -688.67266    484.15681    78.800708    25.238128    16.397302 
   95400     236.7553   -318.60805    181563.75   -13333.744    973.89717   -14307.641   -558.62718    484.63639     78.80339    25.246365    16.387312 
   95600    236.15481   -448.38477    181563.75   -13344.635    971.42702   -14316.062   -1033.0604    487.65958    78.804266    25.248709    16.406112 
   95800     237.6049   -602.22243    181563.75   -13330.487    977.39201   -14307.879   -1578.6338    488.35948     78.80388    25.250267    16.396802 
   96000    237.01513   -404.48207    181563.75   -13356.284    974.96596    -14331.25   -855.97046    485.30155    78.804052    25.249699    16.417588 
   96200    233.95439   -601.27722    181563.75   -13357.679    962.37558   -14320.054    -1570.703    486.73067    78.805005    25.246473    16.395241 
   96400    239.34228   -395.33789    181563.75   -13306.362    984.53876   -14290.901   -853.77699    487.63325    78.805779    25.246275    16.394842 
   96600    232.21843    -425.8609    181563.75   -13349.562    955.23466   -14304.796   -977.42488    488.64183    78.803106    25.240029    16.388098 
   96800    243.53522    -531.1815    181563.75   -13268.796    1001.7865   -14270.583   -1339.7281    489.54608    78.802247    25.234695    16.418335 
   97000    243.60555   -432.76304    181563.75   -13296.596    1002.0758   -14298.672   -987.81722    488.69928    78.802817    25.227241    16.403076 
   97200    241.19489   -515.29872    181563.75   -13255.077    992.15949   -14247.236   -1257.1302    490.32098    78.798193    25.226615    16.396824 
   97400     231.9366   -289.59874    181563.75   -13356.636    954.07536   -14310.711   -437.63149    491.90619    78.797279     25.22814    16.376561 
   97600    235.94779   -257.50495    181563.75   -13312.358    970.57546   -14282.933   -339.52421    492.07946     78.79291    25.227654    16.371188 
   97800    241.24711   -572.59486    181563.75   -13303.324    992.37429   -14295.699   -1482.2678    496.42807    78.791798    25.226395    16.371415 
   98000    231.36558   -470.00099    181563.75   -13347.071    951.72646   -14298.797   -1075.0012    495.96204    78.794747    25.228228    16.382329 
   98200    238.90949   -434.32745    181563.75   -13340.892    982.75844   -14323.651   -985.38303    499.76769    78.799289    25.224933    16.367732 
   98400     238.5133   -330.77861    181563.75   -13329.823    981.12871   -14310.952   -605.52218    501.54579    78.798987    25.227767     16.37189 
   98600    241.71647   -192.11188    181563.75   -13310.894    994.30502   -14305.199   -134.95046    503.03933    78.797115    25.231696     16.36274 
   98800     258.2898   -449.51685    181563.75   -13189.385    1062.4797   -14251.864   -1032.5398    511.33641    78.795214     25.23336    16.351004 
   99000    237.57288   -254.57222    181563.75   -13249.887    977.26027   -14227.147   -348.93627    512.55882    78.796912    25.233109    16.363844 
   99200    243.49612    -418.5707    181563.75   -13245.798    1001.6256   -14247.424   -920.75968    512.34895    78.799644    25.235236    16.342484 
   99400    245.52853   -446.97011    181563.75    -13248.28     1009.986   -14258.266   -1075.4845    513.18154    78.797771    25.237108    16.355464 
   99600    240.46255   -404.20222    181563.75   -13236.059    989.14699   -14225.206   -867.41465     510.3907    78.793884    25.237031    16.354072 
   99800    242.95485   -251.62518    181563.75   -13234.103     999.3991   -14233.502    -301.5807    511.50474    78.794589     25.23549    16.361102 
  100000    248.51915   -149.09609    181563.75   -13284.211    1022.2879   -14306.498    79.309638    510.07985    78.795832    25.239029    16.359867 
  100200    244.98547   -294.55116    181563.75   -13215.117    1007.7521   -14222.869   -536.19879    512.83596    78.798808    25.239083    16.349881 
  100400    243.65458   -358.31344    181563.75   -13275.538    1002.2774   -14277.816   -698.53982    517.20821    78.798274    25.236122     16.34458 
  100600    229.46589   -398.43304    181563.75   -13343.388    943.91206     -14287.3   -840.62748    519.58582    78.796366    25.238865    16.340974 
  100800    236.52473   -351.17122    181563.75   -13309.753     972.9487   -14282.702   -663.50172    523.94145    78.795164    25.240264    16.328551 
[...]
 5175800    227.61304   -341.44944    181563.75   -14707.237    936.29032   -15643.527   -569.10992    4437.5175    78.131926    24.818869    16.379325 
 5176000    230.03402   -239.16006    181563.75   -14665.436    946.24907   -15611.685   -227.55564    4435.5624    78.132612    24.819414    16.379519 
 5176200    229.86093   -265.33053    181563.75   -14675.041    945.53704   -15620.578   -310.28954     4437.945    78.132334    24.818416    16.381933 
 5176400    226.03648   -314.12688    181563.75   -14724.728     929.8051   -15654.533   -499.65511     4439.558    78.132715    24.818631    16.381016 
 5176600    229.33288   -206.95513    181563.75   -14677.657    943.36491   -15621.022   -126.00556    4435.4112    78.131299    24.819724    16.384645 
 5176800    232.31689   -200.90765    181563.75   -14698.377    955.63966   -15654.017    -110.3357    4436.4392     78.13119     24.82065    16.389753 
 5177000    224.65439    -253.5268    181563.75   -14706.629    924.11985   -15630.749   -293.06546    4437.4339    78.130427    24.820629    16.387719 
 5177200    228.32782   -236.57288    181563.75   -14662.012    939.23057   -15601.242   -175.50427    4437.7352    78.129483    24.821378    16.387971 
 5177400    219.40504   -171.65051    181563.75   -14684.153    902.52657    -15586.68     35.89302    4436.5381     78.12946    24.820907    16.386438 
 5177600    226.50323   -272.33967    181563.75   -14691.763    931.72507   -15623.488   -354.67766    4435.8735    78.128583    24.821423    16.388741 
 5177800    229.10317   -324.88695    181563.75   -14703.737    942.41998   -15646.157   -569.78566     4440.594    78.127721    24.822128     16.38794 
 5178000    221.35413   -169.61045    181563.75   -14693.935    910.54416   -15604.479    25.545228    4436.5476    78.126501    24.822246    16.378304 
 5178200    225.84574   -157.91594    181563.75   -14709.813    929.02049   -15638.833     73.79839    4433.5514    78.125405    24.821548    16.378845 
 5178400    225.93048   -236.38199    181563.75    -14681.73    929.36906     -15611.1    -205.7641    4438.0781    78.124965    24.823138     16.38186 
 5178600    227.73672   -298.44217    181563.75   -14675.015    936.79907   -15611.814   -418.08749     4438.241    78.123133    24.824401    16.383241 
 5178800    226.51588   -268.75065    181563.75   -14646.147    931.77714   -15577.925   -353.55093     4434.403    78.123475    24.824365    16.384464 
 5179000    234.63761   -183.45968    181563.75   -14644.433    965.18601   -15609.619   -30.605057    4438.5469    78.123033    24.824459    16.379418 
 5179200    220.44609   -282.14463    181563.75   -14681.086    906.80894   -15587.894    -308.1284    4437.0391    78.121816    24.824334    16.382629 
 5179400    229.71807    -307.0115    181563.75   -14690.282    944.94939   -15635.231   -465.60556    4436.7609    78.121957    24.824923     16.37671 
 5179600    220.89725   -169.06657    181563.75   -14712.022     908.6648   -15620.687    10.063146    4436.1805     78.12116    24.824477    16.382792 
 5179800    223.75692   -237.89998    181563.75   -14670.317    920.42809   -15590.745   -215.23642    4435.3092    78.122173     24.82565    16.387192 
 5180000    221.85619   -314.44681    181563.75   -14700.083    912.60941   -15612.692   -486.56502    4436.1915    78.123919    24.826119      16.3897 
 5180200    223.08673   -185.48021    181563.75   -14682.869    917.67126    -15600.54   -19.920706    4435.3696    78.123842    24.826931     16.39043 
 5180400    230.14439   -165.24154    181563.75   -14660.701    946.70308   -15607.404    57.048468    4434.9179    78.122958    24.826963    16.379591 
 5180600    218.32138   -317.38984    181563.75    -14723.66    898.06889   -15621.729   -524.87879    4439.1541    78.123277    24.827374    16.386354 
 5180800    222.68099    -279.7685    181563.75   -14696.433    916.00225   -15612.436     -380.178    4436.7728    78.124261     24.82704      16.3826 
 5181000    219.61554   -141.75072    181563.75   -14698.899    903.39246   -15602.292    129.19423    4433.5376    78.123741    24.826625    16.371978 
 5181200    220.01696    -271.4238    181563.75    -14671.35     905.0437   -15576.394   -347.51015    4438.3228    78.123701    24.828494      16.3815 
 5181400    226.25623   -355.61247    181563.75   -14660.005    930.70906   -15590.714   -642.31956    4435.8333    78.123078    24.829407    16.379898 
 5181600    230.66426   -240.49632    181563.75   -14666.012    948.84154   -15614.854   -268.76175    4433.9985    78.122016    24.829427    16.381752 
 5181800     227.0553   -186.52754    181563.75   -14637.363    933.99604   -15571.359   -55.352743    4434.8533    78.121738    24.831498    16.380269 
 5182000    217.65545   -282.14965    181563.75    -14703.35    895.32957   -15598.679   -345.10043    4437.4102     78.12148    24.832135    16.378343 
 5182200     214.3413   -331.77129    181563.75   -14776.815    881.69678   -15658.512    -544.0782    4436.2077    78.121321    24.834801    16.380814 
 5182400    223.08555   -260.60747    181563.75   -14673.462    917.66639   -15591.129   -345.41449       4433.9    78.121196    24.837137    16.376286 
 5182600    230.35073   -256.24514    181563.75   -14656.773    947.55184   -15604.325   -299.39816    4436.5044    78.120002    24.838974    16.372848 
 5182800    226.13408   -298.41171    181563.75   -14687.104    930.20656   -15617.311   -432.68434    4437.7429    78.119849    24.841122    16.371704 
 5183000    229.14812   -250.37998    181563.75   -14670.225     942.6049   -15612.829   -207.13131     4434.675    78.119761    24.843171    16.374596 
 5183200    236.93385   -191.63418    181563.75   -14639.144    974.63163   -15613.776   -64.022804    4433.4446    78.120142    24.844579    16.376315 
 5183400    225.68412   -330.79811    181563.75   -14698.828    928.35565   -15627.183   -603.33347    4435.2786    78.119584    24.845141    16.375246 
 5183600     223.9094   -324.61266    181563.75    -14677.69    921.05531   -15598.746   -489.34521    4435.0691    78.118484    24.844679    16.386707 
 5183800    221.84624   -222.28377    181563.75    -14708.92    912.56849   -15621.488   -164.49744    4433.4695    78.118245    24.843675     16.37681 
 5184000      226.377   -223.74016    181563.75   -14694.616    931.20583   -15625.822   -172.33539    4431.7256    78.117553    24.843885    16.378067 
 5184200    220.78029   -253.80761    181563.75   -14684.597    908.18367   -15592.781   -292.89799    4434.3212    78.117709    24.843642    16.380457 
 5184400    226.37716   -273.39153    181563.75   -14700.955    931.20649   -15632.162   -327.26355    4434.4548    78.118117    24.843166    16.384714 
 5184600    227.91509   -142.11723    181563.75   -14676.697    937.53279   -15614.229    105.81008    4431.4549     78.11769    24.842919    16.376022 
 5184800    232.89912   -277.24053    181563.75    -14635.43    958.03468   -15593.465   -348.87251    4434.6889    78.117906     24.84302    16.383374 
 5185000    234.74001   -336.37474    181563.75   -14634.947    965.60723   -15600.554   -581.28143    4436.0457    78.116902     24.84357    16.373863 
 5185200     232.4479   -247.15154    181563.75   -14687.131    956.17859    -15643.31    -289.2769    4432.0448    78.117792    24.843941     16.37887 
 5185400    228.59747   -217.72691    181563.75   -14692.984    940.33978   -15633.324   -150.73902    4432.4841    78.117547    24.843645     16.37733 
 5185600    215.79518   -310.60088    181563.75   -14745.703    887.67732    -15633.38   -486.10142    4434.7146    78.118315    24.844097    16.376596 
 5185800    221.03655   -326.42127    181563.75   -14689.916    909.23782   -15599.154   -557.82569    4435.5505    78.120112    24.842915    16.380929 
 5186000    227.46272   -163.35665    181563.75   -14658.869    935.67197   -15594.541    67.406503    4433.1925     78.12159    24.844009     16.38026 
 5186200    233.64693    -192.6121    181563.75   -14644.744    961.11081   -15605.855   -30.369761    4432.6058    78.121675    24.845755    16.374023 
 5186400    219.28975   -280.06872    181563.75   -14712.114    902.05231   -15614.167   -362.39878    4434.9429    78.122296    24.844411    16.375133 
 5186600    221.62055    -364.3928    181563.75   -14700.207    911.64011   -15611.847   -679.27912    4436.4947     78.12033    24.845727    16.377313 
 5186800    236.36084   -219.10835    181563.75   -14665.673    972.27453   -15637.948   -150.66093    4433.0287    78.120763    24.846714    16.374824 
 5187000    228.68581   -212.76581    181563.75   -14704.047    940.70316    -15644.75   -99.835345    4433.1881    78.121414    24.846175    16.373234 
 5187200    221.80975   -283.88526    181563.75   -14681.168    912.41837   -15593.587   -377.42753    4435.7979    78.121364    24.847541    16.378375 
 5187400    221.52758   -175.92531    181563.75   -14732.181    911.25764   -15643.439  -0.63158986    4432.9347    78.121299    24.845884    16.374173 
 5187600    222.44545   -288.75393    181563.75   -14708.936    915.03334   -15623.969   -437.46029    4432.3199    78.121483     24.84552    16.375555 
 5187800    226.09494   -333.12965    181563.75   -14679.788    930.04557   -15609.834   -547.83481    4435.1064    78.122313    24.846334    16.374508 
 5188000    216.18886   -308.74644    181563.75   -14706.176    889.29675   -15595.473   -439.94292    4433.8475     78.12331     24.84794    16.374998 
 5188200    225.87739   -163.71329    181563.75   -14679.536    929.15066   -15608.687    48.008169    4431.8415    78.125644    24.848543     16.37371 
 5188400    217.19942   -298.37433    181563.75   -14689.209     893.4537   -15582.663   -473.81283    4434.5147    78.126498    24.847668    16.374107 
 5188600    219.66816   -333.41288    181563.75   -14707.166    903.60888   -15610.774   -572.15935    4433.9544    78.125904    24.846813    16.382116 
 5188800    228.31393   -198.51657    181563.75   -14673.208    939.17341   -15612.381   -46.463439    4434.9026    78.125921    24.848794    16.381447 
 5189000    229.01094   -251.31838    181563.75   -14691.593     942.0406   -15633.633   -245.14599    4433.8183    78.125777    24.848981    16.375773 
 5189200    225.92115   -284.54804    181563.75   -14677.448     929.3307   -15606.779   -382.37119    4433.2509    78.124226    24.848337     16.37954 
 5189400    225.85763   -288.98454    181563.75   -14694.846    929.06941   -15623.915   -382.32904    4435.7713    78.125441    24.848366    16.382574 
 5189600    222.37318   -241.72629    181563.75   -14713.415    914.73603   -15628.152   -247.88679    4431.9209    78.125708    24.849002    16.379003 
 5189800    220.75785   -239.71883    181563.75   -14709.291    908.09137   -15617.383   -226.79704    4432.7224    78.125644     24.84911    16.376293 
 5190000    228.15023   -276.60696    181563.75    -14700.96    938.50004    -15639.46   -349.77198    4435.6739    78.125137    24.849841    16.381749 
 5190200    226.56059   -285.73109    181563.75   -14723.926    931.96105   -15655.888   -367.96038    4431.2601    78.125879    24.850454    16.382379 
 5190400    224.33216   -279.75295    181563.75   -14687.456    922.79436    -15610.25   -375.08076    4432.9448    78.126301    24.851298    16.380546 
 5190600    232.55175   -257.19609    181563.75   -14668.313    956.60578   -15624.919   -265.94989    4434.1736    78.126438    24.851618    16.382339 
 5190800    224.65799   -236.80431    181563.75   -14692.415    924.13465    -15616.55   -215.67028    4432.4522    78.124778     24.85216    16.384221 
 5191000    222.15496   -316.34209    181563.75   -14741.475    913.83838   -15655.313   -495.69184    4434.8993    78.124418    24.851844    16.388424 
 5191200    222.67203   -210.42063    181563.75   -14719.796    915.96539   -15635.761   -112.05652     4430.673    78.124673    24.851582    16.384277 
 5191400    228.79981     -162.199    181563.75   -14704.278    941.17211    -15645.45    113.57992    4431.4597    78.122167    24.851507    16.381384 
 5191600     222.4645   -301.04968    181563.75   -14697.923    915.11169   -15613.035   -468.41127    4433.3096    78.122128    24.852862    16.383144 
 5191800    226.82394   -305.49044    181563.75   -14718.861    933.04432   -15651.905     -444.555    4432.9861    78.121485     24.85426    16.382679 
 5192000    232.86409   -236.56853    181563.75   -14681.744    957.89058   -15639.635   -222.61226    4434.7282    78.120913     24.85411    16.385824 
 5192200    231.97441   -230.00574    181563.75   -14631.397     954.2309   -15585.628   -201.34148    4432.0992    78.119833    24.855398    16.379395 
 5192400    229.36157   -260.36795    181563.75   -14626.446    943.48293   -15569.929   -325.06204    4432.2337    78.118292    24.856084    16.379629 
 5192600    220.99316   -241.80846    181563.75   -14699.247    909.05932   -15608.306    -248.7134    4435.2796    78.117424    24.856006    16.379441 
 5192800    225.31556   -222.33892    181563.75   -14717.703     926.8396   -15644.543   -179.99153    4430.5908    78.118343    24.857224    16.386492 
 5193000    230.37186   -289.17269    181563.75   -14697.566    947.63875   -15645.205   -422.39348    4433.9019    78.117184    24.857742    16.380304 
 5193200     225.3397   -254.57053    181563.75   -14687.926     926.9389   -15614.864   -271.92895    4435.1424    78.116246    24.858399    16.378365 
 5193400    228.55207   -244.21208    181563.75   -14756.359    940.15302   -15696.512   -241.04364    4430.7039    78.115095    24.857101    16.377009 
 5193600    229.57535   -319.45928    181563.75    -14693.22    944.36232   -15637.582   -528.40862     4434.178    78.114157    24.857199    16.384747 
 5193800    225.71373   -272.21266    181563.75   -14722.081    928.47748   -15650.558   -326.73232    4433.4908    78.113891     24.85801    16.382258 
 5194000    228.08659    -272.0645    181563.75   -14671.095    938.23826   -15609.333   -339.83767    4430.7763    78.113648    24.857516    16.388136 
 5194200     224.7012   -165.64529    181563.75   -14692.229     924.3124   -15616.541    48.726238    4433.1992    78.113258    24.856736    16.387442 
 5194400    225.65019   -222.47893    181563.75   -14657.078    928.21607   -15585.294   -159.09538       4432.4    78.114348    24.856911    16.386528 
 5194600    217.57506   -271.23198    181563.75   -14700.555    894.99891   -15595.554   -330.65765    4434.0196    78.113393    24.857262    16.389717 
 5194800    230.79025   -259.66908    181563.75   -14665.817    949.35982   -15615.177    -303.0609    4434.2925    78.111894    24.858933    16.382005 
 5195000    228.97951   -251.27352    181563.75    -14673.54    941.91129   -15615.452   -273.04281    4431.6698    78.111274    24.858517    16.386883 
 5195200    215.87483   -306.47425    181563.75   -14718.319    888.00497   -15606.324   -456.29991    4433.7625    78.110254    24.859942     16.38744 
 5195400    229.00042   -289.61172    181563.75   -14690.906    941.99734   -15632.903   -409.81597    4434.5814    78.109229    24.861106    16.390024 
 5195600    228.34305    -302.0073    181563.75   -14687.729    939.29322   -15627.023   -467.13035    4431.7888    78.108756    24.862823    16.385373 
 5195800    226.15246   -257.94894    181563.75   -14698.033    930.28218   -15628.315   -307.95915    4435.3255    78.108835    24.863898    16.388062 
 5196000    229.65624   -266.94597    181563.75   -14654.368    944.69505   -15599.063   -308.20271    4435.5762    78.108177     24.86278    16.385162 
 5196200    219.59045   -178.78403    181563.75   -14678.892    903.28924   -15582.182    29.599532    4431.1199    78.107481    24.861508    16.390139 
 5196400    235.42366   -241.94497    181563.75   -14626.968    968.41942   -15595.387   -284.36949    4435.3566     78.10636    24.860581    16.384589 
 5196600    219.98644   -251.09452    181563.75   -14702.652    904.91817    -15607.57   -286.86676    4432.9273    78.106125     24.86015    16.388496 
 5196800    230.83757   -280.86616    181563.75   -14690.649    949.55446   -15640.203   -410.15238    4430.8521    78.106665     24.86044    16.392473 
 5197000    229.45561   -227.24776    181563.75   -14670.007    943.86975   -15613.876   -174.18954    4434.0386     78.10559    24.860941    16.387703 
 5197200    230.90131   -221.71615    181563.75   -14670.935    949.81665   -15620.752    -130.0709    4432.5781    78.105278    24.859832    16.386314 
 5197400    235.26735   -274.78678    181563.75   -14614.119    967.77644   -15581.895   -353.93177    4433.0297    78.105177      24.8579    16.387148 
 5197600    225.96007   -279.65538    181563.75   -14652.502     929.4908   -15581.993    -380.1527    4436.7032    78.105393    24.857449    16.377747 
 5197800    230.32298   -261.52492    181563.75   -14655.071    947.43768   -15602.509   -327.18082    4434.9394     78.10466    24.857013    16.384763 
 5198000    234.06639   -256.24684    181563.75   -14631.024    962.83628    -15593.86   -301.18647    4433.1671    78.104058    24.856368    16.385508 
 5198200    227.23901   -162.63591    181563.75   -14664.685    934.75172   -15599.436    44.233168    4431.0481    78.104101    24.856713    16.393404 
 5198400    227.17079   -285.57778    181563.75   -14691.118    934.47112    -15625.59   -415.42417    4431.1289    78.103513    24.856414    16.386003 
 5198600    224.69789   -286.86877    181563.75   -14679.843    924.29877   -15604.142   -370.93108    4433.5587     78.10286    24.855212    16.389517 
 5198800     222.4744   -296.87024    181563.75   -14731.087    915.15242    -15646.24   -436.43236    4433.8136    78.102706    24.854538    16.391114 
 5199000    234.10376   -189.70669    181563.75   -14701.615       962.99   -15664.605   -43.268806    4430.2445    78.103484    24.853636    16.395355 
 5199200    228.38675   -224.35529    181563.75    -14700.11    939.47298   -15639.583   -132.47534    4434.8081    78.105094    24.852261    16.391363 
 5199400     222.9299   -312.45877    181563.75   -14728.384    917.02612    -15645.41    -473.7296    4434.1604    78.105339    24.850344    16.396223 
 5199600    224.84771    -165.2238    181563.75    -14730.51    924.91508   -15655.425    51.711425    4431.7723    78.105801    24.847301     16.39422 
 5199800    229.81756   -254.39593    181563.75   -14674.468    945.35866   -15619.827   -295.31429    4431.9336    78.105953    24.847314     16.39053 
 5200000    219.38762   -334.73684    181563.75    -14671.71    902.45489   -15574.164   -570.30631     4435.569    78.106164    24.845841    16.393197 
Loop time of 7705.35 on 100 procs for 5200000 steps with 9253 atoms

Performance: 583.076 ns/day, 0.041 hours/ns, 674.856 timesteps/s
97.7% CPU use with 100 MPI tasks x no OpenMP threads

MPI task timing breakdown:
Section |  min time  |  avg time  |  max time  |%varavg| %total
---------------------------------------------------------------
Pair    | 0.47598    | 2073.8     | 6539.1     |5042.6 | 26.91
Neigh   | 4.4717     | 142.63     | 340.53     | 967.3 |  1.85
Comm    | 110.98     | 1541.2     | 5398.3     |3977.3 | 20.00
Output  | 85.668     | 85.771     | 88.456     |   2.9 |  1.11
Modify  | 125.97     | 3793.3     | 7443.9     |5084.9 | 49.23
Other   |            | 68.66      |            |       |  0.89

Nlocal:    92.53 ave 188 max 0 min
Histogram: 30 0 10 10 0 0 0 4 33 13
Nghost:    793.69 ave 1097 max 579 min
Histogram: 24 6 0 23 15 2 4 15 1 10
Neighs:    0 ave 0 max 0 min
Histogram: 100 0 0 0 0 0 0 0 0 0
FullNghs:  9928.2 ave 22937 max 0 min
Histogram: 35 15 0 0 0 0 0 24 21 5

Total # of neighbors = 992820
Ave neighs/atom = 107.297
Neighbor list builds = 512667
Dangerous builds = 0
write_data 		${DIR}/data.${NAME}_run
write_data 		run_29/data.${NAME}_run
write_data 		run_29/data.ibeam_cooling_29_run
Total wall time: 2:08:41
