
### Dimensions ###
variable Z_G equal 10.062000000000001
variable Z_W equal 23.803019087

variable	XDIM string 78.752
variable 	YDIM string 80.86108639999017


### IMPORT ATOMS ###
read_data ../Box_Setup/data.Ibeam_240K
Reading data file ...
  orthogonal box = (0.0000000 0.0000000 0.0000000) to (68.908000 85.848302 27.975384)
  8 by 8 by 2 MPI processor grid
  reading atoms ...
  8493 atoms
  reading velocities ...
  8493 velocities
  read_data CPU = 0.022 seconds
group water type 2
1689 atoms in group water
group graphite type 1
6804 atoms in group graphite


# Define potential
#
pair_style          sw
pair_coeff * * MLC_e.sw C mW

# Add velocity/set timestep
#

fix		1 graphite setforce 0.0 0.0 0.0
velocity 	graphite set 0.0 0.0 0.0
velocity            water create ${START_TEMP} ${SEED} rot yes dist gaussian
velocity            water create 240 ${SEED} rot yes dist gaussian
velocity            water create 240 4013 rot yes dist gaussian
timestep            5.0

# Define output
#
compute 1 water msd
compute 2 water temp


thermo	            100
thermo_style custom step c_2 press vol etotal ke pe c_1[4] density

# Neighbor lists
#
neigh_modify        delay 0 every 1 check yes


# Set fixes
#
fix                 2 water momentum 10 linear 1 1 1 rescale
fix                 3 all nve
fix                 4 water temp/csvr ${START_TEMP} ${START_TEMP} 500.0 928347
fix                 4 water temp/csvr 240 ${START_TEMP} 500.0 928347
fix                 4 water temp/csvr 240 240 500.0 928347

# Run 0.05 ns equilibration
#
dump                1 all custom 100 ${DIR}/eq.${NAME}.dump id type x y z vx vy vz
dump                1 all custom 100 run_1/eq.${NAME}.dump id type x y z vx vy vz
dump                1 all custom 100 run_1/eq.ibeam_cooling_1.dump id type x y z vx vy vz
run                 10000
Neighbor list info ...
  update every 1 steps, delay 0 steps, check yes
  max neighbors/atom: 2000, page size: 100000
  master list distance cutoff = 6.6747184
  ghost atom cutoff = 6.6747184
  binsize = 3.3373592, bins = 21 26 9
  1 neighbor lists, perpetual/occasional/extra = 1 0 0
  (1) pair sw, perpetual
      attributes: full, newton on
      pair build: full/bin/atomonly
      stencil: full/bin/3d
      bin: standard
Per MPI rank memory allocation (min/avg/max) = 3.603 | 4.507 | 4.728 Mbytes
Step c_2 Press Volume TotEng KinEng PotEng c_1[4] Density 
       0          240   -298.97748    165492.15   -16025.669    1207.5858   -17233.255            0    1.1252403 
     100    247.40484   -429.02216    165492.15   -15996.455     1244.844   -17241.299   0.85534781    1.1252403 
     200    241.75127   -466.24399    165492.15   -16040.545    1216.3975   -17256.942    1.3770968    1.1252403 
     300    246.85303   -381.50389    165492.15   -16032.455    1242.0675   -17274.522    1.9947053    1.1252403 
     400    231.46655   -462.98663    165492.15    -16052.23    1164.6488   -17216.879    2.6103576    1.1252403 
     500    238.88864   -471.73141    165492.15   -16063.458    1201.9938   -17265.452    2.8770592    1.1252403 
     600    231.54014   -480.87149    165492.15   -16160.667    1165.0191   -17325.686    3.1577137    1.1252403 
     700    231.33652   -379.81524    165492.15   -16147.288    1163.9946   -17311.282    3.5067666    1.1252403 
     800    233.38685   -535.21824    165492.15   -16186.601     1174.311   -17360.912    3.7652906    1.1252403 
     900    235.24409   -562.96637    165492.15   -16157.703    1183.6559   -17341.359    3.9130744    1.1252403 
    1000    243.53813   -382.20047    165492.15   -16119.162    1225.3882    -17344.55    4.3868372    1.1252403 
    1100    229.80919   -496.45688    165492.15   -16127.297    1156.3096   -17283.607     4.927927    1.1252403 
    1200    233.24588   -560.23881    165492.15   -16171.627    1173.6017   -17345.229    5.3193992    1.1252403 
    1300    240.45708    -668.3215    165492.15   -16132.586    1209.8856   -17342.472    5.6698256    1.1252403 
    1400    246.27316   -561.75272    165492.15   -16079.515    1239.1498   -17318.664    5.8567019    1.1252403 
    1500    242.26395   -474.44443    165492.15   -16105.634    1218.9771   -17324.611    6.0885899    1.1252403 
    1600    238.91674   -505.76202    165492.15   -16099.817    1202.1352   -17301.952     6.477625    1.1252403 
    1700    242.83959   -745.41729    165492.15   -16127.878    1221.8734   -17349.752     6.944575    1.1252403 
    1800    234.57674   -465.77545    165492.15    -16135.73    1180.2981   -17316.028    7.3395276    1.1252403 
    1900    247.13807   -403.85322    165492.15   -16059.273    1243.5017   -17302.774     7.537417    1.1252403 
    2000    243.43731   -687.62689    165492.15   -16047.847     1224.881   -17272.728    7.9571018    1.1252403 
    2100    238.68972   -554.32738    165492.15   -16041.752    1200.9929   -17242.745    8.3478887    1.1252403 
    2200    249.91694   -438.93253    165492.15   -16036.937    1257.4839   -17294.421    8.4646268    1.1252403 
    2300    243.29964   -408.98758    165492.15    -16081.54    1224.1882   -17305.729    8.7022656    1.1252403 
    2400    242.27612   -582.14668    165492.15   -16075.656    1219.0383   -17294.695    9.1588774    1.1252403 
    2500    249.39677   -689.66591    165492.15   -16063.621    1254.8666   -17318.487    9.3934995    1.1252403 
    2600    236.23577   -478.05191    165492.15   -16097.548    1188.6456   -17286.194    9.6126417    1.1252403 
    2700    241.60321   -428.58862    165492.15   -16074.436    1215.6525   -17290.088    10.016541    1.1252403 
    2800    248.10736   -462.31325    165492.15   -16089.165    1248.3788   -17337.544    10.346686    1.1252403 
    2900    237.23787   -452.10509    165492.15   -16151.736    1193.6878   -17345.424    10.498946    1.1252403 
    3000    230.30047   -292.30945    165492.15    -16168.14    1158.7815   -17326.921    10.415563    1.1252403 
    3100    237.79604   -552.64366    165492.15   -16166.613    1196.4963   -17363.109    10.821215    1.1252403 
    3200    226.40822   -486.70017    165492.15   -16165.361    1139.1973   -17304.559    11.101187    1.1252403 
    3300    237.70613    -467.4669    165492.15   -16134.732    1196.0439   -17330.776    11.421996    1.1252403 
    3400    239.85894   -595.44173    165492.15   -16131.323     1206.876   -17338.199    11.726154    1.1252403 
    3500    239.87312    -481.3749    165492.15   -16126.951    1206.9474   -17333.898    12.076515    1.1252403 
    3600     235.3141   -532.11779    165492.15   -16106.744    1184.0082   -17290.752    12.407505    1.1252403 
    3700    236.77747   -423.10847    165492.15   -16115.674    1191.3713   -17307.046    12.669616    1.1252403 
    3800    239.31419   -450.45661    165492.15   -16094.133     1204.135   -17298.268    12.969611    1.1252403 
    3900    242.71119   -344.84382    165492.15   -16111.399    1221.2274   -17332.626    13.329797    1.1252403 
    4000    240.37098   -489.47198    165492.15   -16142.392    1209.4524   -17351.844     13.40793    1.1252403 
    4100    238.39379   -606.96169    165492.15   -16117.352     1199.504   -17316.856     13.61656    1.1252403 
    4200    239.23707   -508.52782    165492.15   -16093.081     1203.747   -17296.828    14.076775    1.1252403 
    4300     247.7599    -565.1712    165492.15   -16011.401    1246.6306   -17258.032    14.378266    1.1252403 
    4400    244.98007   -455.21124    165492.15   -16013.971    1232.6435   -17246.615    14.731307    1.1252403 
    4500     245.8876   -630.28058    165492.15   -16065.051    1237.2099   -17302.261    15.064687    1.1252403 
    4600    241.07377   -350.33375    165492.15   -16086.132    1212.9886    -17299.12    15.109861    1.1252403 
    4700    241.58623   -644.09272    165492.15   -16106.324    1215.5671   -17321.891    15.624775    1.1252403 
    4800    239.09383   -388.72947    165492.15   -16067.752    1203.0263   -17270.778    15.877051    1.1252403 
    4900    240.43135    -508.6548    165492.15   -16070.288    1209.7561   -17280.045    16.062829    1.1252403 
    5000    235.51574   -423.86246    165492.15   -16099.635    1185.0228   -17284.658    16.265493    1.1252403 
    5100    236.34533   -392.63476    165492.15   -16125.034    1189.1969    -17314.23    16.320772    1.1252403 
    5200     231.9932   -536.14407    165492.15   -16091.781    1167.2987    -17259.08    16.383692    1.1252403 
    5300    234.04072   -446.86902    165492.15   -16145.828     1177.601   -17323.429    16.518954    1.1252403 
    5400    237.18951   -341.79234    165492.15   -16115.428    1193.4445   -17308.872    16.730398    1.1252403 
    5500    236.71361    -473.6873    165492.15   -16144.996      1191.05   -17336.046    16.630612    1.1252403 
    5600    231.95954   -560.04864    165492.15    -16151.22    1167.1293   -17318.349    16.921481    1.1252403 
    5700    238.53741   -387.38681    165492.15   -16111.243    1200.2266    -17311.47      17.0499    1.1252403 
    5800    241.61918    -646.4674    165492.15   -16023.292    1215.7328   -17239.025    17.097859    1.1252403 
    5900    241.93689   -573.74564    165492.15   -16058.031    1217.3315   -17275.362    17.443057    1.1252403 
    6000    235.01501   -356.40745    165492.15    -16149.52    1182.5032   -17332.024    17.389158    1.1252403 
    6100    236.68139   -465.35989    165492.15   -16153.423    1190.8878   -17344.311    17.553785    1.1252403 
    6200    230.47217   -463.62237    165492.15   -16115.327    1159.6455   -17274.973    17.978997    1.1252403 
    6300    235.06507   -455.71278    165492.15   -16070.331    1182.7551   -17253.086    18.250526    1.1252403 
    6400    243.36754   -498.27433    165492.15   -16056.855    1224.5299   -17281.385    18.437906    1.1252403 
    6500     243.2437   -602.74284    165492.15   -16088.166    1223.9068   -17312.073    18.758245    1.1252403 
    6600    233.57412   -461.56177    165492.15   -16135.226    1175.2533   -17310.479    19.201623    1.1252403 
    6700    228.31211   -522.32109    165492.15   -16171.683    1148.7769    -17320.46    19.396392    1.1252403 
    6800    236.68967   -555.02656    165492.15   -16131.699    1190.9295   -17322.629    19.846352    1.1252403 
    6900    237.89912   -631.38569    165492.15   -16153.564     1197.015   -17350.579    20.246655    1.1252403 
    7000     232.1366   -263.14123    165492.15   -16159.148    1168.0202   -17327.169     20.72661    1.1252403 
    7100    247.47888   -241.89955    165492.15   -16088.954    1245.2166    -17334.17    21.301804    1.1252403 
    7200    240.15854   -601.72108    165492.15   -16087.436    1208.3835   -17295.819    21.847801    1.1252403 
    7300    241.65394   -534.17172    165492.15    -16141.28    1215.9077   -17357.187    21.791024    1.1252403 
    7400    232.56452   -371.65657    165492.15   -16129.544    1170.1734   -17299.717    22.117994    1.1252403 
    7500    233.12146   -447.68074    165492.15   -16152.605    1172.9756   -17325.581    22.148988    1.1252403 
    7600    234.94552   -585.70639    165492.15   -16160.594    1182.1536   -17342.748    22.399918    1.1252403 
    7700    229.05068   -481.39087    165492.15   -16147.969    1152.4931   -17300.462    22.682458    1.1252403 
    7800    237.94956   -559.18947    165492.15   -16102.178    1197.2688   -17299.447    23.012163    1.1252403 
    7900    241.79652   -684.83362    165492.15   -16086.776    1216.6251   -17303.401    23.212719    1.1252403 
    8000    240.36064   -530.23605    165492.15   -16073.953    1209.4004   -17283.354    23.285529    1.1252403 
    8100    235.04668   -432.93591    165492.15   -16092.856    1182.6626   -17275.519     23.90683    1.1252403 
    8200    234.26135   -598.27696    165492.15   -16115.801    1178.7111   -17294.512      23.8228    1.1252403 
    8300     236.3851   -633.88786    165492.15   -16105.097     1189.397   -17294.494    24.516317    1.1252403 
    8400    239.93443   -410.30677    165492.15   -16099.887    1207.2558   -17307.143    24.829274    1.1252403 
    8500    233.88409   -405.25227    165492.15   -16133.574    1176.8129   -17310.387     25.04291    1.1252403 
    8600    234.39256   -380.97017    165492.15   -16094.323    1179.3713   -17273.694    25.361344    1.1252403 
    8700    234.15954   -421.01469    165492.15    -16146.63    1178.1989   -17324.829    25.597312    1.1252403 
    8800    242.01487   -589.59494    165492.15   -16089.433    1217.7238   -17307.157    26.095344    1.1252403 
    8900    235.85875   -463.44486    165492.15   -16107.609    1186.7486   -17294.357    26.466822    1.1252403 
    9000    240.56415   -460.21526    165492.15   -16059.406    1210.4243   -17269.831    26.844743    1.1252403 
    9100    240.18568   -575.49122    165492.15   -16038.723      1208.52   -17247.243    27.636669    1.1252403 
    9200    231.24299   -368.05341    165492.15   -16075.013    1163.5239   -17238.537    28.131399    1.1252403 
    9300    233.81345   -464.02674    165492.15   -16090.679    1176.4575   -17267.136    28.200275    1.1252403 
    9400    232.50716   -530.18961    165492.15   -16118.012    1169.8847   -17287.897    28.289884    1.1252403 
    9500    238.38708   -570.78116    165492.15    -16081.46    1199.4702    -17280.93    28.559304    1.1252403 
    9600    232.47876   -473.28087    165492.15   -16134.426    1169.7418   -17304.167    28.796045    1.1252403 
    9700     232.9985   -686.42942    165492.15   -16090.629    1172.3569   -17262.985    29.057373    1.1252403 
    9800    236.27202   -475.56935    165492.15   -16090.986     1188.828   -17279.814    29.001448    1.1252403 
    9900    238.79045   -520.66898    165492.15    -16063.79    1201.4998    -17265.29    29.679505    1.1252403 
   10000    251.43388   -527.43079    165492.15   -15992.953    1265.1165    -17258.07    30.040065    1.1252403 
Loop time of 5.97201 on 128 procs for 10000 steps with 8493 atoms

Performance: 723.374 ns/day, 0.033 hours/ns, 1674.477 timesteps/s
96.7% CPU use with 128 MPI tasks x no OpenMP threads

MPI task timing breakdown:
Section |  min time  |  avg time  |  max time  |%varavg| %total
---------------------------------------------------------------
Pair    | 0.00073171 | 1.8537     | 4.4369     | 116.8 | 31.04
Neigh   | 0.0042007  | 0.13354    | 0.30899    |  27.8 |  2.24
Comm    | 0.20775    | 1.6705     | 4.024      |  80.0 | 27.97
Output  | 0.16155    | 0.16165    | 0.1626     |   0.0 |  2.71
Modify  | 0.26241    | 2.0767     | 5.5244     | 133.1 | 34.77
Other   |            | 0.07596    |            |       |  1.27

Nlocal:        66.3516 ave         143 max           0 min
Histogram: 32 3 15 14 0 0 6 33 19 6
Nghost:        699.805 ave         918 max         491 min
Histogram: 17 4 17 14 12 16 11 21 2 14
Neighs:         0.00000 ave           0 max           0 min
Histogram: 128 0 0 0 0 0 0 0 0 0
FullNghs:      6948.98 ave       16646 max           0 min
Histogram: 38 26 0 0 0 0 14 30 11 9

Total # of neighbors = 889470
Ave neighs/atom = 104.72978
Neighbor list builds = 567
Dangerous builds = 0
write_data 	    ${DIR}/data.${NAME}_eq
write_data 	    run_1/data.${NAME}_eq
write_data 	    run_1/data.ibeam_cooling_1_eq
System init for write_data ...

undump              1
unfix               4



################################################
#######         Run Simulation         #########
################################################

reset_timestep      0
timestep	    10.0
log                 ${DIR}/log.run_${NAME}
log                 run_1/log.run_${NAME}
log                 run_1/log.run_ibeam_cooling_1
