LAMMPS data file via write_data, version 29 Sep 2021, timestep = 6000000

8493 atoms
2 atom types

0 68.908 xlo xhi
0 85.84830153377978 ylo yhi
0 27.975383993793386 zlo zhi

Masses

1 12.01
2 18.015

Atoms # atomic

1 1 0 2.8417180249513345 1.677 0 0 0
3 1 0 0 1.677 0 0 0
5 1 1.2305 0.7104295062378347 1.677 0 0 0
12 1 1.2305 2.1312885187135 1.677 0 0 0
14 1 2.461 2.8417180249513345 1.677 0 0 0
16 1 2.461 0 1.677 0 0 0
18 1 3.6915 0.7104295062378347 1.677 0 0 0
33 1 3.6914999999999996 2.1312885187135 1.677 0 0 0
35 1 4.922 2.841718024951334 1.677 0 0 0
37 1 4.922 0 1.677 0 0 0
39 1 6.1525 0.7104295062378343 1.677 0 0 0
62 1 6.1525 2.1312885187134993 1.677 0 0 0
64 1 7.382999999999999 2.8417180249513345 1.677 0 0 0
66 1 7.382999999999999 0 1.677 0 0 0
68 1 8.613499999999998 0.7104295062378343 1.677 0 0 0
99 1 8.613499999999998 2.1312885187135002 1.677 0 0 0
6 1 0 7.104295062378334 1.677 0 0 0
8 1 0 4.262577037427 1.677 0 0 0
10 1 1.2305000000000001 4.973006543664834 1.677 0 0 0
25 1 1.2305 6.393865556140499 1.677 0 0 0
27 1 2.461 7.104295062378334 1.677 0 0 0
29 1 2.461 4.262577037427 1.677 0 0 0
31 1 3.6914999999999996 4.973006543664834 1.677 0 0 0
54 1 3.6914999999999996 6.393865556140499 1.677 0 0 0
56 1 4.922 7.104295062378334 1.677 0 0 0
58 1 4.922 4.262577037426999 1.677 0 0 0
60 1 6.1525 4.973006543664834 1.677 0 0 0
91 1 6.1525 6.393865556140499 1.677 0 0 0
93 1 7.383 7.104295062378334 1.677 0 0 0
95 1 7.382999999999999 4.262577037427 1.677 0 0 0
21 1 0 8.525154074854 1.677 0 0 0
23 1 1.2304999999999997 9.235583581091834 1.677 0 0 0
46 1 1.2304999999999997 10.656442593567498 1.677 0 0 0
50 1 2.4609999999999994 8.525154074854 1.677 0 0 0
52 1 3.6915 9.235583581091834 1.677 0 0 0
83 1 3.6914999999999996 10.6564425935675 1.677 0 0 0
87 1 4.922 8.525154074854 1.677 0 0 0
89 1 6.1525 9.235583581091834 1.677 0 0 0
125 1 6.1525 10.6564425935675 1.677 0 0 0
129 1 7.383 8.525154074854 1.677 0 0 0
131 1 8.613499999999998 9.235583581091834 1.677 0 0 0
167 1 8.613499999999998 10.656442593567498 1.677 0 0 0
2 1 0 1.420859012475665 5.031000000000001 0 0 0
4 1 0 0 5.031000000000001 0 0 0
11 1 1.2305 3.552147531189165 5.031000000000001 0 0 0
13 1 1.2305 2.1312885187135 5.031000000000001 0 0 0
15 1 2.461 1.420859012475665 5.031000000000001 0 0 0
17 1 2.461 0 5.031000000000001 0 0 0
32 1 3.6914999999999996 3.552147531189165 5.031000000000001 0 0 0
34 1 3.6914999999999996 2.1312885187135 5.031000000000001 0 0 0
36 1 4.922 1.420859012475665 5.031000000000001 0 0 0
38 1 4.922 0 5.031000000000001 0 0 0
61 1 6.1525 3.5521475311891653 5.031000000000001 0 0 0
63 1 6.1525 2.1312885187134993 5.031000000000001 0 0 0
65 1 7.382999999999999 1.420859012475666 5.031000000000001 0 0 0
67 1 7.382999999999999 0 5.031000000000001 0 0 0
98 1 8.613499999999998 3.552147531189166 5.031000000000001 0 0 0
100 1 8.613499999999998 2.1312885187135002 5.031000000000001 0 0 0
7 1 0 5.683436049902665 5.031000000000001 0 0 0
9 1 0 4.262577037427 5.031000000000001 0 0 0
26 1 1.2305 6.393865556140499 5.031000000000001 0 0 0
28 1 2.461 5.683436049902665 5.031000000000001 0 0 0
30 1 2.461 4.262577037427 5.031000000000001 0 0 0
55 1 3.6914999999999996 6.393865556140499 5.031000000000001 0 0 0
57 1 4.922 5.6834360499026655 5.031000000000001 0 0 0
59 1 4.922 4.262577037426999 5.031000000000001 0 0 0
92 1 6.1525 6.393865556140499 5.031000000000001 0 0 0
94 1 7.382999999999999 5.6834360499026655 5.031000000000001 0 0 0
96 1 7.382999999999999 4.262577037427 5.031000000000001 0 0 0
20 1 0 9.946013087329664 5.031000000000001 0 0 0
22 1 0 8.525154074854 5.031000000000001 0 0 0
24 1 1.2304999999999997 7.814724568616164 5.031000000000001 0 0 0
47 1 1.2304999999999997 10.656442593567498 5.031000000000001 0 0 0
49 1 2.4609999999999994 9.946013087329664 5.031000000000001 0 0 0
51 1 2.4609999999999994 8.525154074854 5.031000000000001 0 0 0
53 1 3.6914999999999996 7.814724568616165 5.031000000000001 0 0 0
84 1 3.6914999999999996 10.6564425935675 5.031000000000001 0 0 0
86 1 4.922 9.946013087329666 5.031000000000001 0 0 0
88 1 4.922 8.525154074854 5.031000000000001 0 0 0
90 1 6.1525 7.814724568616166 5.031000000000001 0 0 0
126 1 6.1525 10.6564425935675 5.031000000000001 0 0 0
128 1 7.383 9.946013087329664 5.031000000000001 0 0 0
130 1 7.383 8.525154074854 5.031000000000001 0 0 0
168 1 8.613499999999998 10.656442593567498 5.031000000000001 0 0 0
401 1 0 2.8417180249513345 8.385 0 0 0
402 1 0 0 8.385 0 0 0
403 1 1.2305 0.7104295062378347 8.385 0 0 0
407 1 1.2305 2.1312885187135 8.385 0 0 0
408 1 2.461 2.8417180249513345 8.385 0 0 0
409 1 2.461 0 8.385 0 0 0
410 1 3.6915 0.7104295062378347 8.385 0 0 0
418 1 3.6914999999999996 2.1312885187135 8.385 0 0 0
419 1 4.922 2.841718024951334 8.385 0 0 0
420 1 4.922 0 8.385 0 0 0
421 1 6.1525 0.7104295062378343 8.385 0 0 0
433 1 6.1525 2.1312885187134993 8.385 0 0 0
434 1 7.382999999999999 2.8417180249513345 8.385 0 0 0
435 1 7.382999999999999 0 8.385 0 0 0
436 1 8.613499999999998 0.7104295062378343 8.385 0 0 0
452 1 8.613499999999998 2.1312885187135002 8.385 0 0 0
404 1 0 7.104295062378334 8.385 0 0 0
405 1 0 4.262577037427 8.385 0 0 0
406 1 1.2305000000000001 4.973006543664834 8.385 0 0 0
414 1 1.2305 6.393865556140499 8.385 0 0 0
415 1 2.461 7.104295062378334 8.385 0 0 0
416 1 2.461 4.262577037427 8.385 0 0 0
417 1 3.6914999999999996 4.973006543664834 8.385 0 0 0
429 1 3.6914999999999996 6.393865556140499 8.385 0 0 0
430 1 4.922 7.104295062378334 8.385 0 0 0
431 1 4.922 4.262577037426999 8.385 0 0 0
432 1 6.1525 4.973006543664834 8.385 0 0 0
448 1 6.1525 6.393865556140499 8.385 0 0 0
449 1 7.383 7.104295062378334 8.385 0 0 0
450 1 7.382999999999999 4.262577037427 8.385 0 0 0
412 1 0 8.525154074854 8.385 0 0 0
413 1 1.2304999999999997 9.235583581091834 8.385 0 0 0
425 1 1.2304999999999997 10.656442593567498 8.385 0 0 0
427 1 2.4609999999999994 8.525154074854 8.385 0 0 0
428 1 3.6915 9.235583581091834 8.385 0 0 0
444 1 3.6914999999999996 10.6564425935675 8.385 0 0 0
446 1 4.922 8.525154074854 8.385 0 0 0
447 1 6.1525 9.235583581091834 8.385 0 0 0
465 1 6.1525 10.6564425935675 8.385 0 0 0
467 1 7.383 8.525154074854 8.385 0 0 0
468 1 8.613499999999998 9.235583581091834 8.385 0 0 0
486 1 8.613499999999998 10.656442593567498 8.385 0 0 0
19 1 0 11.366872099805333 1.677 0 0 0
42 1 0 12.787731112280998 1.677 0 0 0
44 1 1.2305000000000001 13.498160618518833 1.677 0 0 0
48 1 2.461 11.366872099805335 1.677 0 0 0
79 1 2.461 12.787731112280998 1.677 0 0 0
81 1 3.6915 13.498160618518833 1.677 0 0 0
85 1 4.922 11.366872099805333 1.677 0 0 0
121 1 4.922 12.787731112281 1.677 0 0 0
123 1 6.152499999999999 13.498160618518833 1.677 0 0 0
127 1 7.382999999999999 11.366872099805335 1.677 0 0 0
163 1 7.382999999999999 12.787731112280998 1.677 0 0 0
40 1 0 15.629449137232333 1.677 0 0 0
71 1 0 17.050308149708 1.677 0 0 0
73 1 1.2305000000000001 17.76073765594583 1.677 0 0 0
75 1 1.2305000000000001 14.919019630994498 1.677 0 0 0
77 1 2.4610000000000003 15.629449137232331 1.677 0 0 0
113 1 2.4610000000000003 17.050308149708 1.677 0 0 0
115 1 3.6914999999999996 17.76073765594583 1.677 0 0 0
117 1 3.6915 14.919019630994498 1.677 0 0 0
119 1 4.921999999999999 15.629449137232333 1.677 0 0 0
155 1 4.921999999999999 17.050308149708 1.677 0 0 0
157 1 6.1525 17.76073765594583 1.677 0 0 0
159 1 6.152499999999999 14.919019630994498 1.677 0 0 0
161 1 7.382999999999999 15.629449137232333 1.677 0 0 0
197 1 7.383 17.050308149708 1.677 0 0 0
199 1 8.613499999999998 17.76073765594583 1.677 0 0 0
69 1 0 19.892026174659332 1.677 0 0 0
106 1 0 21.312885187135 1.677 0 0 0
109 1 1.2305000000000001 19.1815966684215 1.677 0 0 0
111 1 2.4609999999999994 19.892026174659332 1.677 0 0 0
148 1 2.4609999999999994 21.312885187134995 1.677 0 0 0
151 1 3.6914999999999996 19.1815966684215 1.677 0 0 0
153 1 4.922 19.892026174659332 1.677 0 0 0
190 1 4.922000000000001 21.312885187134995 1.677 0 0 0
193 1 6.1525 19.1815966684215 1.677 0 0 0
195 1 7.382999999999999 19.892026174659332 1.677 0 0 0
232 1 7.382999999999999 21.312885187135 1.677 0 0 0
41 1 0 14.208590124756665 5.031000000000001 0 0 0
43 1 0 12.787731112280998 5.031000000000001 0 0 0
45 1 1.2304999999999997 12.077301606043164 5.031000000000001 0 0 0
78 1 2.461 14.208590124756665 5.031000000000001 0 0 0
80 1 2.461 12.787731112280998 5.031000000000001 0 0 0
82 1 3.6914999999999996 12.077301606043164 5.031000000000001 0 0 0
120 1 4.922 14.208590124756663 5.031000000000001 0 0 0
122 1 4.922 12.787731112281 5.031000000000001 0 0 0
124 1 6.1525 12.077301606043164 5.031000000000001 0 0 0
162 1 7.383 14.208590124756665 5.031000000000001 0 0 0
164 1 7.382999999999999 12.787731112280998 5.031000000000001 0 0 0
72 1 0 17.050308149708 5.031000000000001 0 0 0
74 1 1.2305000000000001 16.339878643470165 5.031000000000001 0 0 0
76 1 1.2305000000000001 14.919019630994498 5.031000000000001 0 0 0
114 1 2.4610000000000003 17.050308149708 5.031000000000001 0 0 0
116 1 3.6915 16.339878643470165 5.031000000000001 0 0 0
118 1 3.6915 14.919019630994498 5.031000000000001 0 0 0
156 1 4.921999999999999 17.050308149708 5.031000000000001 0 0 0
158 1 6.1525 16.339878643470165 5.031000000000001 0 0 0
160 1 6.152499999999999 14.919019630994498 5.031000000000001 0 0 0
198 1 7.383 17.050308149708 5.031000000000001 0 0 0
200 1 8.613499999999998 16.339878643470165 5.031000000000001 0 0 0
70 1 0 18.471167162183665 5.031000000000001 0 0 0
107 1 0 21.312885187135 5.031000000000001 0 0 0
108 1 1.2305000000000001 20.602455680897165 5.031000000000001 0 0 0
110 1 1.2305000000000001 19.1815966684215 5.031000000000001 0 0 0
112 1 2.4610000000000003 18.47116716218366 5.031000000000001 0 0 0
149 1 2.4609999999999994 21.312885187134995 5.031000000000001 0 0 0
150 1 3.6915000000000004 20.602455680897165 5.031000000000001 0 0 0
152 1 3.6914999999999996 19.1815966684215 5.031000000000001 0 0 0
154 1 4.922000000000001 18.47116716218366 5.031000000000001 0 0 0
191 1 4.922000000000001 21.312885187134995 5.031000000000001 0 0 0
192 1 6.1525 20.602455680897165 5.031000000000001 0 0 0
194 1 6.1525 19.1815966684215 5.031000000000001 0 0 0
196 1 7.382999999999999 18.471167162183665 5.031000000000001 0 0 0
233 1 7.382999999999999 21.312885187135 5.031000000000001 0 0 0
234 1 8.613499999999998 20.60245568089716 5.031000000000001 0 0 0
411 1 0 11.366872099805333 8.385 0 0 0
423 1 0 12.787731112280998 8.385 0 0 0
424 1 1.2305000000000001 13.498160618518833 8.385 0 0 0
426 1 2.461 11.366872099805335 8.385 0 0 0
442 1 2.461 12.787731112280998 8.385 0 0 0
443 1 3.6915 13.498160618518833 8.385 0 0 0
445 1 4.922 11.366872099805333 8.385 0 0 0
463 1 4.922 12.787731112281 8.385 0 0 0
464 1 6.152499999999999 13.498160618518833 8.385 0 0 0
466 1 7.382999999999999 11.366872099805335 8.385 0 0 0
484 1 7.382999999999999 12.787731112280998 8.385 0 0 0
422 1 0 15.629449137232333 8.385 0 0 0
438 1 0 17.050308149708 8.385 0 0 0
439 1 1.2305000000000001 17.76073765594583 8.385 0 0 0
440 1 1.2305000000000001 14.919019630994498 8.385 0 0 0
441 1 2.4610000000000003 15.629449137232331 8.385 0 0 0
459 1 2.4610000000000003 17.050308149708 8.385 0 0 0
460 1 3.6914999999999996 17.76073765594583 8.385 0 0 0
461 1 3.6915 14.919019630994498 8.385 0 0 0
462 1 4.921999999999999 15.629449137232333 8.385 0 0 0
480 1 4.921999999999999 17.050308149708 8.385 0 0 0
481 1 6.1525 17.76073765594583 8.385 0 0 0
482 1 6.152499999999999 14.919019630994498 8.385 0 0 0
483 1 7.382999999999999 15.629449137232333 8.385 0 0 0
501 1 7.383 17.050308149708 8.385 0 0 0
502 1 8.613499999999998 17.76073765594583 8.385 0 0 0
437 1 0 19.892026174659332 8.385 0 0 0
456 1 0 21.312885187135 8.385 0 0 0
457 1 1.2305000000000001 19.1815966684215 8.385 0 0 0
458 1 2.4609999999999994 19.892026174659332 8.385 0 0 0
477 1 2.4609999999999994 21.312885187134995 8.385 0 0 0
478 1 3.6914999999999996 19.1815966684215 8.385 0 0 0
479 1 4.922 19.892026174659332 8.385 0 0 0
498 1 4.922000000000001 21.312885187134995 8.385 0 0 0
499 1 6.1525 19.1815966684215 8.385 0 0 0
500 1 7.382999999999999 19.892026174659332 8.385 0 0 0
519 1 7.382999999999999 21.312885187135 8.385 0 0 0
670 1 0 24.154603212086332 1.677 0 0 0
672 1 1.2304999999999993 22.023314693372832 1.677 0 0 0
679 1 1.2304999999999993 23.4441737058485 1.677 0 0 0
681 1 2.4609999999999994 24.154603212086332 1.677 0 0 0
683 1 3.6914999999999996 22.023314693372832 1.677 0 0 0
698 1 3.6915000000000004 23.4441737058485 1.677 0 0 0
700 1 4.921999999999999 24.154603212086332 1.677 0 0 0
702 1 6.152499999999999 22.023314693372832 1.677 0 0 0
725 1 6.1525 23.4441737058485 1.677 0 0 0
727 1 7.383 24.154603212086336 1.677 0 0 0
760 1 8.613499999999998 23.4441737058485 1.677 0 0 0
673 1 0 28.417180249513333 1.677 0 0 0
675 1 0 25.575462224561996 1.677 0 0 0
677 1 1.2305000000000001 26.285891730799833 1.677 0 0 0
690 1 1.230500000000001 27.706750743275496 1.677 0 0 0
692 1 2.4609999999999994 28.41718024951333 1.677 0 0 0
694 1 2.4610000000000003 25.575462224561996 1.677 0 0 0
696 1 3.6914999999999987 26.285891730799833 1.677 0 0 0
717 1 3.6914999999999996 27.7067507432755 1.677 0 0 0
719 1 4.922 28.417180249513336 1.677 0 0 0
721 1 4.922 25.575462224561996 1.677 0 0 0
723 1 6.1525 26.285891730799836 1.677 0 0 0
752 1 6.152499999999999 27.7067507432755 1.677 0 0 0
754 1 7.383000000000001 28.417180249513336 1.677 0 0 0
756 1 7.382999999999999 25.575462224561996 1.677 0 0 0
686 1 0 29.838039261988996 1.677 0 0 0
688 1 1.2304999999999993 30.548468768226833 1.677 0 0 0
709 1 1.2304999999999993 31.969327780702496 1.677 0 0 0
713 1 2.4610000000000003 29.838039261988996 1.677 0 0 0
715 1 3.6915000000000004 30.548468768226833 1.677 0 0 0
744 1 3.6914999999999996 31.969327780702496 1.677 0 0 0
748 1 4.921999999999999 29.838039261988996 1.677 0 0 0
750 1 6.152500000000001 30.548468768226833 1.677 0 0 0
784 1 6.1525 31.9693277807025 1.677 0 0 0
788 1 7.383 29.838039261988996 1.677 0 0 0
824 1 8.613499999999998 31.9693277807025 1.677 0 0 0
671 1 0 22.733744199610662 5.031000000000001 0 0 0
678 1 1.2305000000000001 24.865032718324162 5.031000000000001 0 0 0
680 1 1.2304999999999993 23.4441737058485 5.031000000000001 0 0 0
682 1 2.4610000000000003 22.733744199610662 5.031000000000001 0 0 0
697 1 3.6914999999999996 24.865032718324166 5.031000000000001 0 0 0
699 1 3.6915000000000004 23.4441737058485 5.031000000000001 0 0 0
701 1 4.922 22.733744199610662 5.031000000000001 0 0 0
724 1 6.152499999999999 24.86503271832416 5.031000000000001 0 0 0
726 1 6.1525 23.4441737058485 5.031000000000001 0 0 0
728 1 7.382999999999999 22.733744199610662 5.031000000000001 0 0 0
759 1 8.613499999999998 24.86503271832416 5.031000000000001 0 0 0
761 1 8.613499999999998 23.4441737058485 5.031000000000001 0 0 0
674 1 0 26.996321237037662 5.031000000000001 0 0 0
676 1 0 25.575462224561996 5.031000000000001 0 0 0
691 1 1.230500000000001 27.706750743275496 5.031000000000001 0 0 0
693 1 2.4609999999999994 26.996321237037662 5.031000000000001 0 0 0
695 1 2.4610000000000003 25.575462224561996 5.031000000000001 0 0 0
718 1 3.6914999999999996 27.7067507432755 5.031000000000001 0 0 0
720 1 4.921999999999999 26.996321237037662 5.031000000000001 0 0 0
722 1 4.922 25.575462224561996 5.031000000000001 0 0 0
753 1 6.152499999999999 27.7067507432755 5.031000000000001 0 0 0
755 1 7.382999999999998 26.996321237037662 5.031000000000001 0 0 0
757 1 7.382999999999999 25.575462224561996 5.031000000000001 0 0 0
685 1 0 31.258898274464663 5.031000000000001 0 0 0
687 1 0 29.838039261988996 5.031000000000001 0 0 0
689 1 1.2304999999999993 29.127609755751163 5.031000000000001 0 0 0
710 1 1.2304999999999993 31.969327780702496 5.031000000000001 0 0 0
712 1 2.4609999999999985 31.25889827446466 5.031000000000001 0 0 0
714 1 2.4610000000000003 29.838039261988996 5.031000000000001 0 0 0
716 1 3.6914999999999987 29.12760975575116 5.031000000000001 0 0 0
745 1 3.6914999999999996 31.969327780702496 5.031000000000001 0 0 0
747 1 4.921999999999998 31.25889827446466 5.031000000000001 0 0 0
749 1 4.921999999999999 29.838039261988996 5.031000000000001 0 0 0
751 1 6.152499999999998 29.12760975575116 5.031000000000001 0 0 0
785 1 6.1525 31.9693277807025 5.031000000000001 0 0 0
787 1 7.382999999999999 31.258898274464663 5.031000000000001 0 0 0
789 1 7.383 29.838039261988996 5.031000000000001 0 0 0
791 1 8.613499999999998 29.12760975575116 5.031000000000001 0 0 0
825 1 8.613499999999998 31.9693277807025 5.031000000000001 0 0 0
1050 1 0 24.154603212086332 8.385 0 0 0
1051 1 1.2304999999999993 22.023314693372832 8.385 0 0 0
1055 1 1.2304999999999993 23.4441737058485 8.385 0 0 0
1056 1 2.4609999999999994 24.154603212086332 8.385 0 0 0
1057 1 3.6914999999999996 22.023314693372832 8.385 0 0 0
1065 1 3.6915000000000004 23.4441737058485 8.385 0 0 0
1066 1 4.921999999999999 24.154603212086332 8.385 0 0 0
1067 1 6.152499999999999 22.023314693372832 8.385 0 0 0
1079 1 6.1525 23.4441737058485 8.385 0 0 0
1080 1 7.383 24.154603212086336 8.385 0 0 0
1097 1 8.613499999999998 23.4441737058485 8.385 0 0 0
1052 1 0 28.417180249513333 8.385 0 0 0
1053 1 0 25.575462224561996 8.385 0 0 0
1054 1 1.2305000000000001 26.285891730799833 8.385 0 0 0
1061 1 1.230500000000001 27.706750743275496 8.385 0 0 0
1062 1 2.4609999999999994 28.41718024951333 8.385 0 0 0
1063 1 2.4610000000000003 25.575462224561996 8.385 0 0 0
1064 1 3.6914999999999987 26.285891730799833 8.385 0 0 0
1075 1 3.6914999999999996 27.7067507432755 8.385 0 0 0
1076 1 4.922 28.417180249513336 8.385 0 0 0
1077 1 4.922 25.575462224561996 8.385 0 0 0
1078 1 6.1525 26.285891730799836 8.385 0 0 0
1093 1 6.152499999999999 27.7067507432755 8.385 0 0 0
1094 1 7.383000000000001 28.417180249513336 8.385 0 0 0
1095 1 7.382999999999999 25.575462224561996 8.385 0 0 0
1059 1 0 29.838039261988996 8.385 0 0 0
1060 1 1.2304999999999993 30.548468768226833 8.385 0 0 0
1071 1 1.2304999999999993 31.969327780702496 8.385 0 0 0
1073 1 2.4610000000000003 29.838039261988996 8.385 0 0 0
1074 1 3.6915000000000004 30.548468768226833 8.385 0 0 0
1089 1 3.6914999999999996 31.969327780702496 8.385 0 0 0
1091 1 4.921999999999999 29.838039261988996 8.385 0 0 0
1092 1 6.152500000000001 30.548468768226833 8.385 0 0 0
1109 1 6.1525 31.9693277807025 8.385 0 0 0
1111 1 7.383 29.838039261988996 8.385 0 0 0
1129 1 8.613499999999998 31.9693277807025 8.385 0 0 0
684 1 0 32.67975728694033 1.677 0 0 0
705 1 0 34.100616299416 1.677 0 0 0
707 1 1.230500000000001 34.81104580565383 1.677 0 0 0
711 1 2.4610000000000003 32.67975728694034 1.677 0 0 0
740 1 2.4609999999999985 34.100616299416 1.677 0 0 0
742 1 3.6915000000000013 34.81104580565383 1.677 0 0 0
746 1 4.9220000000000015 32.67975728694034 1.677 0 0 0
780 1 4.922000000000001 34.100616299416 1.677 0 0 0
782 1 6.152500000000001 34.81104580565383 1.677 0 0 0
786 1 7.383 32.67975728694033 1.677 0 0 0
820 1 7.382999999999999 34.100616299416 1.677 0 0 0
703 1 0 36.94233432436734 1.677 0 0 0
732 1 0 38.363193336843 1.677 0 0 0
734 1 1.230500000000001 39.07362284308084 1.677 0 0 0
736 1 1.2304999999999993 36.23190481812949 1.677 0 0 0
738 1 2.461000000000002 36.94233432436734 1.677 0 0 0
772 1 2.4610000000000003 38.363193336843 1.677 0 0 0
774 1 3.6915000000000013 39.07362284308083 1.677 0 0 0
776 1 3.6914999999999996 36.23190481812949 1.677 0 0 0
778 1 4.922000000000001 36.94233432436733 1.677 0 0 0
812 1 4.921999999999999 38.363193336843 1.677 0 0 0
814 1 6.152500000000002 39.073622843080834 1.677 0 0 0
816 1 6.1525 36.23190481812949 1.677 0 0 0
818 1 7.383000000000002 36.94233432436733 1.677 0 0 0
852 1 7.382999999999999 38.363193336843 1.677 0 0 0
856 1 8.613499999999998 36.23190481812949 1.677 0 0 0
730 1 0 41.20491136179434 1.677 0 0 0
765 1 0 42.62577037427 1.677 0 0 0
768 1 1.230500000000001 40.4944818555565 1.677 0 0 0
770 1 2.4610000000000003 41.20491136179433 1.677 0 0 0
805 1 2.4610000000000003 42.62577037427 1.677 0 0 0
808 1 3.6914999999999996 40.4944818555565 1.677 0 0 0
810 1 4.922000000000002 41.20491136179433 1.677 0 0 0
845 1 4.921999999999999 42.62577037426999 1.677 0 0 0
848 1 6.152499999999998 40.494481855556494 1.677 0 0 0
850 1 7.383000000000001 41.20491136179433 1.677 0 0 0
885 1 7.382999999999999 42.62577037426999 1.677 0 0 0
704 1 0 35.521475311891656 5.031000000000001 0 0 0
706 1 0 34.100616299416 5.031000000000001 0 0 0
708 1 1.2304999999999993 33.39018679317816 5.031000000000001 0 0 0
739 1 2.4609999999999985 35.52147531189166 5.031000000000001 0 0 0
741 1 2.4609999999999985 34.100616299416 5.031000000000001 0 0 0
743 1 3.691499999999998 33.39018679317816 5.031000000000001 0 0 0
779 1 4.921999999999999 35.52147531189166 5.031000000000001 0 0 0
781 1 4.922000000000001 34.100616299416 5.031000000000001 0 0 0
783 1 6.152499999999999 33.39018679317816 5.031000000000001 0 0 0
819 1 7.382999999999998 35.52147531189166 5.031000000000001 0 0 0
821 1 7.382999999999999 34.100616299416 5.031000000000001 0 0 0
823 1 8.613499999999998 33.39018679317816 5.031000000000001 0 0 0
733 1 0 38.363193336843 5.031000000000001 0 0 0
735 1 1.2304999999999993 37.65276383060515 5.031000000000001 0 0 0
737 1 1.2304999999999993 36.23190481812949 5.031000000000001 0 0 0
773 1 2.4610000000000003 38.363193336843 5.031000000000001 0 0 0
775 1 3.6914999999999996 37.65276383060516 5.031000000000001 0 0 0
777 1 3.6914999999999996 36.23190481812949 5.031000000000001 0 0 0
813 1 4.921999999999999 38.363193336843 5.031000000000001 0 0 0
815 1 6.152499999999998 37.65276383060516 5.031000000000001 0 0 0
817 1 6.1525 36.23190481812949 5.031000000000001 0 0 0
853 1 7.382999999999999 38.363193336843 5.031000000000001 0 0 0
855 1 8.613499999999998 37.65276383060516 5.031000000000001 0 0 0
857 1 8.613499999999998 36.23190481812949 5.031000000000001 0 0 0
731 1 0 39.78405234931866 5.031000000000001 0 0 0
766 1 0 42.62577037427 5.031000000000001 0 0 0
767 1 1.230500000000001 41.91534086803216 5.031000000000001 0 0 0
769 1 1.230500000000001 40.4944818555565 5.031000000000001 0 0 0
771 1 2.4610000000000003 39.78405234931866 5.031000000000001 0 0 0
806 1 2.4610000000000003 42.62577037427 5.031000000000001 0 0 0
807 1 3.6914999999999996 41.91534086803216 5.031000000000001 0 0 0
809 1 3.6914999999999996 40.4944818555565 5.031000000000001 0 0 0
811 1 4.921999999999999 39.78405234931866 5.031000000000001 0 0 0
846 1 4.921999999999999 42.62577037426999 5.031000000000001 0 0 0
847 1 6.152499999999998 41.91534086803216 5.031000000000001 0 0 0
849 1 6.152499999999998 40.494481855556494 5.031000000000001 0 0 0
851 1 7.382999999999997 39.78405234931866 5.031000000000001 0 0 0
886 1 7.382999999999999 42.62577037426999 5.031000000000001 0 0 0
887 1 8.613499999999997 41.91534086803216 5.031000000000001 0 0 0
1058 1 0 32.67975728694033 8.385 0 0 0
1069 1 0 34.100616299416 8.385 0 0 0
1070 1 1.230500000000001 34.81104580565383 8.385 0 0 0
1072 1 2.4610000000000003 32.67975728694034 8.385 0 0 0
1087 1 2.4609999999999985 34.100616299416 8.385 0 0 0
1088 1 3.6915000000000013 34.81104580565383 8.385 0 0 0
1090 1 4.9220000000000015 32.67975728694034 8.385 0 0 0
1107 1 4.922000000000001 34.100616299416 8.385 0 0 0
1108 1 6.152500000000001 34.81104580565383 8.385 0 0 0
1110 1 7.383 32.67975728694033 8.385 0 0 0
1127 1 7.382999999999999 34.100616299416 8.385 0 0 0
1068 1 0 36.94233432436734 8.385 0 0 0
1083 1 0 38.363193336843 8.385 0 0 0
1084 1 1.230500000000001 39.07362284308084 8.385 0 0 0
1085 1 1.2304999999999993 36.23190481812949 8.385 0 0 0
1086 1 2.461000000000002 36.94233432436734 8.385 0 0 0
1103 1 2.4610000000000003 38.363193336843 8.385 0 0 0
1104 1 3.6915000000000013 39.07362284308083 8.385 0 0 0
1105 1 3.6914999999999996 36.23190481812949 8.385 0 0 0
1106 1 4.922000000000001 36.94233432436733 8.385 0 0 0
1123 1 4.921999999999999 38.363193336843 8.385 0 0 0
1124 1 6.152500000000002 39.073622843080834 8.385 0 0 0
1125 1 6.1525 36.23190481812949 8.385 0 0 0
1126 1 7.383000000000002 36.94233432436733 8.385 0 0 0
1143 1 7.382999999999999 38.363193336843 8.385 0 0 0
1145 1 8.613499999999998 36.23190481812949 8.385 0 0 0
1082 1 0 41.20491136179434 8.385 0 0 0
1100 1 0 42.62577037427 8.385 0 0 0
1101 1 1.230500000000001 40.4944818555565 8.385 0 0 0
1102 1 2.4610000000000003 41.20491136179433 8.385 0 0 0
1120 1 2.4610000000000003 42.62577037427 8.385 0 0 0
1121 1 3.6914999999999996 40.4944818555565 8.385 0 0 0
1122 1 4.922000000000002 41.20491136179433 8.385 0 0 0
1140 1 4.921999999999999 42.62577037426999 8.385 0 0 0
1141 1 6.152499999999998 40.494481855556494 8.385 0 0 0
1142 1 7.383000000000001 41.20491136179433 8.385 0 0 0
1160 1 7.382999999999999 42.62577037426999 8.385 0 0 0
1326 1 0 45.46748839922133 1.677 0 0 0
1328 1 1.2304999999999993 43.336199880507834 1.677 0 0 0
1335 1 1.2304999999999993 44.757058892983494 1.677 0 0 0
1337 1 2.4610000000000003 45.46748839922134 1.677 0 0 0
1339 1 3.6915000000000013 43.336199880507834 1.677 0 0 0
1354 1 3.6914999999999996 44.757058892983494 1.677 0 0 0
1356 1 4.922000000000001 45.46748839922134 1.677 0 0 0
1358 1 6.152500000000002 43.336199880507834 1.677 0 0 0
1381 1 6.1525 44.757058892983494 1.677 0 0 0
1383 1 7.383000000000003 45.46748839922133 1.677 0 0 0
1329 1 0 49.73006543664833 1.677 0 0 0
1331 1 0 46.888347411697 1.677 0 0 0
1333 1 1.230500000000001 47.59877691793483 1.677 0 0 0
1346 1 1.2304999999999993 49.019635930410494 1.677 0 0 0
1348 1 2.4610000000000003 49.73006543664833 1.677 0 0 0
1350 1 2.4609999999999985 46.888347411697 1.677 0 0 0
1352 1 3.6914999999999996 47.598776917934835 1.677 0 0 0
1373 1 3.6914999999999996 49.019635930410494 1.677 0 0 0
1375 1 4.922000000000001 49.73006543664833 1.677 0 0 0
1377 1 4.922000000000001 46.888347411697 1.677 0 0 0
1379 1 6.152500000000002 47.598776917934835 1.677 0 0 0
1408 1 6.152500000000002 49.019635930410494 1.677 0 0 0
1410 1 7.383000000000001 49.73006543664833 1.677 0 0 0
1412 1 7.383000000000001 46.888347411697 1.677 0 0 0
1342 1 0 51.15092444912399 1.677 0 0 0
1344 1 1.2304999999999993 51.861353955361835 1.677 0 0 0
1365 1 1.230500000000001 53.282212967837495 1.677 0 0 0
1369 1 2.4610000000000003 51.15092444912399 1.677 0 0 0
1371 1 3.6915000000000013 51.861353955361835 1.677 0 0 0
1400 1 3.6915000000000013 53.282212967837495 1.677 0 0 0
1404 1 4.922000000000001 51.15092444912399 1.677 0 0 0
1406 1 6.1525 51.861353955361835 1.677 0 0 0
1440 1 6.1525 53.282212967837495 1.677 0 0 0
1444 1 7.383000000000001 51.15092444912399 1.677 0 0 0
1327 1 0 44.04662938674566 5.031000000000001 0 0 0
1334 1 1.2304999999999993 46.177917905459154 5.031000000000001 0 0 0
1336 1 1.2304999999999993 44.757058892983494 5.031000000000001 0 0 0
1338 1 2.4610000000000003 44.04662938674566 5.031000000000001 0 0 0
1353 1 3.6914999999999996 46.177917905459154 5.031000000000001 0 0 0
1355 1 3.6914999999999996 44.757058892983494 5.031000000000001 0 0 0
1357 1 4.921999999999999 44.04662938674566 5.031000000000001 0 0 0
1380 1 6.152499999999998 46.177917905459154 5.031000000000001 0 0 0
1382 1 6.1525 44.757058892983494 5.031000000000001 0 0 0
1384 1 7.382999999999997 44.046629386745664 5.031000000000001 0 0 0
1330 1 0 48.30920642417266 5.031000000000001 0 0 0
1332 1 0 46.888347411697 5.031000000000001 0 0 0
1347 1 1.2304999999999993 49.019635930410494 5.031000000000001 0 0 0
1349 1 2.4609999999999985 48.30920642417266 5.031000000000001 0 0 0
1351 1 2.4609999999999985 46.888347411697 5.031000000000001 0 0 0
1374 1 3.6914999999999996 49.019635930410494 5.031000000000001 0 0 0
1376 1 4.921999999999999 48.30920642417266 5.031000000000001 0 0 0
1378 1 4.922000000000001 46.888347411697 5.031000000000001 0 0 0
1409 1 6.152500000000002 49.019635930410494 5.031000000000001 0 0 0
1411 1 7.383000000000001 48.30920642417266 5.031000000000001 0 0 0
1413 1 7.383000000000001 46.888347411697 5.031000000000001 0 0 0
1341 1 0 52.57178346159966 5.031000000000001 0 0 0
1343 1 0 51.15092444912399 5.031000000000001 0 0 0
1345 1 1.2304999999999993 50.44049494288616 5.031000000000001 0 0 0
1366 1 1.230500000000001 53.282212967837495 5.031000000000001 0 0 0
1368 1 2.4609999999999985 52.57178346159966 5.031000000000001 0 0 0
1370 1 2.4610000000000003 51.15092444912399 5.031000000000001 0 0 0
1372 1 3.691499999999998 50.44049494288616 5.031000000000001 0 0 0
1401 1 3.6915000000000013 53.282212967837495 5.031000000000001 0 0 0
1403 1 4.922000000000001 52.57178346159965 5.031000000000001 0 0 0
1405 1 4.922000000000001 51.15092444912399 5.031000000000001 0 0 0
1407 1 6.152500000000002 50.440494942886154 5.031000000000001 0 0 0
1441 1 6.1525 53.282212967837495 5.031000000000001 0 0 0
1443 1 7.383000000000001 52.57178346159966 5.031000000000001 0 0 0
1445 1 7.383000000000001 51.15092444912399 5.031000000000001 0 0 0
1706 1 0 45.46748839922133 8.385 0 0 0
1707 1 1.2304999999999993 43.336199880507834 8.385 0 0 0
1711 1 1.2304999999999993 44.757058892983494 8.385 0 0 0
1712 1 2.4610000000000003 45.46748839922134 8.385 0 0 0
1713 1 3.6915000000000013 43.336199880507834 8.385 0 0 0
1721 1 3.6914999999999996 44.757058892983494 8.385 0 0 0
1722 1 4.922000000000001 45.46748839922134 8.385 0 0 0
1723 1 6.152500000000002 43.336199880507834 8.385 0 0 0
1735 1 6.1525 44.757058892983494 8.385 0 0 0
1736 1 7.383000000000003 45.46748839922133 8.385 0 0 0
1708 1 0 49.73006543664833 8.385 0 0 0
1709 1 0 46.888347411697 8.385 0 0 0
1710 1 1.230500000000001 47.59877691793483 8.385 0 0 0
1717 1 1.2304999999999993 49.019635930410494 8.385 0 0 0
1718 1 2.4610000000000003 49.73006543664833 8.385 0 0 0
1719 1 2.4609999999999985 46.888347411697 8.385 0 0 0
1720 1 3.6914999999999996 47.598776917934835 8.385 0 0 0
1731 1 3.6914999999999996 49.019635930410494 8.385 0 0 0
1732 1 4.922000000000001 49.73006543664833 8.385 0 0 0
1733 1 4.922000000000001 46.888347411697 8.385 0 0 0
1734 1 6.152500000000002 47.598776917934835 8.385 0 0 0
1749 1 6.152500000000002 49.019635930410494 8.385 0 0 0
1750 1 7.383000000000001 49.73006543664833 8.385 0 0 0
1751 1 7.383000000000001 46.888347411697 8.385 0 0 0
1715 1 0 51.15092444912399 8.385 0 0 0
1716 1 1.2304999999999993 51.861353955361835 8.385 0 0 0
1727 1 1.230500000000001 53.282212967837495 8.385 0 0 0