
### Dimensions ###


### IMPORT ATOMS ###
read_data ../Box_Setup/data.Ibeam_240K
Reading data file ...
  orthogonal box = (0.0000000 0.0000000 0.0000000) to (68.908000 85.848302 27.975384)
  8 by 8 by 2 MPI processor grid
  reading atoms ...
  8493 atoms
  reading velocities ...
  8493 velocities
  read_data CPU = 0.020 seconds
group water type 2
1689 atoms in group water
group graphite type 1
6804 atoms in group graphite


# Define potential
#
pair_style          sw
pair_coeff * * MLC_e.sw C mW

# Add velocity/set timestep
#

fix		1 graphite setforce 0.0 0.0 0.0
velocity 	graphite set 0.0 0.0 0.0
velocity            water create ${START_TEMP} ${SEED} rot yes dist gaussian
velocity            water create 240 ${SEED} rot yes dist gaussian
velocity            water create 240 11523 rot yes dist gaussian
timestep            5.0

# Define output
#
compute 1 water msd
compute 2 water temp


thermo	            100
thermo_style custom step c_2 press vol etotal ke pe c_1[4] density

# Neighbor lists
#
neigh_modify        delay 0 every 1 check yes


# Set fixes
#
fix                 2 water momentum 10 linear 1 1 1 rescale
fix                 3 all nve
fix                 4 water temp/csvr ${START_TEMP} ${START_TEMP} 500.0 928347
fix                 4 water temp/csvr 240 ${START_TEMP} 500.0 928347
fix                 4 water temp/csvr 240 240 500.0 928347

# Run 0.05 ns equilibration
#
dump                1 all custom 100 ${DIR}/eq.${NAME}.dump id type x y z vx vy vz
dump                1 all custom 100 run_9/eq.${NAME}.dump id type x y z vx vy vz
dump                1 all custom 100 run_9/eq.ibeam_cooling_9.dump id type x y z vx vy vz
run                 10000
Neighbor list info ...
  update every 1 steps, delay 0 steps, check yes
  max neighbors/atom: 2000, page size: 100000
  master list distance cutoff = 6.6747184
  ghost atom cutoff = 6.6747184
  binsize = 3.3373592, bins = 21 26 9
  1 neighbor lists, perpetual/occasional/extra = 1 0 0
  (1) pair sw, perpetual
      attributes: full, newton on
      pair build: full/bin/atomonly
      stencil: full/bin/3d
      bin: standard
Per MPI rank memory allocation (min/avg/max) = 3.603 | 4.507 | 4.728 Mbytes
Step c_2 Press Volume TotEng KinEng PotEng c_1[4] Density 
       0          240   -298.97748    165492.15   -16025.669    1207.5858   -17233.255            0    1.1252403 
     100      246.603   -529.47282    165492.15   -16001.111    1240.8095    -17241.92    0.9269605    1.1252403 
     200    240.31923   -508.55791    165492.15   -16039.383     1209.192   -17248.575    1.5445814    1.1252403 
     300    238.01195   -562.38548    165492.15    -16039.22    1197.5827   -17236.802    2.1514131    1.1252403 
     400    234.58958   -527.84381    165492.15   -16048.873    1180.3627   -17229.236    2.6503706    1.1252403 
     500    245.61438   -410.92786    165492.15    -16052.46    1235.8351   -17288.295    3.1257142    1.1252403 
     600    234.42659   -631.88886    165492.15   -16143.471    1179.5426   -17323.013    3.5535483    1.1252403 
     700    229.59327     -363.963    165492.15    -16123.09    1155.2232   -17278.313    3.8335481    1.1252403 
     800    237.25109   -547.59704    165492.15   -16153.105    1193.7543   -17346.859    4.1274651    1.1252403 
     900    235.49145   -557.20833    165492.15   -16116.278    1184.9005   -17301.179    4.4956841    1.1252403 
    1000    240.30455   -454.76698    165492.15    -16063.77    1209.1181   -17272.888    4.8260313    1.1252403 
    1100    238.54069   -346.47139    165492.15   -16073.396    1200.2431   -17273.639    5.1501739    1.1252403 
    1200    233.55879   -411.66986    165492.15   -16126.027    1175.1761   -17301.203    5.4137182    1.1252403 
    1300    239.32198   -517.20759    165492.15   -16094.408    1204.1742   -17298.582    5.7189787    1.1252403 
    1400    248.47614    -497.0469    165492.15   -16039.615    1250.2344    -17289.85    5.8464043    1.1252403 
    1500    244.54496   -511.93067    165492.15   -16057.812    1230.4542   -17288.267    6.2678396    1.1252403 
    1600    246.21143   -417.81537    165492.15   -16037.742    1238.8393   -17276.582    6.6716269    1.1252403 
    1700    229.50767     -465.863    165492.15   -16050.335    1154.7925   -17205.128    7.1742215    1.1252403 
    1800    238.05168   -509.13025    165492.15   -16049.425    1197.7826   -17247.207    7.5489378    1.1252403 
    1900    240.17173   -460.51858    165492.15   -15968.459    1208.4498   -17176.909    8.0663079    1.1252403 
    2000    254.75152   -307.66338    165492.15    -15946.19    1281.8096   -17227.999    8.4069123    1.1252403 
    2100    241.38713   -322.60456    165492.15    -15964.95    1214.5653   -17179.515    8.7358213    1.1252403 
    2200    243.45035   -522.69364    165492.15     -15966.8    1224.9466   -17191.747    8.9735454    1.1252403 
    2300    237.17886   -643.94046    165492.15   -16010.808    1193.3909   -17204.199    9.0482681    1.1252403 
    2400     243.3255   -475.35454    165492.15    -16016.36    1224.3184   -17240.679     9.665759    1.1252403 
    2500    248.29045   -375.99384    165492.15   -16023.292       1249.3   -17272.592    10.361984    1.1252403 
    2600    240.49577   -606.42837    165492.15   -16057.754    1210.0803   -17267.835    11.160415    1.1252403 
    2700      238.548   -492.07467    165492.15   -16025.895    1200.2799   -17226.174    11.681427    1.1252403 
    2800      247.234   -306.74442    165492.15   -16039.168    1243.9844   -17283.152    12.153772    1.1252403 
    2900    238.17544   -540.95589    165492.15   -16096.452    1198.4053   -17294.857      12.5868    1.1252403 
    3000    238.29655   -426.42612    165492.15     -16107.7    1199.0147   -17306.714    12.965039    1.1252403 
    3100    229.53428   -460.86681    165492.15   -16092.791    1154.9264   -17247.717    13.192334    1.1252403 
    3200     230.8954   -449.15678    165492.15   -16105.935     1161.775    -17267.71    13.383638    1.1252403 
    3300    246.21358   -372.61212    165492.15   -16079.632    1238.8501   -17318.482    13.611401    1.1252403 
    3400    236.48041    -459.0213    165492.15   -16075.028    1189.8766   -17264.905    13.833246    1.1252403 
    3500    240.01302   -457.85968    165492.15   -16063.544    1207.6513   -17271.196    14.202573    1.1252403 
    3600    239.17096   -531.56724    165492.15   -16055.532    1203.4144   -17258.947    14.494321    1.1252403 
    3700    240.99784   -470.07093    165492.15   -16080.537    1212.6065   -17293.143    14.645653    1.1252403 
    3800    241.84943    -346.6762    165492.15   -16067.662    1216.8914   -17284.554    14.933686    1.1252403 
    3900     236.4743   -479.46033    165492.15   -16081.312    1189.8458   -17271.158    15.513226    1.1252403 
    4000    242.98045   -537.27271    165492.15    -16091.16    1222.5822   -17313.743     16.14361    1.1252403 
    4100    234.56996   -429.44393    165492.15   -16058.051    1180.2639   -17238.315    16.381161    1.1252403 
    4200    243.80675   -415.15191    165492.15   -16033.926    1226.7398   -17260.666    16.332387    1.1252403 
    4300    245.73435   -500.48408    165492.15    -15968.97    1236.4387   -17205.408    16.717997    1.1252403 
    4400    252.82332   -371.48837    165492.15   -15986.876    1272.1077   -17258.984    16.983548    1.1252403 
    4500    237.82487   -489.18818    165492.15   -16030.838    1196.6414   -17227.479    17.321375    1.1252403 
    4600    243.53559   -286.49063    165492.15   -16065.171    1225.3755   -17290.547     17.47591    1.1252403 
    4700    235.70749   -321.68112    165492.15   -16079.641    1185.9876   -17265.628    17.744989    1.1252403 
    4800    246.20803   -424.96658    165492.15   -16052.928    1238.8221    -17291.75    18.294421    1.1252403 
    4900    246.48847   -521.40183    165492.15   -16061.618    1240.2332   -17301.851    18.705122    1.1252403 
    5000    230.62256   -590.90063    165492.15   -16085.697    1160.4022   -17246.099    19.115114    1.1252403 
    5100    236.86502   -383.51206    165492.15   -16094.385    1191.8118   -17286.196    19.334245    1.1252403 
    5200    234.64435   -559.26527    165492.15    -16064.24    1180.6382   -17244.879    19.514253    1.1252403 
    5300    239.49877   -557.49977    165492.15   -16124.958    1205.0638   -17330.022    19.841881    1.1252403 
    5400    240.41106   -508.13824    165492.15   -16094.132     1209.654   -17303.786    20.351888    1.1252403 
    5500    237.50383   -674.22801    165492.15   -16122.497     1195.026   -17317.523    20.544876    1.1252403 
    5600    231.33769   -445.34525    165492.15   -16139.148    1164.0004   -17303.148    20.794541    1.1252403 
    5700    238.75489   -531.58089    165492.15   -16100.506    1201.3209   -17301.827    21.102596    1.1252403 
    5800     247.4131   -604.12816    165492.15   -16012.054    1244.8856    -17256.94    21.329668    1.1252403 
    5900    240.81849   -420.59176    165492.15   -16036.425    1211.7041   -17248.129    21.584954    1.1252403 
    6000    238.74544   -542.64371    165492.15   -16121.637    1201.2733    -17322.91    22.521921    1.1252403 
    6100    239.14372   -388.50333    165492.15   -16115.817    1203.2773   -17319.094    23.163311    1.1252403 
    6200    243.72588   -332.31897    165492.15   -16094.323    1226.3329   -17320.655    23.285052    1.1252403 
    6300    243.55227   -445.68396    165492.15   -16062.625    1225.4594   -17288.084     23.79995    1.1252403 
    6400    242.24221   -786.61088    165492.15   -16063.539    1218.8677   -17282.407     24.12478    1.1252403 
    6500    241.52105   -552.19277    165492.15   -16090.509    1215.2391   -17305.748    24.347704    1.1252403 
    6600    238.34227   -240.32536    165492.15   -16130.546    1199.2447   -17329.791    24.777144    1.1252403 
    6700    231.94026   -421.91931    165492.15    -16175.25    1167.0323   -17342.282     25.01002    1.1252403 
    6800    237.42664   -736.93518    165492.15   -16139.563    1194.6376     -17334.2    25.014035    1.1252403 
    6900    234.07661   -371.03212    165492.15   -16164.725    1177.7816   -17342.506    25.321258    1.1252403 
    7000    229.40719    -403.6962    165492.15   -16177.415    1154.2869   -17331.702    25.666024    1.1252403 
    7100    237.49298   -491.43489    165492.15    -16103.99    1194.9714   -17298.962    26.332725    1.1252403 
    7200    241.65444   -602.65413    165492.15   -16110.361    1215.9103   -17326.272    26.285399    1.1252403 
    7300    238.05738   -232.34449    165492.15   -16173.719    1197.8113    -17371.53    26.570077    1.1252403 
    7400      239.018   -471.62852    165492.15   -16172.684    1202.6447   -17375.329    26.798095    1.1252403 
    7500    235.84365   -520.12863    165492.15   -16192.406    1186.6726   -17379.078    27.183252    1.1252403 
    7600    236.72188   -700.96335    165492.15   -16203.457    1191.0916   -17394.548    27.624109    1.1252403 
    7700    233.62812   -475.82379    165492.15   -16188.378     1175.525   -17363.903    28.130685    1.1252403 
    7800    239.38276   -470.05683    165492.15   -16137.774    1204.4801   -17342.254     28.64709    1.1252403 
    7900     237.3989   -477.92648    165492.15   -16132.491     1194.498   -17326.989    28.773538    1.1252403 
    8000    237.63188   -510.53771    165492.15   -16125.212    1195.6703   -17320.882    29.254612    1.1252403 
    8100    232.26972   -597.96651    165492.15   -16142.825      1168.69   -17311.515       29.684    1.1252403 
    8200    231.79621   -312.87617    165492.15   -16166.255    1166.3075   -17332.563    29.936306    1.1252403 
    8300    232.29294   -462.17468    165492.15   -16170.156    1168.8069   -17338.963    30.373179    1.1252403 
    8400    233.61447   -409.76424    165492.15   -16147.146    1175.4563   -17322.602    31.135386    1.1252403 
    8500    237.51196   -724.64704    165492.15   -16158.282    1195.0669   -17353.349    31.850753    1.1252403 
    8600    242.85352   -282.08805    165492.15   -16103.189    1221.9436   -17325.132    32.541932    1.1252403 
    8700    234.62564   -633.32459    165492.15   -16154.604    1180.5441   -17335.148    32.909148    1.1252403 
    8800    238.21263   -409.08384    165492.15   -16087.236    1198.5924   -17285.828    32.687359    1.1252403 
    8900      236.485   -468.31949    165492.15   -16105.976    1189.8997   -17295.875    32.569201    1.1252403 
    9000    237.34282   -467.86786    165492.15   -16055.429    1194.2159   -17249.645    32.878604    1.1252403 
    9100    244.45656   -536.38516    165492.15   -16048.148    1230.0094   -17278.158    33.059125    1.1252403 
    9200    243.69397    -395.8505    165492.15   -16082.779    1226.1724   -17308.952    33.232547    1.1252403 
    9300     244.8073   -535.54634    165492.15   -16108.332    1231.7742   -17340.106    33.640878    1.1252403 
    9400    236.18994   -601.34965    165492.15   -16148.898    1188.4151   -17337.313    33.460629    1.1252403 
    9500    238.14823   -482.08393    165492.15    -16113.24    1198.2684   -17311.509    34.034093    1.1252403 
    9600    233.09167   -674.77408    165492.15   -16168.326    1172.8258   -17341.152    34.497726    1.1252403 
    9700    238.44068   -490.47907    165492.15   -16140.844    1199.7399   -17340.584    35.232564    1.1252403 
    9800    239.47639   -373.20782    165492.15   -16135.259    1204.9511    -17340.21    35.461359    1.1252403 
    9900    246.77163   -469.87302    165492.15   -16105.665    1241.6579   -17347.323    35.438646    1.1252403 
   10000    241.75288   -255.67205    165492.15   -16022.513    1216.4056   -17238.918    35.507615    1.1252403 
Loop time of 5.98052 on 128 procs for 10000 steps with 8493 atoms

Performance: 722.345 ns/day, 0.033 hours/ns, 1672.095 timesteps/s
96.7% CPU use with 128 MPI tasks x no OpenMP threads

MPI task timing breakdown:
Section |  min time  |  avg time  |  max time  |%varavg| %total
---------------------------------------------------------------
Pair    | 0.0007515  | 1.8674     | 4.4691     | 116.7 | 31.22
Neigh   | 0.0042326  | 0.134      | 0.31139    |  27.9 |  2.24
Comm    | 0.21093    | 1.699      | 4.1351     |  81.9 | 28.41
Output  | 0.14806    | 0.14815    | 0.1491     |   0.0 |  2.48
Modify  | 0.23087    | 2.055      | 5.5406     | 133.0 | 34.36
Other   |            | 0.07698    |            |       |  1.29

Nlocal:        66.3516 ave         140 max           0 min
Histogram: 32 3 14 15 0 0 2 29 25 8
Nghost:        698.984 ave         913 max         491 min
Histogram: 16 6 15 11 21 9 13 21 1 15
Neighs:         0.00000 ave           0 max           0 min
Histogram: 128 0 0 0 0 0 0 0 0 0
FullNghs:      6956.28 ave       16703 max           0 min
Histogram: 42 22 0 0 0 0 13 31 15 5

Total # of neighbors = 890404
Ave neighs/atom = 104.83975
Neighbor list builds = 568
Dangerous builds = 0
write_data 	    ${DIR}/data.${NAME}_eq
write_data 	    run_9/data.${NAME}_eq
write_data 	    run_9/data.ibeam_cooling_9_eq
System init for write_data ...

undump              1
unfix               4



################################################
#######         Run Simulation         #########
################################################

reset_timestep      0
timestep	    10.0
log                 ${DIR}/log.run_${NAME}
log                 run_9/log.run_${NAME}
log                 run_9/log.run_ibeam_cooling_9
