
### Dimensions ###


### IMPORT ATOMS ###
read_data ../Box_Setup/data.Ibeam_240K
Reading data file ...
  orthogonal box = (0.0000000 0.0000000 0.0000000) to (68.908000 85.848302 27.975384)
  8 by 8 by 2 MPI processor grid
  reading atoms ...
  8493 atoms
  reading velocities ...
  8493 velocities
  read_data CPU = 0.020 seconds
group water type 2
1689 atoms in group water
group graphite type 1
6804 atoms in group graphite


# Define potential
#
pair_style          sw
pair_coeff * * MLC_e.sw C mW

# Add velocity/set timestep
#

fix		1 graphite setforce 0.0 0.0 0.0
velocity 	graphite set 0.0 0.0 0.0
velocity            water create ${START_TEMP} ${SEED} rot yes dist gaussian
velocity            water create 240 ${SEED} rot yes dist gaussian
velocity            water create 240 28012 rot yes dist gaussian
timestep            5.0

# Define output
#
compute 1 water msd
compute 2 water temp


thermo	            100
thermo_style custom step c_2 press vol etotal ke pe c_1[4] density

# Neighbor lists
#
neigh_modify        delay 0 every 1 check yes


# Set fixes
#
fix                 2 water momentum 10 linear 1 1 1 rescale
fix		3 water nvt temp ${START_TEMP} ${START_TEMP} $(100.0*dt)
fix		3 water nvt temp 240 ${START_TEMP} $(100.0*dt)
fix		3 water nvt temp 240 240 $(100.0*dt)
fix		3 water nvt temp 240 240 500

# Run 0.05 ns equilibration
#
dump                1 all custom 100 ${DIR}/eq.${NAME}.dump id type x y z vx vy vz
dump                1 all custom 100 run_9/eq.${NAME}.dump id type x y z vx vy vz
dump                1 all custom 100 run_9/eq.ibeam_cooling_9.dump id type x y z vx vy vz
run                 10000
Neighbor list info ...
  update every 1 steps, delay 0 steps, check yes
  max neighbors/atom: 2000, page size: 100000
  master list distance cutoff = 6.6747184
  ghost atom cutoff = 6.6747184
  binsize = 3.3373592, bins = 21 26 9
  1 neighbor lists, perpetual/occasional/extra = 1 0 0
  (1) pair sw, perpetual
      attributes: full, newton on
      pair build: full/bin/atomonly
      stencil: full/bin/3d
      bin: standard
Per MPI rank memory allocation (min/avg/max) = 3.603 | 4.507 | 4.728 Mbytes
Step c_2 Press Volume TotEng KinEng PotEng c_1[4] Density 
       0          240   -298.97748    165492.15   -16025.669    1207.5858   -17233.255            0    1.1252403 
     100     239.6539     -705.818    165492.15   -16031.419    1205.8444   -17237.264   0.90019744    1.1252403 
     200    232.18694    -620.1377    165492.15   -16077.431    1168.2735   -17245.704    1.3654057    1.1252403 
     300    237.94065   -475.82614    165492.15    -16119.68    1197.2239   -17316.904    1.8699639    1.1252403 
     400    232.57353   -493.82769    165492.15   -16111.202    1170.2187   -17281.421    2.2602992    1.1252403 
     500    241.73731    -415.2408    165492.15   -16075.568    1216.3272   -17291.895    2.7638289    1.1252403 
     600     236.6327   -453.49488    165492.15   -16060.111    1190.6428   -17250.754    3.1868262    1.1252403 
     700     242.9884   -644.06677    165492.15   -16063.456    1222.6222   -17286.078    3.4775101    1.1252403 
     800    240.99835   -466.03173    165492.15   -16075.784    1212.6091   -17288.393    3.8519579    1.1252403 
     900    233.75609   -540.39147    165492.15   -16098.242    1176.1689   -17274.411    4.2968324    1.1252403 
    1000    238.93973   -650.14144    165492.15   -16104.697    1202.2509   -17306.948    4.6831012    1.1252403 
    1100    246.19614   -465.62584    165492.15   -16085.606    1238.7623   -17324.368    4.9285235    1.1252403 
    1200    239.28953   -341.80829    165492.15   -16068.488    1204.0109   -17272.499    5.2337648    1.1252403 
    1300    238.28061   -512.27876    165492.15   -16064.541    1198.9345   -17263.476    5.5028079    1.1252403 
    1400    240.96772   -634.16849    165492.15   -16094.103     1212.455   -17306.558    5.7104652    1.1252403 
    1500    241.64222   -315.24548    165492.15   -16146.758    1215.8488   -17362.607    6.0590004    1.1252403 
    1600    236.93393   -533.86353    165492.15   -16163.972    1192.1585    -17356.13    6.2604162    1.1252403 
    1700    239.10032   -533.95552    165492.15   -16144.644    1203.0589   -17347.703    6.6110027    1.1252403 
    1800    243.31493   -453.16785    165492.15   -16119.041    1224.2652   -17343.306    6.9193053    1.1252403 
    1900    241.05569   -706.08993    165492.15   -16106.865    1212.8976   -17319.763    7.4378784    1.1252403 
    2000    241.57247   -335.89953    165492.15   -16103.022    1215.4978    -17318.52    7.6253458    1.1252403 
    2100    247.34344   -131.74527    165492.15   -16098.419    1244.5351   -17342.954     7.791709    1.1252403 
    2200    240.37723   -659.80159    165492.15   -16130.392    1209.4839   -17339.876    8.2169724    1.1252403 
    2300    231.43452   -650.35029    165492.15   -16176.216    1164.4877   -17340.704    8.3570241    1.1252403 
    2400    236.46682   -394.54269    165492.15    -16141.69    1189.8082   -17331.498    8.6757289    1.1252403 
    2500    235.07327   -440.87151    165492.15   -16107.415    1182.7964   -17290.212     8.962161    1.1252403 
    2600    236.67593   -410.98799    165492.15   -16085.056    1190.8603   -17275.916    9.2869936    1.1252403 
    2700     240.5626   -357.12073    165492.15   -16065.014    1210.4165    -17275.43    9.7140916    1.1252403 
    2800    240.75421   -605.16946    165492.15    -16062.79    1211.3806   -17274.171    10.294877    1.1252403 
    2900    242.04635   -462.01716    165492.15   -16102.784    1217.8822   -17320.666    10.822332    1.1252403 
    3000    243.77987   -379.38309    165492.15   -16135.456    1226.6046   -17362.061    11.172824    1.1252403 
    3100    229.85682   -589.94359    165492.15   -16145.291    1156.5493    -17301.84    11.577501    1.1252403 
    3200     240.6815   -681.26492    165492.15   -16100.444    1211.0148   -17311.459    11.956868    1.1252403 
    3300    253.62935   -335.20798    165492.15   -16059.707    1276.1633   -17335.871     12.39172    1.1252403 
    3400    242.69997   -314.10687    165492.15   -16076.849    1221.1709    -17298.02    12.605247    1.1252403 
    3500    239.55792   -410.49837    165492.15   -16098.318    1205.3614   -17303.679    13.301961    1.1252403 
    3600    241.47636   -505.82612    165492.15   -16098.823    1215.0142   -17313.837    13.527599    1.1252403 
    3700    237.60959   -629.50803    165492.15   -16079.631    1195.5582   -17275.189    13.981581    1.1252403 
    3800    241.18669   -232.34943    165492.15   -16051.527    1213.5567   -17265.084    14.072765    1.1252403 
    3900    234.00268     -474.193    165492.15   -16056.064    1177.4096   -17233.473     14.39487    1.1252403 
    4000     235.8074   -542.46131    165492.15   -16119.847    1186.4902   -17306.337    14.865168    1.1252403 
    4100    234.06848   -384.75605    165492.15    -16141.07    1177.7407   -17318.811    15.090915    1.1252403 
    4200    237.77296   -504.93282    165492.15   -16111.405    1196.3802   -17307.785    15.505305    1.1252403 
    4300    237.04319   -415.90239    165492.15   -16071.706    1192.7082   -17264.414     15.91221    1.1252403 
    4400    238.25392   -530.59156    165492.15   -16062.815    1198.8002   -17261.615    16.377714    1.1252403 
    4500    241.45513   -391.82899    165492.15   -16066.078    1214.9074   -17280.986    16.717544    1.1252403 
    4600    240.75872   -318.08032    165492.15   -16080.114    1211.4034   -17291.518    17.090185    1.1252403 
    4700     237.2672   -635.06031    165492.15   -16091.507    1193.8354   -17285.342    17.509726    1.1252403 
    4800     235.4934   -544.06141    165492.15   -16082.955    1184.9103   -17267.865    17.851676    1.1252403 
    4900    250.77324   -437.20358    165492.15   -16019.776    1261.7925   -17281.568    18.659594    1.1252403 
    5000     246.1418   -406.76512    165492.15    -15991.75    1238.4889   -17230.239    18.801321    1.1252403 
    5100    242.18952   -507.44096    165492.15    -16025.41    1218.6026   -17244.013    19.165478    1.1252403 
    5200    240.47259   -650.07055    165492.15   -16056.492    1209.9637   -17266.456    19.438067    1.1252403 
    5300    239.76933   -323.02802    165492.15   -16068.937    1206.4251   -17275.362    19.628861    1.1252403 
    5400    240.28777   -476.51457    165492.15   -16082.696    1209.0337    -17291.73    19.948026    1.1252403 
    5500    238.03773   -597.14705    165492.15   -16097.253    1197.7124   -17294.965    20.456477    1.1252403 
    5600    237.85305   -458.61829    165492.15   -16094.369    1196.7832   -17291.152    20.824425    1.1252403 
    5700    238.58731   -408.43377    165492.15   -16063.752    1200.4777   -17264.229    21.011289    1.1252403 
    5800    249.41681    -438.5194    165492.15   -15994.848    1254.9675   -17249.815    21.270358    1.1252403 
    5900    239.25612   -569.18972    165492.15   -16009.871    1203.8428   -17213.714    21.337794    1.1252403 
    6000    242.20145   -422.97831    165492.15   -16051.052    1218.6626   -17269.715     21.63721    1.1252403 
    6100    235.55687    -441.6399    165492.15   -16073.846    1185.2297   -17259.075    22.035316    1.1252403 
    6200    238.90566   -496.12949    165492.15   -16066.728    1202.0795   -17268.807       22.323    1.1252403 
    6300    241.34719   -454.50469    165492.15   -16030.006    1214.3643    -17244.37    22.731868    1.1252403 
    6400    243.63389   -423.64641    165492.15   -15977.879    1225.8701   -17203.749    23.296572    1.1252403 
    6500    251.76576   -445.87682    165492.15   -15946.154    1266.7865    -17212.94    23.557021    1.1252403 
    6600    241.35642   -544.72296    165492.15   -15996.298    1214.4107   -17210.709    23.946781    1.1252403 
    6700    240.79829   -610.41429    165492.15   -16056.277    1211.6024    -17267.88    24.436019    1.1252403 
    6800    240.40234   -301.26943    165492.15   -16090.377    1209.6102   -17299.987    24.642012    1.1252403 
    6900    233.13144   -524.89991    165492.15   -16109.602    1173.0259   -17282.628    24.882136    1.1252403 
    7000    235.55203   -368.73013    165492.15   -16110.081    1185.2053   -17295.286    25.363687    1.1252403 
    7100    243.16827   -501.59138    165492.15   -16068.891    1223.5273   -17292.418    25.776786    1.1252403 
    7200    248.49422   -437.92335    165492.15   -16033.922    1250.3253   -17284.248    26.590548    1.1252403 
    7300    240.08852   -313.17462    165492.15    -16038.09    1208.0311   -17246.121     27.31616    1.1252403 
    7400    231.80407   -540.92315    165492.15   -16115.161    1166.3471   -17281.508    27.818913    1.1252403 
    7500    240.45992   -340.22406    165492.15   -16124.644    1209.8999   -17334.544    28.101776    1.1252403 
    7600    235.80586   -329.93341    165492.15   -16089.415    1186.4825   -17275.897    28.610512    1.1252403 
    7700    235.71191   -456.03074    165492.15   -16057.285    1186.0098   -17243.295    28.912848    1.1252403 
    7800    245.29431   -506.31623    165492.15   -16034.295    1234.2247    -17268.52     28.81622    1.1252403 
    7900    236.24958   -543.83784    165492.15   -16061.192    1188.7151   -17249.907    28.686024    1.1252403 
    8000    228.05943   -513.89074    165492.15   -16129.333    1147.5055   -17276.839    29.060804    1.1252403 
    8100    236.85596   -710.08769    165492.15   -16119.721    1191.7662   -17311.487    28.730438    1.1252403 
    8200    238.79981   -393.35628    165492.15   -16082.044    1201.5469   -17283.591    28.915229    1.1252403 
    8300    247.83333   -544.29225    165492.15    -16065.58         1247    -17312.58    28.974391    1.1252403 
    8400    243.35355   -519.14761    165492.15    -16075.37    1224.4595   -17299.829    29.009272    1.1252403 
    8500    230.55035   -404.34327    165492.15   -16149.844    1160.0388   -17309.882    29.451468    1.1252403 
    8600    234.79688   -576.45469    165492.15   -16145.824    1181.4057    -17327.23    29.972313    1.1252403 
    8700    238.42856   -532.03214    165492.15   -16106.888    1199.6789   -17306.567    30.556523    1.1252403 
    8800    235.60394   -536.05757    165492.15   -16077.903    1185.4665    -17263.37    30.785876    1.1252403 
    8900    239.86712   -368.74225    165492.15   -16062.551    1206.9172   -17269.468    30.992035    1.1252403 
    9000    238.29891   -500.77418    165492.15   -16065.801    1199.0265   -17264.827    31.204676    1.1252403 
    9100    235.41901   -452.98555    165492.15   -16060.314     1184.536    -17244.85    31.660086    1.1252403 
    9200    248.50754   -405.64534    165492.15   -16030.672    1250.3924   -17281.065    32.002797    1.1252403 
    9300    241.76983   -463.70601    165492.15   -16041.562    1216.4908   -17258.053    32.850629    1.1252403 
    9400    242.11015   -490.80566    165492.15   -16095.641    1218.2032   -17313.844    33.424274    1.1252403 
    9500    234.88181   -465.85107    165492.15   -16111.023     1181.833   -17292.856    33.848143    1.1252403 
    9600     233.2431   -371.64791    165492.15   -16082.415    1173.5877   -17256.003    34.024974    1.1252403 
    9700    241.65013   -331.70391    165492.15    -16035.16    1215.8886   -17251.049    34.376538    1.1252403 
    9800    239.86054   -608.93327    165492.15   -16019.164     1206.884   -17226.048    34.729856    1.1252403 
    9900    249.15229   -440.48223    165492.15    -16031.13    1253.6365   -17284.767    34.829697    1.1252403 
   10000    242.44591   -549.98545    165492.15    -16065.51    1219.8926   -17285.403    35.225359    1.1252403 
Loop time of 5.94681 on 128 procs for 10000 steps with 8493 atoms

Performance: 726.440 ns/day, 0.033 hours/ns, 1681.573 timesteps/s
96.7% CPU use with 128 MPI tasks x no OpenMP threads

MPI task timing breakdown:
Section |  min time  |  avg time  |  max time  |%varavg| %total
---------------------------------------------------------------
Pair    | 0.00073886 | 1.8401     | 4.4837     | 116.9 | 30.94
Neigh   | 0.0042562  | 0.13175    | 0.30999    |  27.8 |  2.22
Comm    | 0.19813    | 1.6746     | 3.7063     |  78.7 | 28.16
Output  | 0.14902    | 0.14911    | 0.14995    |   0.0 |  2.51
Modify  | 0.22804    | 2.0698     | 5.5134     | 133.8 | 34.80
Other   |            | 0.08151    |            |       |  1.37

Nlocal:        66.3516 ave         140 max           0 min
Histogram: 32 3 15 14 0 0 2 29 22 11
Nghost:        699.094 ave         917 max         491 min
Histogram: 17 3 18 15 12 16 10 21 2 14
Neighs:         0.00000 ave           0 max           0 min
Histogram: 128 0 0 0 0 0 0 0 0 0
FullNghs:      6960.81 ave       16657 max           0 min
Histogram: 40 24 0 0 0 0 13 32 11 8

Total # of neighbors = 890984
Ave neighs/atom = 104.90804
Neighbor list builds = 567
Dangerous builds = 0
write_data 	    ${DIR}/data.${NAME}_eq
write_data 	    run_9/data.${NAME}_eq
write_data 	    run_9/data.ibeam_cooling_9_eq
System init for write_data ...

undump              1
unfix 		3



################################################
#######         Run Simulation         #########
################################################

reset_timestep      0
timestep	    10.0
log                 ${DIR}/log.run_${NAME}
log                 run_9/log.run_${NAME}
log                 run_9/log.run_ibeam_cooling_9
