
### Dimensions ###


### IMPORT ATOMS ###
read_data ../Box_Setup/data.Ibeam_240K
  orthogonal box = (0 0 0) to (189.989 26.9999 39.8504)
  15 by 2 by 4 MPI processor grid
  reading atoms ...
  8482 atoms
  reading velocities ...
  8482 velocities
group water type 2
2436 atoms in group water
group graphite type 1
6046 atoms in group graphite


# Define potential
#
pair_style          sw
pair_coeff * * MLC_e.sw C mW

# Add velocity/set timestep
#

fix		1 graphite setforce 0.0 0.0 0.0
velocity 	graphite set 0.0 0.0 0.0
velocity            water create ${START_TEMP} ${SEED} rot yes dist gaussian
velocity            water create 240 ${SEED} rot yes dist gaussian
velocity            water create 240 24403 rot yes dist gaussian
timestep            5.0

# Define output
#
compute 1 water msd
compute 2 water temp


thermo	            100
thermo_style custom step c_2 press vol etotal ke pe c_1[4] density

# Neighbor lists
#
neigh_modify        delay 0 every 1 check yes


# Set fixes
#
fix                 2 water momentum 10 linear 1 1 1 rescale
fix                 3 all nve
fix                 4 water temp/csvr ${START_TEMP} ${START_TEMP} 500.0 928347
fix                 4 water temp/csvr 240 ${START_TEMP} 500.0 928347
fix                 4 water temp/csvr 240 240 500.0 928347

# Run 0.05 ns equilibration
#
dump                1 all custom 100 ${DIR}/eq.${NAME}.dump id type x y z vx vy vz
dump                1 all custom 100 run_26/eq.${NAME}.dump id type x y z vx vy vz
dump                1 all custom 100 run_26/eq.ibeam_cooling_26.dump id type x y z vx vy vz
run                 10000
Neighbor list info ...
  update every 1 steps, delay 0 steps, check yes
  max neighbors/atom: 2000, page size: 100000
  master list distance cutoff = 6.67472
  ghost atom cutoff = 6.67472
  binsize = 3.33736, bins = 57 9 12
  1 neighbor lists, perpetual/occasional/extra = 1 0 0
  (1) pair sw, perpetual
      attributes: full, newton on
      pair build: full/bin/atomonly
      stencil: full/bin/3d
      bin: standard
Per MPI rank memory allocation (min/avg/max) = 0.4705 | 3.837 | 4.747 Mbytes
Step c_2 Press Volume TotEng KinEng PotEng c_1[4] Density 
       0          240   -262.64038    204420.41   -23347.773    1741.9854   -25089.758            0   0.94632332 
     100    234.13992   -231.63375    204420.41    -23355.85    1699.4514   -25055.301   0.82467503   0.94632332 
     200    234.71883   -48.363419    204420.41    -23383.45    1703.6533   -25087.103    1.3375559   0.94632332 
     300    233.36212   -200.83618    204420.41    -23369.16    1693.8058   -25062.966    1.7531633   0.94632332 
     400    238.23625   -158.65522    204420.41   -23362.034    1729.1836   -25091.218    2.0711716   0.94632332 
     500    237.24644   -369.44951    204420.41   -23333.968    1721.9993   -25055.968    2.3502065   0.94632332 
     600    240.36107   -240.39268    204420.41   -23260.842    1744.6061   -25005.448    2.6465556   0.94632332 
     700    241.16947   -226.91227    204420.41   -23260.833    1750.4737   -25011.307    2.9977569   0.94632332 
     800    236.17738   -337.68868    204420.41   -23235.312    1714.2398   -24949.551    3.2739044   0.94632332 
     900    244.48547   -487.57549    204420.41    -23243.45    1774.5421   -25017.993    3.6356592   0.94632332 
    1000    243.28472   -347.74596    204420.41   -23275.011    1765.8268   -25040.838      3.98952   0.94632332 
    1100    241.26518   -305.16661    204420.41   -23260.666    1751.1684   -25011.834    4.2307615   0.94632332 
    1200    242.45117   -69.332823    204420.41   -23275.353    1759.7766    -25035.13    4.5149691   0.94632332 
    1300    247.99714   -389.37232    204420.41   -23246.594    1800.0308   -25046.624    4.8145487   0.94632332 
    1400     241.7637   -152.37212    204420.41   -23279.174    1754.7868   -25033.961    5.1536683   0.94632332 
    1500    235.47558   -169.01476    204420.41   -23322.302    1709.1459   -25031.447    5.4511413   0.94632332 
    1600    236.77309   -497.84831    204420.41   -23291.727    1718.5636    -25010.29    5.7857007   0.94632332 
    1700    239.98941   -493.05071    204420.41   -23289.685    1741.9086   -25031.594    6.0876179   0.94632332 
    1800    245.95611   -356.07983    204420.41   -23250.918    1785.2164   -25036.134     6.452988   0.94632332 
    1900    239.35254   -358.36592    204420.41   -23208.456     1737.286   -24945.742    6.8933338   0.94632332 
    2000    245.39576   -280.03891    204420.41   -23175.719    1781.1493   -24956.868    7.2522577   0.94632332 
    2100    237.56689   -380.18407    204420.41   -23281.248    1724.3253   -25005.573    7.3925166   0.94632332 
    2200    239.89695    -274.6941    204420.41   -23235.013    1741.2375    -24976.25    7.5935674   0.94632332 
    2300    247.84851   -272.12263    204420.41   -23215.923     1798.952   -25014.875    7.9572741   0.94632332 
    2400     241.4242   -246.97959    204420.41   -23230.618    1752.3226   -24982.941    8.3606727   0.94632332 
    2500    241.34087   -83.848538    204420.41   -23261.567    1751.7178   -25013.285     8.845811   0.94632332 
    2600    239.88509   -324.88647    204420.41   -23279.579    1741.1513    -25020.73    9.4386177   0.94632332 
    2700    243.22994   -450.07796    204420.41   -23281.536    1765.4292   -25046.965    9.9817318   0.94632332 
    2800    245.28672   -474.71907    204420.41   -23222.685    1780.3578   -25003.043    10.381311   0.94632332 
    2900     241.1172   -250.12454    204420.41   -23235.464    1750.0943   -24985.558    10.947161   0.94632332 
    3000    245.14284   -260.84031    204420.41    -23224.62    1779.3135   -25003.934    11.324752   0.94632332 
    3100    241.38344   -294.10591    204420.41   -23202.765    1752.0268   -24954.792    11.796552   0.94632332 
    3200     242.9039   -202.95972    204420.41   -23268.473    1763.0627   -25031.536    12.284925   0.94632332 
    3300    231.58838   -366.77648    204420.41   -23359.945    1680.9315   -25040.877    12.601207   0.94632332 
    3400    236.49298   -339.69146    204420.41   -23317.041    1716.5305   -25033.572     12.89535   0.94632332 
    3500    235.79626   -244.99759    204420.41   -23304.315    1711.4735   -25015.788    13.096769   0.94632332 
    3600    244.52644   -315.34893    204420.41    -23305.04    1774.8395    -25079.88    13.393172   0.94632332 
    3700    239.32888   -252.14153    204420.41   -23282.183    1737.1142   -25019.297    13.828229   0.94632332 
    3800    242.72368    -251.1567    204420.41   -23268.442    1761.7546   -25030.196    14.060112   0.94632332 
    3900    237.03214   -107.05152    204420.41   -23264.132    1720.4438   -24984.576    14.417589   0.94632332 
    4000    235.32329   -375.99735    204420.41   -23296.052    1708.0405   -25004.093    14.821228   0.94632332 
    4100    242.24661    -393.1098    204420.41   -23275.209    1758.2919   -25033.501    15.437353   0.94632332 
    4200    242.43334   -375.39751    204420.41   -23251.778    1759.6473   -25011.425    16.016075   0.94632332 
    4300    238.59265   -218.18803    204420.41   -23315.511    1731.7704   -25047.281    16.512472   0.94632332 
    4400    238.11486   -292.08764    204420.41   -23281.108    1728.3026    -25009.41    16.975218   0.94632332 
    4500    244.00245   -218.61288    204420.41   -23321.317    1771.0363   -25092.353     17.26154   0.94632332 
    4600    236.49979   -378.79756    204420.41   -23372.747    1716.5799   -25089.327    17.487623   0.94632332 
    4700    233.70537   -381.55852    204420.41   -23302.153    1696.2972   -24998.451    17.822206   0.94632332 
    4800    239.90731   -433.27731    204420.41   -23259.989    1741.3127   -25001.302    18.272821   0.94632332 
    4900    240.62412   -184.71583    204420.41   -23220.046    1746.5154   -24966.561    18.760663   0.94632332 
    5000    238.82788   -404.58367    204420.41   -23280.619    1733.4778   -25014.097    19.285534   0.94632332 
    5100    247.39524   -357.06305    204420.41   -23243.094    1795.6621   -25038.756    19.766557   0.94632332 
    5200    237.69639   -519.74879    204420.41    -23296.09    1725.2652   -25021.356    19.752924   0.94632332 
    5300    233.80242   -518.06083    204420.41   -23352.605    1697.0017   -25049.606    20.014043   0.94632332 
    5400    238.35679   -348.60607    204420.41   -23347.353    1730.0585   -25077.412    20.012618   0.94632332 
    5500    240.60872   -356.29762    204420.41   -23320.769    1746.4037   -25067.173    20.135504   0.94632332 
    5600     241.5779    -276.9998    204420.41   -23348.457    1753.4382   -25101.896    20.378635   0.94632332 
    5700    239.64863    -195.3733    204420.41   -23330.361    1739.4351   -25069.796    20.687908   0.94632332 
    5800    238.17274   -278.74333    204420.41   -23315.248    1728.7226   -25043.971    21.191109   0.94632332 
    5900    240.45113   -184.75482    204420.41   -23322.809    1745.2598   -25068.069    21.730852   0.94632332 
    6000     239.9031   -488.68286    204420.41    -23346.06    1741.2821   -25087.342    22.157686   0.94632332 
    6100    238.46144   -425.18801    204420.41   -23361.416    1730.8181   -25092.234     22.55923   0.94632332 
    6200    237.63418   -369.48451    204420.41   -23371.404    1724.8137   -25096.217    22.833115   0.94632332 
    6300    243.56039   -403.47123    204420.41   -23295.994    1767.8277   -25063.822    23.036802   0.94632332 
    6400    240.12887   -204.52279    204420.41   -23332.793    1742.9208   -25075.714     23.29332   0.94632332 
    6500    237.59069   -391.15213    204420.41   -23342.483     1724.498   -25066.981    23.673743   0.94632332 
    6600     240.7768    -547.0219    204420.41    -23346.14    1747.6236   -25093.764    24.153424   0.94632332 
    6700    239.57033   -358.86437    204420.41   -23365.729    1738.8668   -25104.596    24.567466   0.94632332 
    6800    238.83987   -392.79183    204420.41   -23364.122    1733.5649   -25097.687    24.775854   0.94632332 
    6900    243.31528   -293.92575    204420.41   -23319.693    1766.0486   -25085.742    25.214271   0.94632332 
    7000    238.02496   -418.12949    204420.41   -23336.587      1727.65   -25064.237    25.663189   0.94632332 
    7100     239.6826   -132.29633    204420.41    -23336.86    1739.6816   -25076.542    25.986987   0.94632332 
    7200     236.6277    -243.8992    204420.41   -23385.877    1717.5083   -25103.386    26.542427   0.94632332 
    7300    233.73287   -95.975981    204420.41   -23410.383    1696.4968    -25106.88    26.832248   0.94632332 
    7400    236.47011   -294.79454    204420.41   -23365.013    1716.3645   -25081.377    27.145192   0.94632332 
    7500      241.166   -274.93315    204420.41   -23336.321    1750.4485    -25086.77    27.558437   0.94632332 
    7600    234.34249   -219.91227    204420.41   -23284.508    1700.9217    -24985.43     27.82564   0.94632332 
    7700    242.94994   -385.38847    204420.41   -23299.463    1763.3968    -25062.86    28.180904   0.94632332 
    7800    234.06801   -409.28243    204420.41    -23365.98    1698.9294    -25064.91    28.362541   0.94632332 
    7900    234.72302   -412.20176    204420.41   -23332.925    1703.6836   -25036.609    28.727066   0.94632332 
    8000    243.99364   -390.86392    204420.41   -23259.191    1770.9723   -25030.163    28.851123   0.94632332 
    8100    240.61992   -183.66825    204420.41   -23243.616     1746.485   -24990.101    29.322869   0.94632332 
    8200    233.22164   -348.62838    204420.41    -23252.02    1692.7862   -24944.806    29.513082   0.94632332 
    8300    244.43672    -310.3077    204420.41   -23202.094    1774.1883   -24976.283    29.834441   0.94632332 
    8400    248.40468   -341.76741    204420.41   -23204.745    1802.9888   -25007.734    30.092142   0.94632332 
    8500    240.30566   -544.16908    204420.41   -23236.578    1744.2039   -24980.782    30.856153   0.94632332 
    8600    243.36516   -349.23931    204420.41   -23256.311    1766.4106   -25022.722    30.881094   0.94632332 
    8700    246.30902   -247.45509    204420.41   -23284.621     1787.778   -25072.399    31.323226   0.94632332 
    8800    239.89588   -307.87998    204420.41   -23283.642    1741.2296   -25024.872    31.858049   0.94632332 
    8900    238.79583   -358.77639    204420.41   -23331.513    1733.2452   -25064.758    32.539037   0.94632332 
    9000    243.19754   -225.35778    204420.41   -23303.801     1765.194   -25068.995    32.865991   0.94632332 
    9100    240.36125   -376.92766    204420.41   -23316.996    1744.6074   -25061.603    33.474025   0.94632332 
    9200    239.88707   -365.94538    204420.41   -23266.903    1741.1657   -25008.069    33.598495   0.94632332 
    9300    234.52139    -489.8977    204420.41   -23323.593    1702.2202   -25025.813    33.895519   0.94632332 
    9400    243.25866   -180.97174    204420.41   -23286.106    1765.6377   -25051.743     34.48425   0.94632332 
    9500    235.81708   -402.89864    204420.41   -23311.639    1711.6246   -25023.264    34.710413   0.94632332 
    9600    232.71483   -319.96736    204420.41   -23322.747    1689.1076   -25011.855    34.959784   0.94632332 
    9700    237.74607   -294.38607    204420.41   -23291.857    1725.6258   -25017.483    35.370174   0.94632332 
    9800    245.95914   -270.88968    204420.41   -23229.725    1785.2385   -25014.963    36.080187   0.94632332 
    9900     239.3014   -323.20461    204420.41   -23276.256    1736.9148   -25013.171    36.697659   0.94632332 
   10000    243.12845   -352.02964    204420.41   -23288.103    1764.6925   -25052.795    36.945214   0.94632332 
Loop time of 17.0931 on 120 procs for 10000 steps with 8482 atoms

Performance: 252.734 ns/day, 0.095 hours/ns, 585.033 timesteps/s
97.9% CPU use with 120 MPI tasks x no OpenMP threads

MPI task timing breakdown:
Section |  min time  |  avg time  |  max time  |%varavg| %total
---------------------------------------------------------------
Pair    | 0.00048566 | 4.38       | 14.649     | 252.5 | 25.62
Neigh   | 0.00038075 | 0.12895    | 0.49912    |  42.7 |  0.75
Comm    | 0.012649   | 4.6245     | 13.146     | 243.7 | 27.05
Output  | 0.16291    | 0.16308    | 0.16967    |   0.2 |  0.95
Modify  | 0.40731    | 7.6764     | 16.799     | 262.7 | 44.91
Other   |            | 0.1202     |            |       |  0.70

Nlocal:    70.6833 ave 226 max 0 min
Histogram: 48 1 41 0 0 0 0 0 12 18
Nghost:    608.958 ave 1008 max 0 min
Histogram: 12 4 0 4 3 32 20 11 22 12
Neighs:    0 ave 0 max 0 min
Histogram: 120 0 0 0 0 0 0 0 0 0
FullNghs:  7076.43 ave 28436 max 0 min
Histogram: 63 27 0 0 0 0 0 5 13 12

Total # of neighbors = 849172
Ave neighs/atom = 100.115
Neighbor list builds = 579
Dangerous builds = 0
write_data 	    ${DIR}/data.${NAME}_eq
write_data 	    run_26/data.${NAME}_eq
write_data 	    run_26/data.ibeam_cooling_26_eq

undump              1
unfix               4



################################################
#######         Run Simulation         #########
################################################

reset_timestep      0
timestep	    10.0
log                 ${DIR}/log.run_${NAME}
log                 run_26/log.run_${NAME}
log                 run_26/log.run_ibeam_cooling_26
