

### IMPORT ATOMS ###
read_data ../Box_Setup/data.Ibeam_240K
  orthogonal box = (0 0 0) to (157.504 40.4305 33.9212)
  10 by 4 by 4 MPI processor grid
  reading atoms ...
  9248 atoms
  reading velocities ...
  9248 velocities
group water type 2
1952 atoms in group water
group graphite type 1
7296 atoms in group graphite


# Define potential
#
pair_style          sw
pair_coeff * * MLC_e.sw C mW

# Add velocity/set timestep
#

fix		1 graphite setforce 0.0 0.0 0.0
velocity 	graphite set 0.0 0.0 0.0
velocity            water create ${START_TEMP} ${SEED} rot yes dist gaussian
velocity            water create 240 ${SEED} rot yes dist gaussian
velocity            water create 240 31348 rot yes dist gaussian
timestep            5.0

# Define output
#
compute 1 water msd
compute 2 water temp


thermo	            100
thermo_style custom step c_2 press vol etotal ke pe c_1[4] density

# Neighbor lists
#
neigh_modify        delay 0 every 1 check yes


# Set fixes
#
fix                 2 water momentum 10 linear 1 1 1 rescale
fix                 3 all nve
fix                 4 water temp/csvr ${START_TEMP} ${START_TEMP} 500.0 928347
fix                 4 water temp/csvr 240 ${START_TEMP} 500.0 928347
fix                 4 water temp/csvr 240 240 500.0 928347

# Run 0.05 ns equilibration
#
dump                1 all custom 100 ${DIR}/eq.${NAME}.dump id type x y z vx vy vz
dump                1 all custom 100 run_7/eq.${NAME}.dump id type x y z vx vy vz
dump                1 all custom 100 run_7/eq.ibeam_cooling_7.dump id type x y z vx vy vz
run                 10000
Neighbor list info ...
  update every 1 steps, delay 0 steps, check yes
  max neighbors/atom: 2000, page size: 100000
  master list distance cutoff = 6.67472
  ghost atom cutoff = 6.67472
  binsize = 3.33736, bins = 48 13 11
  1 neighbor lists, perpetual/occasional/extra = 1 0 0
  (1) pair sw, perpetual
      attributes: full, newton on
      pair build: full/bin/atomonly
      stencil: full/bin/3d
      bin: standard
Per MPI rank memory allocation (min/avg/max) = 0.4647 | 3.681 | 4.743 Mbytes
Step c_2 Press Volume TotEng KinEng PotEng c_1[4] Density 
       0          240   -299.33439    216009.12   -18704.344    1395.7345   -20100.079            0   0.94393226 
     100    237.20144   -112.62529    216009.12    -18719.24    1379.4593     -20098.7   0.81492218   0.94393226 
     200    237.01085     -419.963    216009.12   -18765.103    1378.3509   -20143.454    1.2079665   0.94393226 
     300     238.9966   -487.38464    216009.12   -18736.074    1389.8992   -20125.974    1.5349444   0.94393226 
     400    234.90085   -345.17313    216009.12   -18750.846    1366.0801   -20116.926    1.7977799   0.94393226 
     500    240.05729   -181.68136    216009.12   -18731.554    1396.0677   -20127.621    2.1236476   0.94393226 
     600    243.38374   -272.09398    216009.12   -18640.044    1415.4129   -20055.456    2.3440368   0.94393226 
     700    248.48651   -410.24861    216009.12   -18637.411    1445.0883   -20082.499    2.7289555   0.94393226 
     800    248.32042   -372.85316    216009.12   -18619.897    1444.1224   -20064.019    3.1644556   0.94393226 
     900    237.81661   -333.11543    216009.12    -18647.76    1383.0369   -20030.797     3.499937   0.94393226 
    1000    234.14669   -232.62174    216009.12   -18674.949    1361.6942   -20036.643    3.8447429   0.94393226 
    1100    242.43137   -62.547122    216009.12   -18656.893    1409.8743   -20066.767    4.3366726   0.94393226 
    1200    232.54483   -284.76754    216009.12   -18653.533    1352.3785   -20005.911    4.7818663   0.94393226 
    1300    239.81142    -235.6281    216009.12   -18617.079    1394.6378   -20011.717    5.2021022   0.94393226 
    1400    245.25504    -394.7288    216009.12   -18656.384    1426.2955   -20082.679    5.6485314   0.94393226 
    1500    242.29661   -456.29588    216009.12   -18678.915    1409.0906   -20088.006    6.1264536   0.94393226 
    1600    242.62406   -359.00427    216009.12   -18668.742    1410.9949   -20079.737     6.554086   0.94393226 
    1700    234.82616   -370.19209    216009.12   -18674.614    1365.6457    -20040.26    6.8676847   0.94393226 
    1800    243.16864   -356.33159    216009.12   -18644.624    1414.1619   -20058.786    7.1312249   0.94393226 
    1900    247.45889   -364.44353    216009.12   -18618.363    1439.1121   -20057.476    7.4799357   0.94393226 
    2000    247.07783   -155.30315    216009.12   -18593.699     1436.896   -20030.595    7.7952855   0.94393226 
    2100    241.01059   -256.88859    216009.12   -18677.689    1401.6116     -20079.3    8.0544877   0.94393226 
    2200    250.70124   -344.84027    216009.12     -18650.2    1457.9682   -20108.169    8.3124518   0.94393226 
    2300    244.62398   -411.32286    216009.12    -18621.79    1422.6255   -20044.415    8.5376433   0.94393226 
    2400    244.54604   -335.56959    216009.12   -18610.821    1422.1723   -20032.994    8.9945581   0.94393226 
    2500    243.38329   -280.46989    216009.12   -18637.113    1415.4102   -20052.523    9.4146311   0.94393226 
    2600    244.91099   -309.95634    216009.12   -18642.017    1424.2946   -20066.312    9.7690376   0.94393226 
    2700    244.75335   -297.70573    216009.12   -18650.467    1423.3779   -20073.845     10.10459   0.94393226 
    2800    242.17576   -207.29268    216009.12   -18613.532    1408.3878    -20021.92    10.125165   0.94393226 
    2900    240.95429    -268.5528    216009.12   -18632.837    1401.2842   -20034.121     10.53879   0.94393226 
    3000    243.52561   -229.33212    216009.12   -18619.343    1416.2379   -20035.581    10.907824   0.94393226 
    3100    244.45067   -398.34488    216009.12   -18600.006    1421.6176   -20021.623    11.070552   0.94393226 
    3200    238.97473    -450.6264    216009.12     -18657.1     1389.772   -20046.872    11.419984   0.94393226 
    3300    236.97392   -246.70651    216009.12   -18725.513    1378.1361   -20103.649    11.650137   0.94393226 
    3400    232.05451   -238.95295    216009.12   -18658.218     1349.527   -20007.745    11.850989   0.94393226 
    3500    238.39566   -270.28494    216009.12   -18641.458    1386.4044   -20027.863    11.950188   0.94393226 
    3600     242.8944    -343.5962    216009.12   -18629.433    1412.5671       -20042    12.371842   0.94393226 
    3700    241.87107   -381.05679    216009.12   -18614.491    1406.6158   -20021.106    12.926697   0.94393226 
    3800    243.15318   -219.11835    216009.12   -18596.943     1414.072   -20011.015    13.080394   0.94393226 
    3900    236.88465   -170.18057    216009.12   -18602.629     1377.617   -19980.246    13.420503   0.94393226 
    4000     235.5924    -174.0715    216009.12   -18650.827    1370.1018   -20020.928    13.766478   0.94393226 
    4100    234.97368   -303.66881    216009.12   -18637.446    1366.5036   -20003.949    14.049646   0.94393226 
    4200    235.07293   -206.89771    216009.12   -18614.604    1367.0808   -19981.685    14.084229   0.94393226 
    4300    237.65204   -226.86782    216009.12   -18662.926    1382.0798   -20045.006    14.379075   0.94393226 
    4400    237.47544   -154.68762    216009.12   -18623.657    1381.0528    -20004.71     14.79542   0.94393226 
    4500    238.30384   -287.35293    216009.12   -18646.898    1385.8704   -20032.769    15.382594   0.94393226 
    4600    231.97537   -281.26504    216009.12   -18705.053    1349.0668    -20054.12    15.619677   0.94393226 
    4700    243.23286   -311.12647    216009.12   -18627.464    1414.5354   -20041.999    15.888253   0.94393226 
    4800    238.21155   -243.28977    216009.12   -18595.371    1385.3337   -19980.704    16.360662   0.94393226 
    4900    250.77811   -424.73546    216009.12   -18556.663    1458.4152   -20015.078    16.729943   0.94393226 
    5000    239.24492    -285.7976    216009.12   -18608.583    1391.3433   -19999.927    17.150747   0.94393226 
    5100    244.39339   -305.09651    216009.12   -18586.625    1421.2845   -20007.909    17.429573   0.94393226 
    5200    237.89379   -354.52599    216009.12   -18622.319    1383.4857   -20005.805    17.885395   0.94393226 
    5300     229.4154   -374.15169    216009.12   -18670.255    1334.1791   -20004.434    18.022145   0.94393226 
    5400    239.04692   -395.82842    216009.12   -18657.235    1390.1918   -20047.426    18.374031   0.94393226 
    5500    240.29851    -285.1633    216009.12   -18652.511    1397.4705   -20049.982    18.762381   0.94393226 
    5600    233.06264   -202.15604    216009.12   -18675.675    1355.3898   -20031.065    18.971403   0.94393226 
    5700    238.20365   -337.40694    216009.12   -18636.883    1385.2877   -20022.171     19.51695   0.94393226 
    5800    243.84894   -380.14144    216009.12   -18647.254    1418.1182   -20065.372    19.915568   0.94393226 
    5900    237.31592   -145.84942    216009.12   -18676.412    1380.1251   -20056.537     20.32982   0.94393226 
    6000    234.08273    -271.8436    216009.12   -18689.594    1361.3223   -20050.917    20.639701   0.94393226 
    6100    234.34459    -447.1277    216009.12   -18708.298    1362.8451   -20071.143    20.890449   0.94393226 
    6200    235.46649   -137.79087    216009.12   -18695.297    1369.3696   -20064.667    21.103676   0.94393226 
    6300    244.97555   -378.81472    216009.12   -18630.533    1424.6701   -20055.203     21.44671   0.94393226 
    6400    240.59376   -301.16452    216009.12   -18658.936    1399.1876   -20058.123    22.105531   0.94393226 
    6500     241.5979    -266.7056    216009.12   -18664.424    1405.0272   -20069.451     22.44463   0.94393226 
    6600    237.91324   -171.59979    216009.12   -18688.813    1383.5988   -20072.412    22.847807   0.94393226 
    6700    233.50583   -394.83349    216009.12   -18686.187    1357.9673   -20044.154    22.986056   0.94393226 
    6800     238.0766   -433.30872    216009.12   -18677.782    1384.5488   -20062.331     23.18965   0.94393226 
    6900    241.88219   -448.57022    216009.12   -18633.576    1406.6805   -20040.257    23.347669   0.94393226 
    7000    237.78546   -339.29689    216009.12   -18626.035    1382.8557   -20008.891    23.729056   0.94393226 
    7100    239.00392   -295.11898    216009.12   -18638.612    1389.9417   -20028.554    24.152838   0.94393226 
    7200    233.19223   -198.61074    216009.12   -18685.912    1356.1435   -20042.056    24.359204   0.94393226 
    7300    234.81019    -206.7933    216009.12   -18706.157    1365.5528    -20071.71      24.8525   0.94393226 
    7400    243.26023   -293.11568    216009.12   -18674.679    1414.6946   -20089.374    25.012582   0.94393226 
    7500    237.51967   -169.24889    216009.12   -18665.883      1381.31   -20047.193    24.986716   0.94393226 
    7600    238.09274   -303.82125    216009.12   -18622.438    1384.6427   -20007.081    25.484222   0.94393226 
    7700    242.53754   -347.75541    216009.12   -18623.227    1410.4917   -20033.718    25.869862   0.94393226 
    7800    236.31081   -301.71613    216009.12   -18672.362    1374.2798   -20046.642    26.024374   0.94393226 
    7900    242.68937   -412.25129    216009.12   -18632.082    1411.3747   -20043.456    25.930967   0.94393226 
    8000    242.50123   -254.83105    216009.12   -18587.193    1410.2806   -19997.473    26.080224   0.94393226 
    8100    243.27419   -252.31626    216009.12   -18585.794    1414.7758    -20000.57    26.438035   0.94393226 
    8200    242.24579   -334.62222    216009.12   -18603.102     1408.795   -20011.897     26.95796   0.94393226 
    8300     243.3095   -250.03796    216009.12   -18572.485    1414.9811   -19987.466    27.294176   0.94393226 
    8400    249.93501   -263.90892    216009.12   -18551.907    1453.5121   -20005.419    27.947159   0.94393226 
    8500    239.14918   -253.05489    216009.12   -18579.523    1390.7865    -19970.31    28.525515   0.94393226 
    8600    236.86683   -363.73503    216009.12   -18584.391    1377.5134   -19961.904    28.680615   0.94393226 
    8700     236.8963   -367.73827    216009.12   -18594.529    1377.6848   -19972.214    28.928411   0.94393226 
    8800    241.93888   -245.12946    216009.12    -18608.79    1407.0102     -20015.8    29.474406   0.94393226 
    8900    243.17925   -241.58161    216009.12   -18645.905    1414.2236   -20060.129    29.999869   0.94393226 
    9000    239.62344   -335.86151    216009.12   -18619.238    1393.5446   -20012.782    30.437731   0.94393226 
    9100    238.02971   -230.72242    216009.12    -18649.79    1384.2762   -20034.066     30.94664   0.94393226 
    9200    240.79313   -439.04164    216009.12   -18604.721     1400.347   -20005.068    31.260291   0.94393226 
    9300    234.83245   -439.33748    216009.12   -18667.096    1365.6823   -20032.779     31.28434   0.94393226 
    9400    241.69969   -167.89581    216009.12   -18652.026    1405.6192   -20057.645    31.316337   0.94393226 
    9500    240.10151   -197.35848    216009.12   -18692.479    1396.3248   -20088.804    31.673057   0.94393226 
    9600    238.33847   -290.79893    216009.12   -18715.736    1386.0717   -20101.808    31.802037   0.94393226 
    9700     243.8058    -418.8155    216009.12   -18685.967    1417.8674   -20103.834    32.001756   0.94393226 
    9800    240.85245   -319.22502    216009.12   -18649.477     1400.692   -20050.169    32.700879   0.94393226 
    9900    243.96808   -343.10574    216009.12   -18679.398    1418.8111   -20098.209    33.401827   0.94393226 
   10000    241.50921   -283.27319    216009.12   -18682.901    1404.5114   -20087.412    33.970325   0.94393226 
Loop time of 14.6805 on 160 procs for 10000 steps with 9248 atoms

Performance: 294.267 ns/day, 0.082 hours/ns, 681.173 timesteps/s
97.6% CPU use with 160 MPI tasks x no OpenMP threads

MPI task timing breakdown:
Section |  min time  |  avg time  |  max time  |%varavg| %total
---------------------------------------------------------------
Pair    | 0.00046802 | 2.9681     | 11.863     | 236.7 | 20.22
Neigh   | 0.00033569 | 0.09498    | 0.38079    |  39.4 |  0.65
Comm    | 0.014086   | 3.5181     | 11.675     | 218.0 | 23.96
Output  | 0.17546    | 0.17564    | 0.1825     |   0.1 |  1.20
Modify  | 0.41022    | 7.6981     | 14.287     | 220.8 | 52.44
Other   |            | 0.2256     |            |       |  1.54

Nlocal:    57.8 ave 196 max 0 min
Histogram: 72 21 27 0 0 0 0 0 13 27
Nghost:    535.575 ave 928 max 0 min
Histogram: 24 0 0 8 8 42 30 16 23 9
Neighs:    0 ave 0 max 0 min
Histogram: 160 0 0 0 0 0 0 0 0 0
FullNghs:  5905.26 ave 23607 max 0 min
Histogram: 102 18 0 0 0 0 0 1 20 19

Total # of neighbors = 944842
Ave neighs/atom = 102.167
Neighbor list builds = 569
Dangerous builds = 0
write_data 	    ${DIR}/data.${NAME}_eq
write_data 	    run_7/data.${NAME}_eq
write_data 	    run_7/data.ibeam_cooling_7_eq

undump              1
unfix               4



################################################
#######         Run Simulation         #########
################################################

reset_timestep      0
timestep	    10.0
log                 ${DIR}/log.run_${NAME}
log                 run_7/log.run_${NAME}
log                 run_7/log.run_ibeam_cooling_7
