
# Set production fixes - Nose/Hoover
#
fix                 4 water temp/csvr ${START_TEMP} ${END_TEMP} 500.0 928347
fix                 4 water temp/csvr 235 ${END_TEMP} 500.0 928347
fix                 4 water temp/csvr 235 225 500.0 928347


## divide "droplet" into core and surface
#region		core_reg cylinder z 135 135 44.6 20 INF units box
#region		surface_reg cylinder z 135 135 44.6 20 INF units box side out
#group		core dynamic all region core_reg
#group		surface dynamic all region surface_reg

## compute pressure core
#compute        peratom_core core stress/atom NULL
#compute        p_core core reduce sum c_peratom_core[1] c_peratom_core[2] c_peratom_core[3]
#variable       press_core equal -(c_p_core[1]+c_p_core[2]+c_p_core[3])/(3*1249982.5)


## compute pressure surface
#compute        peratom_surf surface stress/atom NULL
#compute        p_surf surface reduce sum c_peratom_surf[1] c_peratom_surf[2] #c_peratom_surf[3]
#variable       press_surf equal -(c_p_surf[1]+c_p_surf[2]+c_p_surf[3])/(3*42395)

## compute total pressure of drop
compute        peratom water stress/atom NULL
compute        p water reduce sum c_peratom[1] c_peratom[2] c_peratom[3]
variable       press equal -(c_p[1]+c_p[2]+c_p[3])/(3*50402)


# compute order parameter
compute        3 all orientorder/atom nnn NULL cutoff 3.5

# compute center of mass of bridge
compute 	4 water com

# Run simulation
thermo_style        custom step c_2 press vol etotal ke pe v_press c_1[4] c_4[*]
thermo              200
dump		     1 water custom 400 ${DIR}/prod.${NAME}.dump id type x y z vx vy vz c_3[*] c_peratom[*]
dump		     1 water custom 400 run_10/prod.${NAME}.dump id type x y z vx vy vz c_3[*] c_peratom[*]
dump		     1 water custom 400 run_10/prod.ibeam_cooling_10.dump id type x y z vx vy vz c_3[*] c_peratom[*]
run                 ${STEPS}
run                 4000000
Neighbor list info ...
  update every 1 steps, delay 0 steps, check yes
  max neighbors/atom: 2000, page size: 100000
  master list distance cutoff = 6.6747184
  ghost atom cutoff = 6.6747184
  binsize = 3.3373592, bins = 24 25 11
  2 neighbor lists, perpetual/occasional/extra = 1 1 0
  (1) pair sw, perpetual
      attributes: full, newton on
      pair build: full/bin/atomonly
      stencil: full/bin/3d
      bin: standard
  (2) compute orientorder/atom, occasional, copy from (1)
      attributes: full, newton on
      pair build: copy
      stencil: none
      bin: none
Per MPI rank memory allocation (min/avg/max) = 6.174 | 6.835 | 7.293 Mbytes
Step c_2 Press Volume TotEng KinEng PotEng v_press c_1[4] c_4[1] c_4[2] c_4[3] 
       0    234.17124   -368.36143    216156.16   -20214.676    1483.2925   -21697.968   -913.65427    30.688655    39.426565    39.239021    23.673595 
     200    232.18773   -561.65286    216156.16   -20209.728    1470.7285   -21680.456    -1725.351    31.690444    39.426316    39.239559    23.684227 
     400    230.21555   -350.87534    216156.16   -20195.658    1458.2363   -21653.894   -868.18934    33.172913    39.426408    39.238595    23.688559 
     600    235.94316    -238.2818    216156.16   -20095.397    1494.5162   -21589.913   -353.01068    34.570649     39.42495    39.237874    23.658118 
     800    237.48171   -421.43773    216156.16   -20122.585    1504.2617   -21626.846   -1144.8297    35.669125    39.424996    39.238479    23.634443 
    1000    228.96613   -261.09605    216156.16   -20190.845    1450.3222   -21641.167   -489.50178    37.699806    39.425478    39.239739     23.64363 
    1200    238.41012     -482.388    216156.16   -20162.121    1510.1425   -21672.264   -1400.7847     39.12476     39.42789    39.241704      23.6553 
    1400    240.72477   -405.38316    216156.16   -20153.401     1524.804   -21678.205   -1057.1086    40.006003    39.430072    39.243002    23.644193 
    1600    240.49254   -287.89875    216156.16   -20156.579     1523.333   -21679.913   -574.31959    40.843838    39.431123     39.24411    23.638086 
    1800    236.12811   -358.88954    216156.16   -20149.512    1495.6877   -21645.199   -872.24522    41.814936    39.430162    39.244705    23.641752 
    2000    245.17682   -431.73088    216156.16   -20082.041    1553.0042   -21635.045    -1206.457    42.568537    39.429807    39.246216    23.661652 
    2200    232.58759   -368.08299    216156.16   -20162.179    1473.2613   -21635.441   -920.32608    42.937743    39.428024     39.24637    23.689707 
    2400     235.4293   -426.28664    216156.16   -20126.251    1491.2613   -21617.512   -1169.4793    44.522445    39.426028    39.245238    23.710096 
    2600    235.37803   -367.60775    216156.16   -20180.422    1490.9365   -21671.358   -925.03707    46.046579    39.424416    39.245339    23.719699 
    2800    236.43104   -283.45804    216156.16   -20070.292    1497.6065   -21567.899   -586.95512    47.329672    39.421934    39.244205    23.715967 
    3000    237.62494   -411.04995    216156.16   -20121.656     1505.169   -21626.825   -1113.6534    48.783647    39.417812    39.244512    23.708035 
    3200    233.39668   -408.95651    216156.16   -20198.851    1478.3862   -21677.237   -1108.0228    49.298397    39.416775    39.242139    23.699645 
    3400    235.34821   -334.34778    216156.16   -20196.911    1490.7477   -21687.659   -804.16185    50.767579    39.417914    39.241745    23.677824 
    3600    240.68562   -522.02639    216156.16   -20202.308     1524.556   -21726.864   -1553.2113    52.317466     39.41977    39.242463    23.671945 
    3800    235.90385   -441.58357    216156.16   -20151.581    1494.2672   -21645.848   -1238.6833    53.561612    39.421157    39.243634    23.676574 
    4000     232.8164   -403.98424    216156.16   -20182.874    1474.7106   -21657.585   -1039.3372    54.649664    39.419111    39.243834    23.677221 
    4200    235.86725   -303.17548    216156.16   -20168.147    1494.0353   -21662.182   -631.35505    55.378506    39.418778    39.242016    23.678585 
    4400    234.80024   -426.29763    216156.16   -20201.138    1487.2767   -21688.415   -1169.6614    56.296537    39.418711     39.24174    23.678747 
    4600    230.92803   -404.59558    216156.16   -20276.338    1462.7492   -21739.087   -1029.4488    57.583265     39.41679    39.239604    23.678982 
    4800    233.82966   -217.29148    216156.16   -20178.922    1481.1288   -21660.051   -270.76812    58.665787    39.417316     39.23974    23.678526 
    5000    233.32821   -336.56385    216156.16   -20220.496    1477.9526   -21698.449   -783.47017    59.658246    39.417859    39.236299    23.684131 
    5200    234.21127   -319.36339    216156.16   -20207.146    1483.5461   -21690.692   -706.98148    60.453473    39.418756    39.232907    23.717565 
    5400     233.6192   -382.95373    216156.16   -20233.967    1479.7957   -21713.762   -977.15295    60.190885    39.417586    39.232406    23.714896 
    5600    231.80122   -359.04141    216156.16   -20258.009    1468.2802    -21726.29   -872.44503    61.558744    39.421227    39.231934    23.730824 
    5800    239.64588   -315.65559    216156.16   -20225.384      1517.97   -21743.354   -709.98187    62.013737    39.424912    39.233928    23.717703 
    6000    232.25009   -317.37206    216156.16   -20260.678    1471.1235   -21731.801   -701.32346    63.699918       39.428    39.235258    23.726032 
    6200    235.62059   -202.32511    216156.16   -20260.048     1492.473   -21752.521   -194.99521     64.68346    39.429616    39.237252    23.748469 
    6400    232.38685    -366.7418    216156.16   -20242.667    1471.9898   -21714.657   -894.04863    66.311571    39.431495    39.237517    23.762464 
    6600    237.80328   -356.52983    216156.16   -20244.337    1506.2986   -21750.635   -838.55286    67.600104    39.433889    39.238156    23.750209 
    6800    232.43049    -378.7143    216156.16   -20244.269    1472.2662   -21716.535   -926.25174    68.369284      39.4361    39.239337    23.731034 
    7000    240.20427   -179.48267    216156.16   -20199.095     1521.507   -21720.602   -66.522165    69.348538     39.43611    39.238341    23.712565 
    7200    232.58344   -315.99103    216156.16   -20282.942     1473.235   -21756.177   -648.42813    70.817063    39.438356    39.237515    23.708187 
    7400    233.23007   -331.67624    216156.16   -20252.678    1477.3309   -21730.009   -739.24329    72.032653     39.43896    39.237111    23.718557 
    7600    247.84421   -241.71854    216156.16   -20161.986    1569.9001   -21731.886    -365.0622    72.882219    39.438086    39.237901     23.70455 
    7800    231.30872   -495.53079    216156.16   -20287.049    1465.1607    -21752.21    -1426.442    75.403529    39.435639     39.23694    23.688408 
    8000    240.36924   -428.85759    216156.16   -20162.384     1522.552   -21684.936   -1141.6087    76.782266    39.436642     39.23651    23.662114 
    8200     229.8201   -271.55793    216156.16   -20173.084    1455.7314   -21628.816   -491.12096    77.636052    39.435138    39.236414    23.678008 
    8400    236.16229    -444.1067    216156.16   -20135.899    1495.9042   -21631.803   -1268.7019    77.688421    39.434642    39.235332    23.682587 
    8600    230.64805   -322.66923    216156.16   -20192.702    1460.9758   -21653.678   -699.05533    78.599012    39.436067    39.238992    23.705391 
    8800    238.97189   -425.85055    216156.16   -20237.541    1513.7008   -21751.242   -1105.7199    79.998338    39.435923    39.239928    23.710261 
    9000     236.7625   -397.43414    216156.16   -20231.891    1499.7061   -21731.597    -1048.586    81.209806    39.434938    39.242177    23.709993 
    9200    238.34102   -355.17846    216156.16   -20172.114    1509.7048   -21681.819   -813.43018    82.367152    39.434438     39.24229    23.712324 
    9400    235.34681   -396.64655    216156.16    -20209.15    1490.7388   -21699.889   -1016.9015    84.227052    39.435402    39.243045    23.711797 
    9600    235.37169   -367.89071    216156.16   -20246.453    1490.8964   -21737.349   -939.57452    84.653721    39.437743     39.24535    23.697155 
    9800    236.57568   -379.36816    216156.16   -20171.456    1498.5228   -21669.979   -947.32021    84.774788    39.439711    39.247737    23.690327 
   10000     235.3343   -468.55387    216156.16   -20207.163    1490.6596   -21697.823   -1294.3538    86.026817    39.441285    39.250895    23.666312 
   10200    243.69975   -366.35823    216156.16    -20127.55    1543.6482   -21671.199   -892.92631    86.734117    39.442445     39.24943    23.655484 
   10400    240.28069   -355.49361    216156.16   -20116.647     1521.991   -21638.638   -870.24225    88.139006    39.444593     39.24765    23.657833 
   10600    231.79155   -312.96497    216156.16   -20163.339     1468.219   -21631.558   -632.38127    89.163374    39.445441    39.248796    23.655249 
   10800    230.01671   -422.35021    216156.16   -20226.195    1456.9768   -21683.171   -1150.0676    89.389885    39.444778    39.248454    23.638702 
   11000    236.12029   -256.23964    216156.16    -20193.51    1495.6382   -21689.148   -392.92844    90.892425    39.442379    39.249247    23.653801 
   11200    241.72281   -443.47627    216156.16   -20235.112    1531.1258   -21766.238   -1244.0921    91.566402    39.440332     39.24804    23.647397 
   11400    237.95226   -398.42548    216156.16   -20215.241    1507.2423   -21722.483   -1051.7658    92.574916    39.441057    39.245819    23.657492 
   11600    238.65964   -373.70508    216156.16   -20147.818     1511.723   -21659.541   -936.20997    93.953682    39.439552    39.243404     23.65497 
   11800    232.52771   -525.53208    216156.16   -20147.545     1472.882   -21620.427   -1571.6732    94.576578    39.437566    39.243418    23.653283 
   12000     235.0101   -587.96511    216156.16   -20143.641     1488.606   -21632.247   -1875.2448    95.911952    39.437007    39.244419    23.651319 
   12200    236.39502    -419.3689    216156.16   -20169.454    1497.3784   -21666.832   -1128.1606    97.774616    39.437986    39.245515    23.626084 
   12400    238.76189   -453.34445    216156.16   -20181.433    1512.3707   -21693.803   -1243.6561    98.362996     39.43639    39.243743    23.607806 
   12600    238.82813   -433.97327    216156.16   -20138.382    1512.7903   -21651.172   -1167.4764    99.302226    39.434185    39.243313    23.602555 
   12800    237.04887   -363.03358    216156.16   -20187.899      1501.52   -21689.419   -930.85437    100.50679     39.43346    39.239913    23.610518 
   13000    236.83124   -387.82771    216156.16   -20185.348    1500.1415   -21685.489    -1028.417    100.79191    39.432687    39.240403    23.592395 
   13200    236.02306   -276.55476    216156.16   -20199.524    1495.0223   -21694.546   -486.55515    102.01296    39.429525    39.239933    23.602233 
   13400    233.08286   -374.78268    216156.16   -20278.628    1476.3984   -21755.027   -886.27491    104.28958    39.427961    39.239417    23.619334 
   13600    234.85695   -538.78211    216156.16   -20232.296    1487.6359   -21719.932   -1637.6194    104.83624    39.426839    39.237692    23.633066 
   13800    236.77432   -340.27151    216156.16   -20200.806     1499.781   -21700.586    -776.8311    104.55823    39.426689    39.234647    23.645665 
   14000    238.76929   -497.40025    216156.16   -20162.135    1512.4176   -21674.553   -1476.6197    106.55673    39.427272      39.2331    23.648039 
   14200    241.12731   -416.64534    216156.16   -20187.998    1527.3537   -21715.352   -1104.3898    107.35248    39.427842    39.232946    23.659803 
   14400    232.17678   -621.39449    216156.16   -20249.318    1470.6591   -21719.977   -1961.6205    108.95226     39.42715    39.231752    23.650145 
   14600    231.80173   -244.97452    216156.16   -20226.084    1468.2834   -21694.368   -386.94964     109.0129    39.427923    39.229902    23.671422 
   14800    236.65084   -371.34042    216156.16    -20146.53    1498.9988   -21645.528   -985.17492    110.65539    39.427685     39.22904     23.67181 
   15000    232.53555    -285.8101    216156.16   -20189.243    1472.9316   -21662.175   -612.96885    110.06816    39.428607    39.227373    23.666178 
   15200    235.08146   -291.95561    216156.16   -20143.814     1489.058   -21632.872   -632.47482    111.81757    39.427176    39.228926     23.67016 
   15400    233.84437   -537.78748    216156.16   -20180.588     1481.222    -21661.81   -1652.2445    112.19855    39.429619    39.225121    23.678887 
   15600    238.79164   -427.20938    216156.16   -20022.632    1512.5591   -21535.191   -1188.6446    113.48422     39.42811    39.223806    23.665924 
   15800    240.43254   -414.67615    216156.16   -20093.377    1522.9529    -21616.33   -1121.5533    115.28734    39.427876     39.22322    23.673056 
   16000    234.10162   -371.72111    216156.16   -20138.387    1482.8515   -21621.238   -927.99571    116.96949     39.42641    39.223973    23.688745 
   16200    231.72456   -316.26526    216156.16   -20108.926    1467.7947   -21576.721   -723.09519    118.30797    39.425567    39.223222    23.679239 
   16400    236.63694   -362.19822    216156.16   -20149.354    1498.9108   -21648.265   -907.66795    120.03699     39.42488    39.224866    23.676197 
   16600    240.04867   -459.42965    216156.16   -20096.164    1520.5214   -21616.685     -1304.56    120.31523    39.424772    39.227049     23.67538 
   16800     232.3248    -415.2491    216156.16   -20143.304    1471.5967     -21614.9    -1109.234    120.95856    39.423655    39.228942    23.689078 
   17000    232.97017   -487.48213    216156.16   -20182.614    1475.6846   -21658.299   -1445.0951    122.02837     39.42284    39.230841    23.674186 
   17200    235.91518   -247.57601    216156.16   -20167.698     1494.339   -21662.037   -455.94129    123.44054    39.422591     39.23058    23.672198 
   17400    224.79953   -270.97769    216156.16   -20220.827      1423.93   -21644.757   -500.44611    123.16861    39.420866    39.231235    23.700627 
   17600    231.25588   -406.21083    216156.16   -20117.998    1464.8259   -21582.824   -1049.7539    124.99378    39.418291     39.23239    23.691439 
   17800     231.7792   -338.88116    216156.16   -20153.843    1468.1407   -21621.984   -812.71435    126.54139    39.417428    39.232763    23.682456 
   18000    233.59376   -456.75603    216156.16   -20124.037    1479.6346   -21603.671   -1288.3129     127.5709    39.418832    39.230598    23.673353 
   18200    229.23589   -444.85538    216156.16   -20129.506    1452.0309   -21581.537   -1256.9223    129.50504     39.41995    39.231839    23.656641 
   18400     236.5469   -483.15872    216156.16   -20125.093    1498.3404   -21623.434   -1400.3526    130.70679    39.420381    39.233788    23.684617 
   18600    236.28965   -325.29439    216156.16   -20100.027    1496.7109   -21596.738   -717.95164    130.19909    39.422543     39.23318    23.669724 
   18800    238.70504   -453.02603    216156.16    -20172.95    1512.0106   -21684.961   -1251.7233    131.71082    39.422768    39.231876    23.670371 
   19000    238.24286   -424.41884    216156.16   -20097.722     1509.083   -21606.805   -1171.9341    132.10814    39.422598     39.22933    23.665029 
   19200    230.36238   -499.19247    216156.16   -20154.452    1459.1663   -21613.618   -1488.3796     134.2484    39.422206    39.228004    23.647779 
   19400    242.60707   -334.25147    216156.16   -20082.372    1536.7269   -21619.098   -774.70189     134.9156    39.421278    39.226415    23.635634 
   19600    235.23241   -375.00177    216156.16   -20115.944    1490.0141   -21605.958   -927.89578    136.50864     39.41909    39.223234    23.630432 
   19800    236.55292     -286.472    216156.16   -20104.772    1498.3786    -21603.15    -540.9478    137.57724    39.417513     39.22236    23.622004 
   20000    231.07705   -233.05356    216156.16   -20134.398    1463.6932   -21598.091   -329.08989    138.27762    39.418115    39.222495    23.645355 
   20200    230.71549   -430.04069    216156.16   -20185.633     1461.403   -21647.036   -1184.5897    140.30226    39.418115    39.222823    23.647208 
   20400    239.85558   -360.94162    216156.16   -20104.132    1519.2984    -21623.43   -880.53059    143.00266    39.416335    39.221857     23.67975 
   20600    240.87613    -132.9201    216156.16   -20169.709    1525.7627   -21695.472    133.48058    143.19865    39.416892    39.220546     23.69237 
   20800    235.44888   -365.51481    216156.16   -20112.649    1491.3853   -21604.035   -865.01414    143.51659      39.4151    39.222514    23.705192 
   21000    235.89467   -340.22478    216156.16   -20170.053    1494.2091   -21664.262   -739.86119    142.46133    39.414667    39.223349    23.699424 
   21200     239.8642   -367.67685    216156.16   -20108.511    1519.3529   -21627.864   -902.64735    142.63958    39.414162    39.222821     23.71387 
   21400    231.65837   -388.14265    216156.16   -20115.309    1467.3754   -21582.685   -995.18476    144.42394    39.417233    39.221519    23.727931 
   21600    242.61817   -272.90224    216156.16   -20029.787    1536.7972   -21566.584   -511.12153    145.72798     39.41679    39.220366     23.73325 
   21800     236.3958   -521.72557    216156.16   -20140.189    1497.3833   -21637.572   -1541.8147    146.98463    39.414618    39.223555    23.745209 
   22000    225.44829   -330.71189    216156.16   -20214.996    1428.0394   -21643.036    -776.6491    148.10302    39.415504    39.225259    23.742739 
   22200    229.63636   -248.37579    216156.16   -20264.205    1454.5675   -21718.773   -421.18023    149.88896    39.415607    39.223554    23.729595 
   22400    236.32854   -389.24904    216156.16   -20137.436    1496.9573   -21634.394   -992.25594    149.69438    39.416064     39.22127    23.724435 
   22600     241.1395   -447.28191    216156.16   -20160.884     1527.431   -21688.315   -1237.7198    150.16583    39.413989    39.220957    23.719881 
   22800    237.11185   -319.25642    216156.16   -20117.698    1501.9189   -21619.617   -730.35221    151.84665    39.414387    39.222921    23.718965 
   23000    233.93691   -286.50449    216156.16   -20175.486    1481.8081   -21657.294   -568.30727     153.0868    39.415311    39.224216     23.72245 
   23200    230.77106   -503.33642    216156.16   -20101.981     1461.755   -21563.736   -1476.7131    153.89791    39.417147     39.22565     23.69121 
   23400    229.49942   -514.35128    216156.16   -20084.989    1453.7001    -21538.69   -1540.0107    154.91575    39.418556     39.22664     23.67806 
   23600     238.2524   -245.11905    216156.16   -20038.908    1509.1434   -21548.052   -400.73959    155.55223    39.419758    39.228689    23.685548 
   23800    239.72105   -482.77817    216156.16   -20073.042    1518.4462   -21591.488   -1448.0907    156.33507    39.419958    39.230174    23.700248 
   24000    233.00008   -639.36964    216156.16   -20126.654    1475.8741   -21602.528    -2088.869    157.12051    39.420485    39.229314    23.707729 
   24200    234.90772   -376.30997    216156.16    -20146.03    1487.9575   -21633.988   -937.29507    158.95563    39.419546       39.229    23.691546 
   24400    235.47776   -372.08429    216156.16   -20209.556    1491.5683   -21701.124    -900.4115    158.08312    39.417312    39.231805    23.700702 
   24600    234.04435    -393.8252    216156.16   -20255.783    1482.4887   -21738.271    -1023.408    158.65147    39.420449    39.230464    23.657522 
   24800    235.68973   -401.14849    216156.16   -20249.245    1492.9109   -21742.156   -1020.8469    159.18358     39.42141    39.230152    23.633154 
   25000    235.90132   -363.94789    216156.16   -20255.661    1494.2512   -21749.912   -872.44637    160.67478    39.422785    39.229857    23.616638 
   25200    223.86723   -438.79937    216156.16    -20322.91    1418.0246   -21740.934   -1209.5954    163.73213    39.421904    39.229406     23.60701 
   25400    239.35295    -301.0087    216156.16   -20217.231    1516.1145   -21733.346    -562.1444    166.24168      39.4217    39.230107    23.613786 
   25600    242.36014   -717.22459    216156.16   -20060.867    1535.1628   -21596.029   -2386.3956    166.35929    39.421524    39.230164    23.641316 
   25800    240.38973   -208.89143    216156.16   -20131.664    1522.6817   -21654.346   -210.19809    167.15364    39.421155    39.230907    23.642015 
   26000    234.10546   -382.84683    216156.16   -20178.706    1482.8758   -21661.582   -977.25898    167.56168     39.42472    39.230249    23.643405 
   26200    235.56893   -358.55684    216156.16   -20185.152    1492.1458   -21677.297   -834.10166     169.1394    39.423697    39.230938    23.640655 
   26400    230.55347   -264.48162    216156.16   -20215.402    1460.3767   -21675.779   -416.60957     170.0553    39.420213    39.229534    23.606554 
   26600    235.85982   -369.30945    216156.16   -20114.325    1493.9883   -21608.313   -912.48834    170.95481    39.421271    39.230724    23.596983 
   26800    237.34777   -490.39811    216156.16   -20127.256    1503.4133   -21630.669   -1446.1887    172.45924     39.42174    39.231575    23.584676 
   27000    235.56845    -390.5988    216156.16   -20071.907    1492.1427    -21564.05   -1024.1811    173.81161    39.423787    39.233225    23.599828 
   27200    236.84208   -431.09633    216156.16   -20124.743    1500.2102   -21624.953    -1191.162    174.51835    39.425309    39.231984     23.60259 
   27400    240.86915   -496.77608    216156.16   -20093.001    1525.7185   -21618.719   -1409.7473    175.57711     39.42653    39.232595    23.618872 
   27600      225.422   -278.89081    216156.16   -20232.329    1427.8728   -21660.202   -496.86309      177.083    39.426302     39.23269    23.659913 
   27800    239.41694   -459.64075    216156.16   -20121.991    1516.5199   -21638.511   -1269.3595    178.99524    39.424614    39.230096     23.63402 
   28000    231.84723   -434.53149    216156.16   -20214.784    1468.5717   -21683.355   -1206.3993    180.34202    39.425155    39.230837    23.637871 
   28200     235.7107   -328.93611    216156.16   -20176.133    1493.0438   -21669.177   -735.12144    182.40588    39.424692    39.231802    23.620124 
   28400    232.71994   -283.74197    216156.16   -20151.171    1474.0996   -21625.271   -539.53025    183.28845    39.423638    39.228707    23.605416 
   28600    226.43039   -302.83068    216156.16   -20185.542    1434.2602   -21619.802   -673.25809    182.58485    39.422399    39.226736      23.6091 
   28800    226.76615   -388.37474    216156.16   -20209.102     1436.387   -21645.489    -968.5561    183.35409    39.422274    39.226221    23.613995 
   29000    234.75164   -228.60899    216156.16   -20188.847    1486.9689   -21675.816   -268.91337    184.03129    39.425089    39.224954    23.623134 
   29200     241.9447   -385.42292    216156.16   -20171.177    1532.5313   -21703.708     -959.194    185.16224     39.42443    39.225042    23.630695 
   29400    236.93709   -499.61634    216156.16   -20217.523     1500.812   -21718.335   -1463.8921    187.04182    39.427242    39.223369    23.636306 
   29600    228.48096   -399.14231    216156.16   -20191.049     1447.249   -21638.297   -1085.7007    186.67062    39.427419    39.219747    23.636386 
   29800    224.42415   -288.43176    216156.16   -20263.295    1421.5523   -21684.847   -601.72728    186.98322    39.425779    39.219744    23.646215 
   30000    224.82787   -361.57089    216156.16   -20275.792    1424.1095   -21699.902   -864.02072    188.10848    39.423041    39.218273    23.636034 
   30200    232.48842    -317.0961    216156.16   -20229.234    1472.6331   -21701.867   -703.58862    188.41707    39.422518    39.216023    23.631977 
   30400    233.45713   -575.75761    216156.16    -20217.98    1478.7691   -21696.749   -1827.1473    189.53646    39.422672    39.213299    23.629418 
   30600     229.0613   -356.16103    216156.16   -20259.935     1450.925    -21710.86   -874.11751    190.55885    39.421746     39.21359    23.628195 
   30800     237.6953   -418.61726    216156.16   -20202.275    1505.6147    -21707.89   -1153.1667    191.26239    39.419431    39.215543    23.613355 
   31000    231.72943   -477.86518    216156.16   -20184.031    1467.8255   -21651.857   -1396.0303    192.18882    39.419348     39.21718    23.609529 
   31200    231.87218   -411.49246    216156.16   -20150.197    1468.7297   -21618.926   -1106.8416    193.20629    39.419028    39.217039    23.607942 
   31400    237.00226   -312.81072    216156.16   -20148.378    1501.2248   -21649.603    -677.5589    193.66439    39.417298    39.217399    23.593189 
   31600    234.05617   -310.42375    216156.16   -20181.092    1482.5636   -21663.656   -657.43688    195.28314    39.415223    39.215659     23.60216 
   31800    238.24658    -481.0046    216156.16   -20115.448    1509.1066   -21624.555   -1401.3752    196.92684    39.414828    39.215187    23.617061 
   32000    230.58737   -389.81073    216156.16   -20182.587    1460.5914   -21643.179   -965.21983    196.62752    39.416804    39.213869    23.637868 
   32200    234.86865   -319.92635    216156.16   -20198.314      1487.71   -21686.024   -725.53005    198.21775    39.418092    39.213534    23.665633 
   32400    230.58978   -316.55258    216156.16   -20192.512    1460.6067   -21653.119   -639.92528     199.6665    39.417215    39.212437    23.663676 
   32600     238.6029   -347.63943    216156.16    -20097.37    1511.3636   -21608.733   -822.14714    199.99622    39.416657    39.209748    23.680011 
   32800    235.21939    -337.6585    216156.16   -20132.604    1489.9317   -21622.536   -766.90811       200.18    39.414606    39.208209     23.65512 
   33000    244.82149   -431.86104    216156.16    -20117.64    1550.7535   -21668.393   -1175.3071    200.46546    39.415402    39.207803    23.648363 
   33200    236.71799   -388.13501    216156.16   -20160.146    1499.4241    -21659.57   -991.73299    202.97688    39.417623    39.203732    23.671592 
   33400    231.59826   -571.96884    216156.16   -20196.201    1466.9946   -21663.196   -1788.8827    202.68126     39.41853    39.204552    23.686285 
   33600    224.87218   -391.92784    216156.16   -20228.791    1424.3902   -21653.181   -973.84864    203.16237    39.417776    39.202169    23.691168 
   33800    243.14966   -437.57621    216156.16   -20068.828    1540.1637   -21608.992   -1199.4495    204.06974    39.417955    39.201308    23.680688 
   34000    232.59795   -522.92655    216156.16   -20186.562    1473.3269   -21659.889   -1539.5129    204.52686     39.41755    39.200394    23.694813 
   34200    231.74709   -448.89717    216156.16   -20178.817    1467.9374   -21646.755   -1228.8236    205.99368    39.418249    39.199914    23.703117 
   34400    229.04796   -470.39178    216156.16   -20212.092    1450.8405   -21662.932   -1316.0736    205.47855    39.419105    39.199517    23.711774 
   34600    241.50239   -387.94289    216156.16   -20110.421    1529.7296    -21640.15   -1033.0627    206.15795    39.418283    39.200042    23.704989 
   34800    237.54977   -329.30504    216156.16   -20180.978    1504.6928   -21685.671   -747.40341    206.44927    39.419077    39.199017    23.697697 
   35000    235.51304   -334.08271    216156.16   -20197.902    1491.7917   -21689.693   -771.22072    209.44651    39.417427    39.197911    23.684394 
   35200     240.2742   -513.05832    216156.16   -20111.425      1521.95   -21633.375   -1558.9165    209.72877     39.41782    39.200734    23.707407 
   35400    238.31249   -174.19939    216156.16   -20150.349    1509.5241   -21659.873   -96.457857     211.2651    39.417231     39.20149    23.690479 
   35600     234.8253   -384.45767    216156.16    -20173.63    1487.4354   -21661.066   -988.23927    210.79643     39.42058    39.202194    23.671926 
   35800    240.25713   -330.82686    216156.16   -20083.247    1521.8419   -21605.089   -745.27096    212.70312     39.42192    39.203228    23.658594 
   36000    235.57532   -424.23072    216156.16   -20204.484    1492.1862    -21696.67   -1114.5602    212.12456    39.422908    39.205464    23.667885 
   36200    232.40225   -543.20081    216156.16   -20189.402    1472.0873   -21661.489    -1658.885    213.65259    39.419274    39.203607    23.678861 
   36400    235.76044   -310.66564    216156.16   -20144.192    1493.3588    -21637.55   -645.78897    214.31382    39.415029    39.202705    23.663249 
   36600    235.39888   -404.18975    216156.16   -20129.133    1491.0686   -21620.201   -1110.5742    216.07517    39.415579    39.206441    23.650077 
   36800    229.90114   -412.75923    216156.16    -20213.84    1456.2447   -21670.085   -1106.6971    217.41489    39.415527    39.206626    23.653355 
   37000     228.6393   -382.33424    216156.16   -20189.382    1448.2519   -21637.634   -992.41239    219.32756    39.415363    39.207188    23.660002 
   37200    234.42142   -325.33309    216156.16   -20183.909    1484.8772   -21668.786   -759.32353    219.88784    39.415165    39.209759    23.673811 
   37400    226.25327   -360.04994    216156.16   -20179.942    1433.1383    -21613.08   -888.62288    221.47642    39.412527    39.208884     23.67145 
   37600    230.30774    -618.2894    216156.16   -20218.379    1458.8202   -21677.199   -1993.7895    221.88852    39.412626    39.210041    23.683174 
   37800    228.29498   -370.28965    216156.16    -20252.97    1446.0709   -21699.041   -912.80212    221.95636    39.413888    39.210039    23.659056 
   38000    236.29772    -451.7791    216156.16   -20151.694    1496.7621   -21648.456   -1270.5028    221.91628    39.414622    39.208718    23.632045 
   38200    235.30868   -364.09114    216156.16   -20166.422    1490.4973   -21656.919   -927.89866    222.33788    39.414275    39.206847    23.628298 
   38400    243.26292   -373.72952    216156.16    -20108.79    1540.8812   -21649.671   -897.51658    224.24574    39.414206    39.205486    23.619016 
   38600    235.36501   -361.96664    216156.16   -20203.514     1490.854   -21694.368   -894.42032    225.95476    39.413257    39.203984    23.613541 
   38800    237.87624   -444.37761    216156.16   -20208.896    1506.7608   -21715.657   -1210.6938    228.95667    39.413069    39.202786    23.600881 
   39000    239.19795   -316.18931    216156.16   -20166.416    1515.1328   -21681.549   -695.63292    229.86039    39.410435    39.204013    23.587456 
   39200    230.41916   -311.62333    216156.16   -20254.001     1459.526   -21713.527   -632.55899     230.6648    39.407763    39.204328    23.583265 
   39400     234.8706   -463.07916    216156.16   -20218.796    1487.7223   -21706.518   -1314.4039    232.39392    39.405334     39.20446    23.569328 
   39600      238.077   -401.88756    216156.16   -20181.705    1508.0324   -21689.737   -1063.8962    233.15151    39.407559    39.203284    23.572729 
   39800    230.26366   -397.14819    216156.16   -20243.434     1458.541   -21701.975   -986.61597    232.79818    39.408175    39.203489     23.56806 
   40000    237.28067   -356.63285    216156.16   -20200.261    1502.9883   -21703.249   -863.11331     233.9743    39.408128    39.200466    23.554185 
   40200    232.65318   -328.39702    216156.16   -20205.672    1473.6768   -21679.349   -751.31476    233.49503    39.407155    39.196847    23.564317 
   40400    224.53565   -393.22484    216156.16   -20233.681    1422.2585    -21655.94   -1013.5222    233.71198    39.405472    39.196509     23.56181 
   40600    235.05163   -395.53955    216156.16   -20135.267     1488.869   -21624.136   -1020.7197    233.49848    39.406608    39.195118     23.54028 
   40800    231.78093   -254.23963    216156.16   -20234.262    1468.1517   -21702.413   -442.51421    233.67454     39.40601    39.193493    23.548431 
   41000    227.10518   -310.81105    216156.16   -20169.278    1438.5345   -21607.812   -670.78708    234.75086    39.407397    39.191959    23.547102 
   41200    237.50362   -403.43232    216156.16   -20087.122    1504.4005   -21591.523   -1051.3874    235.98652    39.408517    39.191317    23.564345 
   41400    231.87242   -402.96423    216156.16   -20132.471    1468.7312   -21601.202   -1076.3746    236.46883    39.411544    39.192979    23.569997 
   41600    236.26577   -284.40898    216156.16   -20130.387    1496.5597   -21626.947   -561.82419    237.03277    39.410448    39.192657    23.585648 
   41800    237.51794    -356.0906    216156.16   -20134.791    1504.4912   -21639.282   -863.54702    237.72719    39.410582    39.190415    23.602179 
   42000    233.34191   -361.45115    216156.16   -20148.991    1478.0393    -21627.03   -898.08176     239.2846    39.412483    39.189248    23.591158 
   42200    229.37479   -515.18791    216156.16   -20215.537    1452.9107   -21668.448   -1533.4915    239.43625    39.413578    39.188692    23.590071 
   42400    236.48632   -260.01191    216156.16   -20194.894    1497.9567   -21692.851   -491.11555    239.94566     39.41389    39.189886    23.593502 
   42600    231.05114   -376.40726    216156.16   -20198.506     1463.529   -21662.036   -959.97522    239.74313    39.412089    39.191293    23.603697 
   42800    231.63953   -555.45836    216156.16   -20150.401    1467.2561   -21617.657   -1647.6691    241.33565    39.412795     39.19069    23.620343 
   43000     235.1973   -313.22564    216156.16   -20162.743    1489.7918   -21652.535   -718.44789    242.94596    39.413954    39.190874     23.62408 
   43200     233.0357   -421.34856    216156.16   -20202.081    1476.0997    -21678.18   -1143.9793    244.01928    39.413341    39.191469    23.635047 
   43400    236.05032   -356.44786    216156.16   -20162.653     1495.195   -21657.848   -860.60601     244.3862    39.414512    39.189984    23.642714 
   43600    234.40002    -489.1065    216156.16   -20195.889    1484.7416   -21680.631   -1452.7285    244.81272    39.416458    39.190083    23.639118 
   43800    230.25693   -495.89929    216156.16   -20224.086    1458.4983   -21682.584   -1485.2878    245.62967      39.4167    39.188282    23.629833 
   44000    232.38524    -304.9235    216156.16   -20263.151    1471.9796   -21735.131   -642.15214    247.16777    39.418128     39.19001    23.602508 
   44200    237.05654   -303.94314    216156.16   -20186.759    1501.5686   -21688.327   -669.02769    247.89736    39.421281    39.190336    23.587412 
   44400    227.78306   -425.89074    216156.16   -20188.135    1442.8284   -21630.963   -1158.3923    248.14344    39.422785    39.191558    23.578194 
   44600    230.46054   -462.50846    216156.16   -20204.501     1459.788   -21664.289   -1287.7306    249.85823    39.422895    39.192985    23.581618 
   44800    229.08227     -282.324    216156.16   -20214.413    1451.0578    -21665.47   -579.67062    250.04361    39.423893    39.193939    23.587822 
   45000    236.63069   -441.26883    216156.16   -20173.242    1498.8712   -21672.113   -1243.1522    250.30095    39.421746    39.192794    23.576186 
   45200     230.7589   -368.79897    216156.16   -20168.716    1461.6779   -21630.394   -943.35777     251.9424    39.421352    39.193164    23.597634 
   45400    233.76918   -363.15233    216156.16   -20258.908    1480.7457   -21739.654   -929.39252    254.68389    39.419617    39.192605     23.59807 
   45600    230.31275   -301.30515    216156.16   -20177.837    1458.8519   -21636.689   -603.34061     255.1876    39.419861    39.194482    23.601633 
   45800    233.14449   -333.05925    216156.16   -20212.035    1476.7888   -21688.824   -732.61231    256.99275    39.420241    39.195425    23.602404 
   46000    233.80269   -335.90395    216156.16   -20111.647     1480.958   -21592.605   -790.55387    257.53717    39.421402    39.198761    23.623083 
   46200    245.22591   -303.86781    216156.16   -20093.575    1553.3152    -21646.89   -635.93386    258.15026     39.42345    39.199646    23.586966 
   46400    234.62455   -262.33153    216156.16   -20179.425    1486.1639   -21665.589   -494.67447    260.78937     39.42107    39.200368    23.578628 
   46600    233.03893   -513.53021    216156.16   -20187.616    1476.1201   -21663.736   -1530.9028     261.2792      39.4208     39.19921    23.579356 
   46800    237.91539   -403.26287    216156.16    -20196.55    1507.0088   -21703.559   -1035.2247    261.78191     39.42318    39.199188    23.591933 
   47000    236.15437   -375.36331    216156.16   -20177.397    1495.8541   -21673.251   -942.86591    262.38954    39.422736    39.200238    23.600693 
   47200    230.83103   -407.28366    216156.16    -20261.09    1462.1348   -21723.225   -1094.7661    263.29328    39.420726    39.199805    23.609865 
   47400    231.26657   -223.73621    216156.16   -20192.225    1464.8937   -21657.118   -296.52883    264.35441     39.42108    39.197787    23.606335 
   47600    241.48572   -355.30648    216156.16   -20170.176     1529.624     -21699.8    -839.9967    265.55843    39.419998    39.195992    23.607001 
   47800    232.66217   -343.38167    216156.16   -20167.519    1473.7337   -21641.253   -799.98098    267.19756    39.419547    39.197885    23.611278 
   48000     232.9067   -382.77759    216156.16    -20175.15    1475.2826   -21650.433   -922.11153     267.7813    39.420226    39.198972     23.61812 
   48200    232.47758   -407.20742    216156.16   -20187.691    1472.5644   -21660.255   -1093.9692    269.36489    39.420696    39.201025    23.605126 
   48400    241.82139   -306.68506    216156.16   -20217.091    1531.7502   -21748.841   -653.48598    271.17915    39.420544    39.203001    23.600295 
   48600    229.14246   -402.34728    216156.16   -20264.864    1451.4391   -21716.303   -1076.5489    271.72008    39.421237    39.200108    23.603447 
   48800    238.67029   -438.66297    216156.16   -20207.363    1511.7905   -21719.153   -1193.6776    271.95629    39.417843    39.198931    23.623096 
   49000    237.36686    -365.9589    216156.16   -20210.858    1503.5343   -21714.392   -963.01209    271.56538    39.418306    39.198394    23.626351 
   49200     240.2071   -275.90038    216156.16   -20161.871     1521.525   -21683.396   -537.33106    272.80345    39.419572    39.198729    23.638002 
   49400    231.84146   -397.39381    216156.16   -20252.832    1468.5351   -21721.367   -1070.5135    273.58179    39.418018    39.201196    23.627646 
   49600    238.31757   -347.98516    216156.16   -20236.211    1509.5563   -21745.767   -836.02821    273.90838    39.417011    39.202752    23.640649 
   49800    234.49657   -374.40047    216156.16   -20211.532    1485.3532   -21696.885   -913.23846    274.65708    39.419673    39.204234     23.66841 
   50000    235.31888   -271.66475    216156.16   -20203.856    1490.5619   -21694.418   -487.47154    275.90771     39.42005    39.206909    23.687832 
   50200    236.55902   -294.81047    216156.16   -20151.818    1498.4172   -21650.235   -635.67332    276.84701    39.420936    39.209378    23.672817 
   50400    233.40408   -445.30135    216156.16   -20174.066    1478.4331   -21652.499   -1199.5882    277.69097    39.421234     39.20821    23.665676 
   50600    244.20945   -269.97511    216156.16   -20053.475    1546.8767   -21600.352    -481.9895    277.32027    39.419824    39.209003     23.66628 
   50800    228.55216   -546.48693    216156.16   -20243.295       1447.7   -21690.995   -1668.2146    279.54706     39.41973    39.209085    23.669163 
   51000     228.7958   -496.88295    216156.16   -20202.498    1449.2433   -21651.741   -1466.0174    281.05502    39.424093    39.210318    23.662765 
   51200    240.06141   -438.83554    216156.16    -20217.79    1520.6021   -21738.392   -1229.1328    281.75019    39.423456    39.209567    23.629564 
   51400    232.04315   -367.42336    216156.16   -20228.675    1469.8127   -21698.488   -916.06755    282.13706     39.42125    39.209629     23.63309 
   51600    238.17836   -311.77276    216156.16   -20246.992    1508.6745   -21755.667    -657.3874    284.66488     39.42248    39.207352    23.631052 
   51800    232.62024   -422.60789    216156.16    -20219.91    1473.4681   -21693.378   -1184.7478    284.72712    39.422402    39.211375    23.648285 
   52000     228.9369   -452.64288    216156.16   -20311.967     1450.137   -21762.104   -1281.5772    288.04727    39.423635    39.213522    23.635097 
   52200    231.27822   -311.75609    216156.16   -20313.223    1464.9674    -21778.19   -647.35052    289.73234    39.422046    39.213514     23.65596 
   52400      226.416    -528.8113    216156.16    -20341.11    1434.1691   -21775.279   -1573.0666    288.83484    39.419489     39.21244    23.647157 
   52600    240.02969    -441.8447    216156.16   -20245.839    1520.4012    -21766.24   -1218.8386    289.78959    39.420897    39.213025    23.653093 
   52800    237.81588   -449.56295    216156.16   -20170.309    1506.3784   -21676.688   -1301.7563    289.77141    39.422024    39.212205    23.656059 
   53000    237.92023     -207.127    216156.16    -20152.97    1507.0394    -21660.01    -234.6747    290.20839    39.422154    39.210518    23.644834 
   53200    233.21232   -296.32399    216156.16   -20258.025    1477.2184   -21735.244   -627.96408    291.38581    39.422966    39.208675    23.662116 
   53400    239.99385   -413.89429    216156.16   -20233.472    1520.1742   -21753.646   -1121.0598    291.09212    39.424817     39.20859    23.679918 
   53600    229.66666   -356.29339    216156.16   -20274.718    1454.7594   -21729.478   -858.01596    292.17262    39.426119    39.207823    23.681911 
   53800    230.58012   -251.75368    216156.16   -20196.137    1460.5455   -21656.683   -402.33609     292.0448    39.430167    39.208756    23.697021 
   54000    234.27433   -355.24734    216156.16   -20198.199    1483.9455   -21682.145   -872.47019    292.04815    39.434607    39.207922    23.700939 
   54200    241.61967   -384.78757    216156.16   -20138.219    1530.4725   -21668.691    -1044.876    293.94529     39.43583    39.209526     23.71289 
   54400    237.77617    -493.4307    216156.16   -20093.746    1506.1269   -21599.873   -1472.4547    294.48928    39.436587    39.208921    23.716412 
   54600    239.87296   -426.72999    216156.16   -20155.066    1519.4084   -21674.474    -1124.257    294.85712    39.435708    39.209005    23.712606 
   54800    240.74726    -97.31046    216156.16   -20177.122    1524.9464   -21702.068    268.21512    296.45262    39.435727    39.208209    23.710974 
   55000    239.35244   -341.76264    216156.16   -20135.126    1516.1113   -21651.237   -773.11216    298.86308    39.433772     39.20803    23.710977 
   55200    225.60917   -488.50372    216156.16    -20254.48    1429.0584   -21683.539   -1440.5743    300.89362    39.433898    39.206546    23.727811 
   55400    234.86628   -342.81484    216156.16   -20193.768     1487.695   -21681.463   -816.37639    302.03878    39.436768    39.205712    23.758464 
   55600    229.77953   -406.02072    216156.16   -20150.732    1455.4744   -21606.206   -1042.4802    301.90845    39.436168    39.204673    23.773086 
   55800    237.93963   -364.27753    216156.16   -20041.329    1507.1623   -21548.492   -879.56726    301.90884    39.435577    39.206572    23.780474 
   56000    234.68275   -331.89826    216156.16   -20108.569    1486.5325   -21595.102    -770.4604    302.15095    39.432934    39.208221    23.770292 
   56200    241.92224   -475.61338    216156.16   -20101.949     1532.389   -21634.338   -1365.0437    303.91019    39.432661    39.208636    23.772214 
   56400    233.14256    -424.7144    216156.16   -20193.396    1476.7766   -21670.173    -1167.222     304.5831    39.433618    39.206617     23.77312 
   56600    226.65374   -461.20846    216156.16   -20271.314     1435.675   -21706.989   -1301.3064    306.99764    39.434465       39.204    23.766798 
   56800     232.8121   -365.45556    216156.16   -20163.299    1474.6834   -21637.982   -897.56805    306.48832    39.436348    39.203914    23.765582 
   57000    228.19686   -378.64545    216156.16   -20194.851    1445.4494     -21640.3   -990.85748    307.81601    39.437258    39.203321    23.778483 
   57200     233.4619   -308.09321    216156.16   -20098.085    1478.7994   -21576.885   -663.91995    308.53037    39.438384    39.202116    23.767744 
   57400    237.55424   -429.95006    216156.16   -20154.065    1504.7212   -21658.786    -1150.155    309.28588    39.438279    39.203481    23.763194 
   57600    230.93417   -332.08458    216156.16   -20187.539    1462.7881   -21650.327   -790.68536    308.32514    39.437513    39.203981    23.751582 
   57800    235.03199   -509.36557    216156.16   -20149.322    1488.7446   -21638.066    -1500.861    311.04467    39.437699    39.203558    23.758267 
   58000    235.64088   -466.15268    216156.16   -20172.919    1492.6015    -21665.52   -1297.3613     313.8148    39.440588    39.202674    23.772089 
   58200    238.77299    -435.6142    216156.16   -20154.917     1512.441   -21667.358   -1206.6685    315.50196    39.438151     39.20109    23.756301 
   58400    237.57725   -518.85539    216156.16   -20178.944    1504.8669   -21683.811   -1551.9818    314.74532    39.437243    39.201336    23.745194 
   58600    231.75643   -322.86014    216156.16   -20208.977    1467.9965   -21676.974   -739.83632    317.47366    39.437386    39.201015     23.75575 
   58800     233.3104    -283.5504    216156.16   -20192.198    1477.8397   -21670.037    -590.1442    317.65242    39.437501     39.20069    23.767839 
   59000    240.65812    -473.3464    216156.16   -20145.157    1524.3818   -21669.538   -1372.5756    318.54597    39.437515    39.201117     23.75318 
   59200    232.00554   -322.48929    216156.16   -20214.266    1469.5745   -21683.841   -692.26842    319.14784    39.437027    39.197785    23.769015 
   59400    234.73323    -430.8597    216156.16   -20233.526    1486.8523   -21720.378   -1204.9616    317.97056    39.438266    39.197015    23.765419 
   59600     232.2762   -438.30633    216156.16   -20277.225    1471.2889   -21748.514   -1194.2759    319.80885    39.436285    39.194907    23.772585 
   59800      232.019   -293.06644    216156.16   -20242.831    1469.6597   -21712.491   -603.66837    320.76412    39.433565    39.193555    23.781986 
   60000    238.87342   -332.61714    216156.16    -20225.99    1513.0771   -21739.068   -768.96682    321.18348    39.434379    39.194784     23.78225 
   60200    231.24363   -398.31002    216156.16   -20268.327    1464.7484   -21733.076   -1071.6151    323.26919    39.433145    39.194352    23.779441 
   60400    233.82714   -384.47409    216156.16    -20232.58    1481.1129   -21713.693   -991.69565    324.37318    39.434527    39.193218    23.768566 
   60600    241.99448   -379.31703    216156.16   -20207.795    1532.8466   -21740.642    -914.2495    324.28776    39.433866    39.190497    23.773911 
   60800    240.20771   -526.57277    216156.16   -20177.348    1521.5288   -21698.877    -1568.496    324.66421    39.434872    39.189683    23.783302 
   61000    231.37253   -364.29622    216156.16   -20240.134    1465.5648   -21705.699   -899.21972    325.51072    39.434203    39.188675    23.781818 
   61200    238.49346   -368.40381    216156.16   -20164.379    1510.6704   -21675.049   -966.49941    327.41571    39.434499    39.188815    23.754671 
   61400    239.44501   -407.71268    216156.16   -20198.621    1516.6977   -21715.318    -1046.032    328.78476    39.435555    39.187733    23.720682 
   61600    233.45848    -381.7592    216156.16    -20214.81    1478.7777   -21693.587   -985.04235    329.81623    39.434995    39.190853    23.705278 
   61800    235.38807   -385.04092    216156.16   -20275.135    1491.0001   -21766.135   -1008.4046    329.77514    39.433788    39.193413    23.710677 
   62000    233.79916   -412.29277    216156.16   -20229.049    1480.9356   -21709.985   -1078.7738    332.24805    39.434226    39.192449    23.712259 
   62200    238.83656   -425.00867    216156.16   -20237.064    1512.8437   -21749.908   -1151.7686    331.87713    39.434006    39.188693     23.71275 
   62400    240.17035   -358.72577    216156.16   -20226.133    1521.2922   -21747.425   -843.83893    332.37535    39.433662    39.189056    23.706812 
   62600    227.94986   -323.96256    216156.16   -20253.131    1443.8849   -21697.016   -754.83756    331.61323    39.431605    39.192132    23.721365 
   62800    229.06613   -350.84843    216156.16   -20316.806    1450.9555   -21767.761   -819.07886    331.27187    39.427561    39.193538    23.700112 
   63000    235.61021   -383.23449    216156.16   -20223.786    1492.4072   -21716.194   -1018.9197    333.15858    39.426695     39.19303    23.703215 
   63200    230.85252   -364.45361    216156.16   -20241.621    1462.2709   -21703.892   -924.02675     334.7499    39.427403    39.192909    23.722964 
   63400     228.3006   -283.45978    216156.16   -20312.414    1446.1065    -21758.52   -547.92014    334.83321    39.429897    39.193627    23.733093 
   63600    234.55848   -315.53405    216156.16    -20308.63    1485.7453   -21794.376   -705.41326    335.96514     39.43308    39.190868    23.737655 
   63800     233.2147   -555.83165    216156.16   -20332.024    1477.2336   -21809.257    -1670.755    336.86212    39.433325     39.18895    23.753448 
   64000    236.26134   -475.06344    216156.16   -20233.269    1496.5316     -21729.8   -1352.4202    335.05379     39.43263    39.189022    23.745813 
   64200    235.99021   -265.67806    216156.16   -20256.368    1494.8143   -21751.182   -491.45414    338.82848    39.433044    39.187626    23.745467 
   64400    235.61129   -468.02577    216156.16   -20247.492    1492.4141   -21739.906   -1374.6286    340.85518    39.432342    39.187774    23.723526 
   64600    233.33095   -378.25335    216156.16   -20270.234    1477.9699   -21748.204   -966.24564    340.24782    39.432433    39.183164    23.718512 
   64800    235.66172   -211.79657    216156.16   -20230.073    1492.7335   -21722.807   -299.52728    341.79612    39.432202    39.181336    23.739214 
   65000    237.19815   -492.08227    216156.16   -20140.101    1502.4656   -21642.567   -1444.8286    341.83633     39.43251    39.177716    23.737839 
   65200    231.57094   -431.07157    216156.16   -20198.346    1466.8216   -21665.167   -1172.1987    342.36917     39.43265    39.173626    23.731878 
   65400    234.70488   -370.57307    216156.16   -20181.892    1486.6727   -21668.565   -928.31282    344.47428    39.432601    39.171101    23.710866 
   65600    239.46768   -267.46215    216156.16   -20141.786    1516.8413   -21658.628   -498.38684    344.88472    39.430661    39.168729    23.690548 
   65800    231.62316   -361.91908    216156.16   -20208.709    1467.1524   -21675.861   -916.28013    345.28683    39.429406    39.171124    23.688235 
   66000    232.60724   -472.11625    216156.16   -20183.823    1473.3857   -21657.209   -1396.4247    346.16226    39.429365    39.169511    23.695733 
   66200    235.17085   -597.59773    216156.16   -20217.583    1489.6242   -21707.207   -1924.7776    347.49724    39.428112    39.169162    23.693829 
   66400    234.45899   -467.10965    216156.16   -20202.417    1485.1152   -21687.532   -1364.7593    347.35669    39.426554    39.167615    23.703157 
   66600    230.26893   -376.10428    216156.16   -20225.798    1458.5744   -21684.372   -937.64609    346.44504    39.427702    39.167022    23.688354 
   66800    232.18932    -339.9593    216156.16   -20216.027    1470.7386   -21686.766   -823.13838    345.09624    39.427809    39.166299    23.692615 
   67000     228.8653   -271.39332    216156.16   -20271.756    1449.6835   -21721.439   -491.50621       345.32    39.427445    39.164656    23.693686 
   67200    235.67468   -420.11977    216156.16   -20197.031    1492.8156   -21689.847   -1153.6187    348.16076    39.429195    39.163693    23.696298 
   67400    237.73093   -516.67291    216156.16   -20150.496    1505.8403   -21656.336   -1538.0216    348.82056    39.429786    39.162434    23.712333 
   67600    240.10681   -381.62598    216156.16   -20102.368    1520.8897   -21623.258   -984.81265    349.73461    39.430205    39.162019    23.684493 
   67800    235.26384    -446.6509    216156.16   -20135.069    1490.2133   -21625.282   -1219.1567    351.62554    39.430513    39.160257    23.696566 
   68000    239.78569   -264.01407    216156.16   -20192.368    1518.8557   -21711.224   -449.86728    350.73554    39.433549    39.160701    23.679718 
   68200    234.30327   -356.39236    216156.16   -20189.201    1484.1288   -21673.329   -890.50409    350.05407    39.437537    39.161366    23.682138 
   68400    233.30946   -421.71122    216156.16   -20152.895    1477.8338   -21630.729   -1121.8566    351.86724    39.436588    39.161383     23.66543 
   68600    229.81018   -417.76829    216156.16   -20172.052    1455.6686   -21627.721   -1086.9631    353.24655    39.437282    39.160641    23.649573 
   68800    237.97024   -346.05433    216156.16   -20130.345    1507.3562   -21637.701   -845.09933    354.94517    39.438015    39.159076    23.652688 
   69000    231.98658   -347.89559    216156.16   -20172.648    1469.4544   -21642.102   -798.95978    354.27834    39.435054    39.159189    23.655502 
   69200     228.2453   -467.18564    216156.16   -20241.433    1445.7563   -21687.189    -1353.069    354.31166    39.437004    39.157936    23.650619 
   69400    227.57342   -449.40595    216156.16   -20270.072    1441.5004   -21711.573   -1242.8129    355.48012    39.438013    39.156012    23.632067 
   69600    241.83373   -277.67886    216156.16   -20066.883    1531.8284   -21598.711   -533.90255    353.86748    39.438393    39.156986    23.612284 
   69800    237.63188   -374.99208    216156.16   -20165.399    1505.2129   -21670.612    -913.4915    353.36154    39.438879    39.156542    23.613341 
   70000    237.25088   -326.70169    216156.16   -20181.568    1502.7996   -21684.367   -812.82978    353.84093    39.436786    39.156507    23.650308 
   70200    235.35565   -521.15383    216156.16   -20163.802    1490.7948   -21654.597   -1603.2493    355.07886    39.437221    39.156537    23.653826 
   70400      236.418   -364.68821    216156.16   -20094.429     1497.524   -21591.953   -897.96019    352.89698     39.43765    39.158094    23.654846 
   70600    236.11155    -436.3057    216156.16   -20162.229    1495.5828   -21657.812    -1290.398    352.42367    39.438314    39.156662     23.67821 
   70800    233.11459   -328.47335    216156.16   -20129.228    1476.5994   -21605.828   -735.11254    355.03047    39.438097    39.155005     23.69175 
   71000    231.24838   -311.10691    216156.16    -20139.16    1464.7784   -21603.939   -691.06251    356.44035    39.437417    39.155327    23.687589 
   71200    240.57786   -326.37627    216156.16   -20137.468    1523.8734   -21661.342   -748.33997    357.48864    39.436793    39.153147    23.674113 
   71400      229.571   -357.65209    216156.16   -20170.185    1454.1535   -21624.339   -956.77069    357.41753    39.434121    39.153061    23.669821 
   71600    235.61767   -470.30904    216156.16   -20122.014    1492.4545   -21614.468     -1389.26    358.72113    39.434479    39.151745    23.642686 
   71800    226.89213   -381.41701    216156.16   -20249.858     1437.185   -21687.043   -964.63963     359.9431     39.43467    39.151898    23.645087 
   72000    233.09851   -487.46588    216156.16   -20231.038    1476.4975   -21707.536   -1391.6103    358.32069    39.432941    39.149395    23.650574 
   72200    237.22323   -299.27122    216156.16   -20094.654    1502.6244   -21597.279   -616.10125    359.17582    39.431798    39.149267    23.640842 
   72400    231.24028   -349.78141    216156.16   -20180.399    1464.7271   -21645.126   -876.01424    359.94049    39.431629     39.14919    23.639522 
   72600     238.0363   -394.52283    216156.16    -20152.81    1507.7746   -21660.584   -1030.7879    360.45113    39.431284    39.148912    23.651175 
   72800    234.88849   -439.75706    216156.16   -20183.424    1487.8357    -21671.26   -1217.7935    361.68774    39.430857    39.146925       23.633 
   73000    234.63787   -382.48401    216156.16   -20240.765    1486.2482   -21727.013   -931.22223    362.49127    39.430765     39.14585    23.650536 
   73200    237.14303   -460.59483    216156.16    -20181.53    1502.1165   -21683.646   -1285.2838    363.52256    39.431429    39.150137    23.648334 
   73400    236.09647   -493.34465    216156.16   -20179.345    1495.4873   -21674.832   -1415.8536    364.51216    39.431514     39.15246    23.640583 
   73600    235.65675   -429.21997    216156.16    -20172.15     1492.702   -21664.852   -1157.9306    365.85888    39.433308    39.153292    23.628892 
   73800    228.93282   -338.38882    216156.16   -20289.179    1450.1111    -21739.29   -799.70303    365.30971    39.433891     39.15395    23.628446 
   74000    232.85049   -247.27296    216156.16   -20262.512    1474.9265   -21737.439   -379.59406    365.79495    39.434892    39.152121    23.633194 
   74200    234.38222   -481.31324    216156.16   -20165.159    1484.6289   -21649.788   -1387.7741    367.21686    39.435623    39.153562    23.641345 
   74400    230.62138   -449.73283    216156.16   -20171.037    1460.8069   -21631.843   -1261.0568    365.71254    39.434705    39.156188    23.621465 
   74600    230.57292   -399.85638    216156.16   -20231.865    1460.4999   -21692.365   -1077.2524     367.7357    39.435238    39.157354    23.608122 
   74800    226.99813     -398.733    216156.16   -20246.478    1437.8564   -21684.334   -1052.3082     369.7788    39.435878    39.157961    23.621201 
   75000     232.3202    -308.8345    216156.16   -20246.613    1471.5676   -21718.181    -660.8041    369.27426    39.437071     39.16076    23.605198 
   75200    234.75612   -357.05941    216156.16   -20155.037    1486.9972   -21642.034   -846.44559    368.87328    39.438862    39.161056    23.600659 
   75400    231.35409   -518.17638    216156.16   -20232.951     1465.448   -21698.399   -1522.5208    372.14719    39.439781    39.162312    23.592263 
   75600    238.45888   -379.81476    216156.16   -20186.956    1510.4514   -21697.408   -959.84516    370.96173    39.438205    39.163513     23.61993 
   75800    237.50276   -405.77403    216156.16   -20141.385    1504.3951    -21645.78   -1044.9774    370.98065    39.436193    39.164128    23.605859 
   76000    236.69498   -359.05401    216156.16   -20173.211    1499.2784   -21672.489    -880.9997    370.23651    39.436706    39.163068    23.609521 
   76200    229.51609   -298.99022    216156.16   -20280.058    1453.8057   -21733.863   -598.05237     371.9846    39.438514    39.162784    23.606857 
   76400    236.66425   -439.33707    216156.16   -20245.903    1499.0837   -21744.987   -1255.0353    372.82066    39.437788    39.162077    23.609783 
   76600    238.15071   -417.23749    216156.16   -20234.641    1508.4993    -21743.14   -1165.5819    373.61774    39.439759    39.164071    23.618493 
   76800    230.49182   -353.55431    216156.16   -20226.317    1459.9862   -21686.303    -828.4842    375.06414    39.440437    39.164564    23.606915 
   77000      232.415    -443.9024    216156.16   -20198.547    1472.1681   -21670.715   -1206.5226    374.67767    39.441476    39.163208    23.606216 
   77200    241.91746   -364.60659    216156.16   -20158.904    1532.3587   -21691.263   -867.94702    377.35917    39.440675    39.164903    23.611511 
   77400    235.60757   -377.26676    216156.16    -20203.95    1492.3905   -21696.341   -941.97899    376.26722    39.444182    39.165271    23.603254 
   77600     235.2279    -488.1463    216156.16   -20250.162    1489.9856   -21740.147   -1387.5676    377.35225    39.444271    39.163925    23.595714 
   77800    239.45248   -285.83317    216156.16    -20198.55     1516.745   -21715.295     -550.687    378.96157      39.4452    39.161968    23.604923 
   78000     227.2034   -342.73338    216156.16    -20232.08    1439.1566   -21671.237   -807.56392    378.04206    39.445936    39.158468     23.63745 
   78200     234.6273    -348.6849    216156.16   -20137.356    1486.1812   -21623.537   -810.97865    379.75579    39.442908    39.155924    23.635536 
   78400    234.61538   -454.01004    216156.16    -20172.19    1486.1057   -21658.296   -1280.0479    381.88916    39.442072    39.155755    23.637987 
   78600      238.323   -375.62627    216156.16   -20220.801    1509.5906   -21730.392   -912.15902    382.56155     39.44259    39.156172    23.632271 
   78800    235.09225   -384.97026    216156.16   -20214.841    1489.1264   -21703.968   -983.70488    383.02629    39.442404    39.154751    23.629468 
   79000    238.83996    -521.0639    216156.16   -20175.773    1512.8652   -21688.638   -1545.8517    383.94873    39.439605    39.155356    23.613073 
   79200     243.2192   -211.62771    216156.16   -20149.516    1540.6042    -21690.12   -213.94661    382.05253    39.440173    39.158786     23.62154 
   79400    239.51808   -390.74442    216156.16   -20114.426    1517.1606   -21631.587   -1028.8247    383.56068    39.440934    39.157931    23.610751 
   79600    229.88916   -498.53108    216156.16   -20251.971    1456.1688    -21708.14   -1461.2089    384.78364    39.441095    39.158551    23.615046 
   79800    232.17182   -355.34023    216156.16   -20201.408    1470.6277   -21672.036   -814.91452    385.99163    39.440097    39.158054    23.610817 
   80000    228.39384   -344.02815    216156.16   -20229.622    1446.6972   -21676.319   -789.62687    386.72018    39.439458    39.155425    23.626197 
   80200    234.44891   -375.77832    216156.16   -20201.363    1485.0513   -21686.414   -926.56729     387.7736    39.440918    39.152225    23.606088 
   80400    232.48223   -514.63109    216156.16   -20187.517    1472.5939   -21660.111   -1517.2259    388.04184    39.441739    39.151558    23.604663 
   80600    240.64482    -390.4672    216156.16   -20161.856    1524.2976   -21686.153   -1066.9519    389.68628    39.439729      39.1531    23.603816 
   80800    234.50612   -419.80328    216156.16   -20138.633    1485.4137   -21624.047   -1147.1014    389.12593    39.440959    39.154393    23.609765 
   81000    235.14499   -263.47592    216156.16   -20136.926    1489.4604   -21626.386   -506.94612    390.20474    39.441057    39.154211    23.597275 
   81200    235.77022   -303.33362    216156.16   -20144.141    1493.4207   -21637.561   -632.39919    390.01914    39.440229    39.153923    23.595529 
   81400    230.46605   -444.11236    216156.16   -20155.041     1459.823   -21614.864   -1242.6688    389.36607     39.44092    39.154207    23.597489 
   81600    228.08784    -309.6501    216156.16   -20199.365    1444.7589   -21644.124   -671.18754    390.93456    39.441112    39.153339    23.584056 
   81800    227.86944   -348.84893    216156.16       -20266    1443.3755   -21709.376   -794.14255    392.40607    39.442602    39.153028    23.573669 
   82000    231.21377    -419.6369    216156.16   -20207.382    1464.5592   -21671.941    -1107.648    393.01066    39.442814    39.152298    23.558971 
   82200     244.6336   -401.50868    216156.16   -20144.962    1549.5634   -21694.526   -1059.9936    394.40107    39.442361    39.152665     23.57284 
   82400    236.94478   -489.96853    216156.16   -20193.927    1500.8607   -21694.788    -1384.331     393.9116    39.443322    39.153103    23.567964 
   82600    237.79212   -441.85274    216156.16   -20114.366    1506.2279   -21620.594   -1200.6109    394.54311    39.442165     39.15354    23.580811 
   82800    235.30883   -254.51203    216156.16   -20170.062    1490.4982    -21660.56   -441.82662     395.4084    39.440675    39.153409    23.593028 
   83000    238.93076   -447.79784    216156.16    -20103.04    1513.4403    -21616.48   -1195.9414    396.83578     39.44142    39.150532     23.60304 
   83200    227.61815   -375.49668    216156.16   -20105.118    1441.7838   -21546.902   -879.62514    399.82238       39.441    39.150054    23.590743 
   83400     231.7395   -392.47721    216156.16   -20140.573    1467.8893   -21608.463   -1017.7643    399.52351    39.436594    39.148978    23.576603 
   83600    228.27552   -403.43828    216156.16   -20193.334    1445.9477   -21639.282   -1041.7863     400.5661    39.436635    39.150334    23.567827 
   83800    232.17088   -345.40851    216156.16   -20144.569    1470.6218   -21615.191   -798.00825    401.10815    39.437513    39.149096    23.559198 
   84000    233.55673   -293.71402    216156.16   -20136.007    1479.4001   -21615.407   -608.43559    402.19567    39.435805    39.148485    23.567755 
   84200    236.59585   -362.03101    216156.16   -20124.866    1498.6505   -21623.517   -911.79264    402.18176    39.433167    39.148146    23.559244 
   84400    237.28601   -421.28558    216156.16    -20219.38    1503.0221   -21722.402   -1107.2378    402.32566    39.432845    39.147186    23.559822 
   84600    238.48773    -228.4306    216156.16   -20182.283    1510.6341   -21692.917   -321.73552    403.97665    39.429642    39.148815    23.566339 
   84800    235.87166   -317.64332    216156.16   -20229.548    1494.0633   -21723.611   -633.73325    406.33454    39.429747    39.148282      23.5881 
   85000    234.74225   -212.70239    216156.16   -20208.983    1486.9094   -21695.893   -259.97353    405.44524    39.428122    39.145686    23.596174 
   85200    231.57647   -448.99803    216156.16   -20232.853    1466.8566    -21699.71    -1207.418    407.69655    39.430094    39.146357    23.591485 
   85400    234.03893   -403.58612    216156.16   -20268.928    1482.4544   -21751.383   -1055.6947    408.06274    39.427216    39.144551    23.575009 
   85600    230.37466   -322.29113    216156.16   -20240.022    1459.2441   -21699.266   -667.48582    407.11437    39.426781    39.145878    23.541736 
   85800    240.11981   -257.27356    216156.16   -20121.469     1520.972   -21642.441   -404.91567    409.21457    39.429502    39.148409    23.550809 
   86000    230.15888   -398.19466    216156.16   -20152.392    1457.8773    -21610.27   -1028.9975    410.74083    39.431443    39.150735    23.585452 
   86200    232.53385     -322.012    216156.16   -20160.253    1472.9208   -21633.174   -678.56527    409.99673    39.429299    39.153326     23.58332 
   86400     236.6359   -454.44012    216156.16   -20208.618    1498.9042   -21707.522   -1274.6208    411.12103    39.426713    39.154213     23.60704 
   86600    234.06795   -331.17893    216156.16   -20135.836    1482.6382   -21618.474   -744.56294    411.75686    39.426084    39.152827    23.598434 
   86800    233.24714   -364.84006    216156.16   -20209.701     1477.439    -21687.14   -905.22641    412.23199    39.425201    39.151553    23.617902 
   87000    239.43994   -190.43404    216156.16   -20155.628    1516.6656   -21672.294   -135.53911    413.64174     39.42591     39.15128    23.595682 
   87200    236.98845   -197.62873    216156.16    -20115.65    1501.1373   -21616.788   -155.99887    414.56287    39.426578    39.152358    23.597987 
   87400     232.4989   -317.78493    216156.16   -20168.448    1472.6995   -21641.148   -686.09041    415.38051     39.42836    39.153127    23.627203 
   87600    241.27592   -276.45084    216156.16   -20123.682    1528.2951   -21651.977    -503.5489    415.62789    39.427554    39.151889    23.616706 
   87800    238.02077   -423.21775    216156.16   -20170.315    1507.6762   -21677.991   -1130.8586     416.2985    39.429847    39.154001    23.608743 
   88000     237.4345   -535.37831    216156.16   -20148.059    1503.9627   -21652.022   -1604.8927    416.16284    39.429513    39.154087    23.606812 
   88200    233.28493     -387.685    216156.16   -20222.359    1477.6784   -21700.038    -1024.793    414.78513    39.429993    39.155778    23.614923 
   88400    237.61871   -404.66336    216156.16   -20157.911    1505.1295    -21663.04   -1096.6983    414.19037     39.43072    39.155794    23.623529 
   88600     238.6994   -255.06718    216156.16   -20174.585    1511.9748    -21686.56   -412.26378    413.94613    39.432135     39.15824    23.603347 
   88800    228.98383   -337.94883    216156.16   -20206.895    1450.4343   -21657.329   -764.22516    415.66784    39.432167    39.160477    23.623247 
   89000    226.94017   -297.27877    216156.16   -20205.159    1437.4893   -21642.648   -659.22577    416.94729    39.432847    39.160719    23.634606 
   89200     237.1029   -398.87186    216156.16   -20191.749    1501.8623   -21693.611   -1012.0507    419.38022    39.434511    39.160456    23.634461 
   89400    238.24541       -347.5    216156.16   -20175.854    1509.0991   -21684.953   -835.55791    417.60757    39.435103    39.160634    23.673634 
   89600    225.60045    -351.5736    216156.16   -20253.226    1429.0032    -21682.23   -816.07211     419.0326    39.436561    39.160459    23.675829 
   89800    233.28113   -412.83496    216156.16   -20153.653    1477.6543   -21631.307   -1113.6257    420.12942    39.437155    39.161154    23.684788 
   90000    234.18465   -292.38762    216156.16   -20169.068    1483.3774   -21652.445   -604.58161      421.132    39.436716    39.159328    23.690226 
   90200    226.98541   -353.40272    216156.16   -20224.237    1437.7758   -21662.012   -808.95165    423.09829    39.433403    39.162132    23.699087 
   90400     238.9926   -360.92749    216156.16   -20170.643     1513.832   -21684.475   -840.97961    424.94991     39.43257     39.16314    23.693765 
   90600    233.73634   -374.54837    216156.16   -20163.958    1480.5377   -21644.496    -928.5955    426.21592    39.432264     39.16311    23.694499 
   90800      234.249   -475.93229    216156.16   -20155.545     1483.785    -21639.33   -1337.3393    427.76965    39.433193    39.163575    23.698031 
   91000    235.52202   -419.65159    216156.16   -20179.739    1491.8486   -21671.587   -1098.0917    427.99621    39.433996    39.161937    23.677969 
   91200    224.02178   -290.76936    216156.16   -20251.538    1419.0035   -21670.541   -618.13513     429.0762    39.433683     39.16147    23.680965 
   91400    234.17081   -537.36837    216156.16   -20191.201    1483.2898    -21674.49   -1611.2646    429.88112    39.433601     39.15947    23.672085 
   91600    236.78577   -604.32738    216156.16   -20135.436    1499.8535   -21635.289   -1926.0675    428.72113    39.430313    39.157003    23.669304 
   91800    241.00869   -502.93567    216156.16   -20134.762    1526.6024   -21661.365   -1508.1603    428.34908    39.428814     39.15776    23.667196 
   92000    237.31603   -460.19445    216156.16   -20133.235    1503.2123   -21636.447   -1311.4234    428.09608    39.427242    39.157634    23.683489 
   92200    237.20903   -291.37771    216156.16   -20156.501    1502.5345   -21659.036   -650.18902    427.88837    39.426141    39.158812    23.664364 
   92400    236.50309   -466.73767    216156.16   -20180.348    1498.0629   -21678.411   -1363.8482    429.52793    39.426976    39.157359    23.658852 
   92600    235.12865   -423.81016    216156.16   -20145.272    1489.3569   -21634.629   -1166.7223     431.2968     39.42456    39.155983     23.65116 
   92800    232.04431   -287.45049    216156.16   -20241.088      1469.82   -21710.908   -577.11128    431.56062    39.423754    39.154464    23.667609 
   93000    228.57469   -450.98707    216156.16   -20274.673    1447.8427   -21722.515   -1230.0796    431.41358    39.420475    39.154942    23.640075 
   93200    235.72331   -446.08075    216156.16   -20269.621    1493.1236   -21762.744   -1250.4422    430.96435     39.41846    39.152737    23.628654 
   93400    227.96712   -351.35552    216156.16   -20325.246    1443.9942    -21769.24   -898.19015    431.18565    39.418008    39.152694    23.634532 
   93600    232.84739   -376.16002    216156.16   -20305.865    1474.9069   -21780.772   -939.51921    431.60797    39.416278    39.153693    23.632261 
   93800    231.86845   -378.25552    216156.16   -20344.289    1468.7061   -21812.995   -993.75856    430.88317    39.415865    39.153407    23.654905 
   94000    234.83078   -406.13279    216156.16    -20327.69    1487.4702    -21815.16   -1039.1912    431.52695     39.41646    39.152802    23.642401 
   94200    236.91295   -510.36326    216156.16   -20212.913    1500.6591   -21713.572   -1499.7161    431.86112    39.414355    39.151759    23.663697 
   94400    234.02939   -370.91436    216156.16   -20245.042    1482.3939   -21727.436   -953.75994    429.52893    39.410713    39.150847     23.69271 
   94600    231.20416   -518.76685    216156.16   -20232.765    1464.4984   -21697.263   -1550.5658    430.14624    39.410861    39.150993    23.695175 
   94800     233.4816   -613.81896    216156.16   -20199.752    1478.9242   -21678.676   -1942.5441    430.97193    39.410118    39.148058    23.720949 
   95000    229.88937   -296.17299    216156.16   -20235.557    1456.1701   -21691.727   -609.71715    430.85358    39.408461    39.146506    23.728168 
   95200    233.38883   -455.99224    216156.16   -20214.988    1478.3365   -21693.324   -1299.0989    430.36041    39.409889    39.148392    23.734049 
   95400    237.78058   -437.91324    216156.16   -20156.337    1506.1549   -21662.492   -1220.2381    432.03091    39.407963    39.146503    23.724128 
   95600    235.94101   -232.51049    216156.16   -20141.191    1494.5026   -21635.694   -392.78888    432.50579    39.407766    39.145634    23.735483 
   95800    234.91538   -397.44173    216156.16   -20136.017     1488.006   -21624.023   -1050.3345     433.6188    39.409694    39.146963    23.711204 
   96000    236.85107   -448.83666    216156.16   -20119.896    1500.2671   -21620.163   -1223.9382    435.25552    39.408467    39.146236    23.706572 
   96200    243.73867   -336.88312    216156.16   -20104.131    1543.8947   -21648.026   -813.16451    435.61774    39.406643    39.146936    23.699329 
   96400    229.19278   -445.25063    216156.16   -20238.607    1451.7578   -21690.364   -1237.9932    435.36562    39.404571     39.14631    23.695833 
   96600    235.85252   -409.19459    216156.16   -20247.283    1493.9421   -21741.225   -1111.9083    435.33091    39.404126    39.144479    23.688913 
   96800    239.45905    -456.4865    216156.16   -20154.655    1516.7866   -21671.442   -1277.0776    436.60712    39.402431    39.144298    23.688624 
   97000    236.25898   -385.86505    216156.16   -20195.797    1496.5167   -21692.313   -966.22789    438.61678    39.404286    39.145784    23.682494 
   97200    229.79183   -349.16921    216156.16   -20199.368    1455.5523    -21654.92   -837.38566    438.41723    39.404526    39.147006    23.670222 
   97400    237.67563   -587.86877    216156.16   -20188.719    1505.4901   -21694.209   -1853.7841    438.62483    39.403066    39.145458    23.653456 
   97600    238.80987   -385.93749    216156.16   -20183.747    1512.6746   -21696.422   -1033.2399    438.20782    39.402579    39.145572    23.640018 
   97800    230.23015   -351.01858    216156.16   -20178.423    1458.3287   -21636.752   -829.36855    440.34759     39.40347    39.144884    23.644536 
   98000    234.11661   -531.57778    216156.16   -20211.347    1482.9465   -21694.294      -1606.8    439.91981    39.405323    39.143231    23.643375 
   98200    236.25163   -354.80474    216156.16   -20231.852    1496.4701   -21728.322   -807.38259    441.11552    39.406568    39.142155     23.65298 
   98400    234.71457    -480.4359    216156.16   -20204.218     1486.734   -21690.952   -1395.4116     442.8328    39.405066    39.144264    23.636478 
   98600    230.18879   -350.36964    216156.16   -20212.743    1458.0668    -21670.81   -839.03004    441.69038    39.404597    39.147392    23.648334 
   98800    235.73479   -398.08746    216156.16   -20181.607    1493.1963   -21674.804   -1042.2144    442.30058    39.406893    39.149744    23.659128 
   99000    231.03329   -485.42834    216156.16   -20234.656     1463.416   -21698.072   -1438.6781    443.90201    39.408159    39.149887    23.671438 
   99200    234.25643   -263.80575    216156.16   -20187.254    1483.8321   -21671.086   -425.97967    445.08485    39.407171    39.148302     23.67263 
   99400    238.57669   -326.93363    216156.16   -20157.147    1511.1976   -21668.345   -709.60624    446.13467    39.409431    39.148435    23.696523 
   99600    235.34478   -430.01949    216156.16   -20140.435     1490.726   -21631.161   -1190.7858    445.84252    39.406665    39.146624    23.700257 
   99800     243.2967   -309.98728    216156.16   -20175.226    1541.0952   -21716.322   -649.49533    446.43266    39.406425    39.146946    23.697091 
  100000    237.07958   -364.18247    216156.16   -20192.323    1501.7146   -21694.038   -896.31916    448.16266    39.405481    39.145879    23.693032 
  100200     226.5457   -291.08572    216156.16   -20249.545    1434.9906   -21684.536   -535.56232    448.05576    39.405641    39.143504    23.697456 
  100400    233.67719   -489.62767    216156.16   -20155.566     1480.163   -21635.729   -1464.2806    449.25828    39.406562     39.14334    23.713231 
  100600    238.30141   -197.00096    216156.16   -20186.045    1509.4539   -21695.499   -175.07239    450.64036    39.405428    39.142091    23.744954 
  100800    228.17095   -289.70604    216156.16   -20244.728    1445.2853   -21690.013   -591.09648    452.32969    39.403713    39.142433    23.759066 
[...]
 3976000    221.32156   -136.15612    216156.16    -22193.99    1401.8997    -23595.89     103.8828    6570.8094    39.153255    40.013285     23.83731 
 3976200    224.05477   -78.349093    216156.16   -22205.753    1419.2125   -23624.965    355.05073    6572.1492    39.153515    40.013302     23.84045 
 3976400    228.37995   -137.14081    216156.16   -22205.977    1446.6092   -23652.586    102.17757    6571.3762    39.154549    40.013406    23.846343 
 3976600    222.21562    -48.46369    216156.16   -22205.464    1407.5629   -23613.027    474.77524    6571.1142    39.153809    40.013599     23.83906 
 3976800    223.47986   -26.303059    216156.16    -22146.94    1415.5709   -23562.511    532.34127    6571.5844    39.154107    40.013203     23.84548 
 3977000    221.37106   -127.01324    216156.16   -22253.121    1402.2133   -23655.334    153.58868     6570.215    39.154253    40.013347    23.839858 
 3977200    227.46014   -98.172543    216156.16   -22153.621    1440.7829   -23594.404    312.30167    6571.3793     39.15438    40.014055    23.836038 
 3977400    222.61585   -56.016378    216156.16   -22165.233    1410.0981   -23575.331    429.39362    6572.4504    39.154586    40.013871    23.838184 
 3977600    225.32774   -28.635686    216156.16    -22192.72    1427.2758   -23619.996    566.52766    6571.2037    39.155457    40.014206    23.838577 
 3977800    227.09694    -99.69246    216156.16   -22196.654    1438.4823   -23635.137     256.7106    6571.6994     39.15603    40.015412    23.837112 
 3978000    218.21459   -125.85889    216156.16   -22216.577    1382.2195   -23598.796    165.35928    6573.4017    39.155991    40.016631    23.832195 
 3978200    224.88191   -129.65915    216156.16   -22151.482    1424.4518   -23575.934    141.50155    6571.3722    39.155794    40.017962    23.836493 
 3978400    215.81857   -21.715991    216156.16   -22224.155    1367.0426   -23591.198     580.9881    6571.7519    39.156145    40.018344    23.840175 
 3978600     225.1103   -34.469831    216156.16   -22182.593    1425.8985   -23608.491    492.20244    6572.2416    39.156645     40.01924    23.833589 
 3978800    223.88722     -161.997    216156.16   -22153.831    1418.1512   -23571.983    41.888072    6572.6755    39.156268     40.01988    23.832659 
 3979000    222.69382   -71.515194    216156.16   -22184.604     1410.592   -23595.196    392.37075    6571.5165    39.157195    40.020715     23.83933 
 3979200    223.32598    42.571341    216156.16   -22225.319    1414.5962   -23639.915    860.66944    6570.5511    39.157158    40.021749    23.833535 
 3979400    223.80255    8.7719034    216156.16   -22180.868    1417.6149   -23598.483    710.73927    6571.6367     39.15725    40.021775    23.829827 
 3979600     223.8661   -110.84251    216156.16   -22196.992    1418.0174   -23615.009    251.84958      6571.56    39.157552     40.02218    23.834594 
 3979800    223.00457   -142.13315    216156.16   -22192.161    1412.5603   -23604.721    35.205312    6572.4703    39.158032    40.022613    23.831268 
 3980000    218.93612   -96.823589    216156.16   -22197.501    1386.7898   -23584.291    244.71526    6572.1206    39.158171    40.022567    23.829504 
 3980200    222.05005   -25.654343    216156.16   -22194.384    1406.5141   -23600.898    566.78444    6571.5865    39.158627    40.023053    23.834028 
 3980400    225.60832   -96.247741    216156.16   -22165.572    1429.0531   -23594.625    241.74034     6573.165    39.157822    40.023577    23.830275 
 3980600    227.37219   -168.69913    216156.16   -22113.378    1440.2258   -23553.604   -44.334235    6572.6072     39.15751    40.023328    23.833026 
 3980800     220.7535   -59.675039    216156.16   -22145.969    1398.3016   -23544.271      431.099    6571.2093    39.157675    40.024479    23.832058 
 3981000    224.49667   -67.909682    216156.16   -22173.657    1422.0116   -23595.669    366.07407    6572.0427    39.158312    40.024514    23.829313 
 3981200    224.29748   -109.18666    216156.16   -22174.901    1420.7499   -23595.651    186.46766    6571.6023    39.158164    40.024801    23.828932 
 3981400    227.91346    -78.42315    216156.16   -22152.201    1443.6543   -23595.856    351.48392    6572.9708    39.158127    40.025095    23.831088 
 3981600    228.16383   -122.17518    216156.16   -22195.472    1445.2402   -23640.712    147.21161    6572.1505    39.157693    40.024303    23.833111 
 3981800    224.90931    10.518707    216156.16   -22181.814    1424.6254   -23606.439    697.11814    6571.0514     39.15718    40.024625     23.83035 
 3982000    224.05584   -21.744099    216156.16   -22235.663    1419.2193   -23654.883    554.91488    6570.6825    39.157519    40.025056    23.826486 
 3982200    221.70573   -54.636798    216156.16   -22271.014    1404.3331   -23675.347    433.65673    6571.9264    39.157084    40.024976    23.823991 
 3982400    219.40789    -151.2128    216156.16   -22187.437    1389.7781   -23577.215    43.690835    6571.7992    39.157306    40.025432      23.8242 
 3982600    221.71039   -112.47593    216156.16   -22190.083    1404.3627   -23594.445     210.2314    6571.3687    39.157158    40.025813    23.824178 
 3982800    230.53951    -132.5847    216156.16   -22145.866    1460.2883   -23606.154    139.71906      6570.54    39.157498    40.026215    23.827387 
 3983000    231.07596   -36.718691    216156.16   -22115.864    1463.6863    -23579.55    479.05655    6570.8866     39.15838    40.025849    23.831307 
 3983200     223.2194   -158.16896    216156.16   -22134.988    1413.9211   -23548.909     9.515233    6572.5909     39.15811    40.026159    23.830108 
 3983400     229.5259   -199.37506    216156.16   -22102.383    1453.8679   -23556.251   -169.19478    6573.1129    39.159411    40.026358    23.832928 
 3983600    221.01582    -53.64821    216156.16   -22173.579    1399.9631   -23573.542    492.20464    6571.4568    39.160054    40.027503    23.831324 
 3983800    227.56351   -24.828066    216156.16   -22169.821    1441.4377   -23611.258    542.26287    6571.1095     39.16055    40.028137    23.833661 
 3984000    226.13333   -181.71993    216156.16   -22173.537    1432.3786   -23605.915   -102.99477    6570.9846    39.160951    40.029084     23.83446 
 3984200    224.89686   -81.001387    216156.16   -22142.679    1424.5465   -23567.225    341.90462    6570.3093    39.161796    40.029175    23.834871 
 3984400    223.73039   -97.172797    216156.16   -22189.306    1417.1578   -23606.463    241.68068    6570.7844    39.163082    40.029847    23.835511 
 3984600    222.34703   -102.94503    216156.16    -22204.96    1408.3953   -23613.356    208.96376    6572.6458    39.163312    40.030495    23.829441 
 3984800    226.77467   -136.23815    216156.16   -22164.544     1436.441   -23600.985    123.01434    6573.3958    39.164256    40.031581    23.830084 
 3985000    222.02827   -165.83838    216156.16   -22205.918    1406.3762   -23612.295   -24.553676    6573.0033    39.164654     40.03232    23.839141 
 3985200     219.0209   -104.96654    216156.16   -22159.553    1387.3269    -23546.88     225.6722      6570.14    39.165596    40.033257    23.836285 
 3985400    223.25336   -21.995318    216156.16   -22174.918    1414.1362   -23589.054    551.58763     6571.608    39.166882    40.034061    23.830724 
 3985600    229.01415    -80.84935    216156.16   -22137.127    1450.6263   -23587.753    350.32788    6574.0447    39.168179    40.035437    23.832887 
 3985800    218.26949   -227.91518    216156.16   -22148.701    1382.5672   -23531.268   -301.45578    6573.8113    39.168726    40.035898    23.830915 
 3986000    231.15046   -81.080563    216156.16   -22082.387    1464.1582   -23546.545    348.21023    6571.7855    39.169079    40.037222    23.829762 
 3986200    227.60805    16.840167    216156.16   -22120.864    1441.7198   -23562.584    746.62871    6572.7272    39.169968    40.038647    23.832848 
 3986400    222.21742   -104.64853    216156.16   -22209.265    1407.5743   -23616.839    243.59654    6571.5485    39.170675    40.039324    23.829864 
 3986600     226.4418   -61.220315    216156.16   -22171.076    1434.3325   -23605.409    401.78779    6572.0369    39.171798    40.039932    23.823246 
 3986800     223.6625     -160.803    216156.16   -22168.202    1416.7278   -23584.929   -28.818251    6574.4791    39.172779    40.041136    23.832399 
 3987000    227.78316   -52.739785    216156.16   -22145.651     1442.829    -23588.48    435.81938    6572.2517    39.173778    40.042205    23.829023 
 3987200    221.49477   -48.458084    216156.16   -22241.191    1402.9969   -23644.187    441.64133    6573.8972    39.173734    40.043236    23.836077 
 3987400     221.2071   -114.54418    216156.16   -22185.304    1401.1747   -23586.479    194.35051    6572.4533    39.173498    40.044464    23.846048 
 3987600    232.41238    -43.59282    216156.16    -22123.37    1472.1514   -23595.522    494.63484    6573.1397     39.17363    40.045165    23.837848 
 3987800     224.4005   -39.288365    216156.16   -22175.305    1421.4025   -23596.707    497.75654    6572.0312    39.173399     40.04715    23.831727 
 3988000    225.04025   -137.84387    216156.16   -22135.691    1425.4548   -23561.146    102.31825    6573.3006    39.174015    40.048074    23.839275 
 3988200    224.60046   -96.577033    216156.16   -22164.723     1422.669   -23587.392    284.91408    6571.6145    39.174832    40.049252    23.840721 
 3988400     228.9606   -115.38075    216156.16   -22143.565    1450.2871   -23593.853    181.77634    6573.4393    39.175627    40.049825    23.845018 
 3988600    222.10959   -91.317058    216156.16   -22194.461    1406.8913   -23601.352    307.21855    6573.0627    39.176376    40.050452    23.848641 
 3988800    224.57623    -24.43689    216156.16   -22198.614    1422.5156   -23621.129    604.87482    6570.8205    39.176938    40.051996    23.842018 
 3989000    230.81846   -82.975988    216156.16   -22119.394    1462.0552   -23581.449    329.66971     6572.086    39.177325    40.053297    23.842007 
 3989200    224.31922    -91.81386    216156.16   -22159.486    1420.8876   -23580.373     286.7429     6573.304    39.177422    40.054223    23.828479 
 3989400    223.98071   -135.42718    216156.16   -22199.446    1418.7434   -23618.189    72.198354    6572.4183    39.178484    40.055341    23.829081 
 3989600    224.59287   -19.010211    216156.16   -22113.383     1422.621   -23536.004    594.32705    6571.9936    39.178706    40.057296    23.829921 
 3989800    229.27085   -78.764698    216156.16   -22151.682    1452.2523   -23603.934    351.02779    6572.4608    39.179845    40.058722    23.834571 
 3990000    220.85998   -113.21132    216156.16   -22193.341     1398.976   -23592.317    188.34017    6572.3481    39.180278    40.059569    23.828574 
 3990200    223.13053   -185.94225    216156.16    -22189.44    1413.3581   -23602.798   -122.45258    6573.4676    39.180404    40.061408    23.825563 
 3990400    225.90201   -91.633937    216156.16   -22166.491    1430.9133   -23597.404     272.7893    6572.9435    39.180512    40.062153     23.82534 
 3990600    227.44315   -7.9729957    216156.16   -22207.786    1440.6753   -23648.462    666.48445    6572.5041    39.181288    40.062306    23.827216 
 3990800     221.7862   -144.27861    216156.16   -22170.189    1404.8429   -23575.031    71.288884    6572.9633     39.18195     40.06243    23.827993 
 3991000    226.43247   -170.33855    216156.16   -22141.347    1434.2734   -23575.621   -58.139662    6573.2691    39.181749     40.06374    23.830853 
 3991200    234.92382    -50.73606    216156.16   -22121.839    1488.0595   -23609.898    468.07275    6573.6811    39.181865    40.065149    23.832818 
 3991400    229.12573   -47.896462    216156.16   -22122.677    1451.3331    -23574.01    474.93342    6574.1076    39.182142     40.06461    23.829805 
 3991600    226.83919   -75.186843    216156.16   -22177.022    1436.8497   -23613.872    345.73425    6573.7188    39.183088    40.065368    23.829122 
 3991800    224.60403   -28.129905    216156.16   -22241.031    1422.6916   -23663.723    542.49093    6572.3566    39.183862    40.066011    23.829712 
 3992000    218.05194     -38.8189    216156.16   -22186.179    1381.1893   -23567.368    516.60785    6573.4667    39.184085    40.066357    23.834145 
 3992200    224.15099   -87.971905    216156.16    -22162.43     1419.822   -23582.252    294.55008    6574.6901    39.184596    40.066944    23.836913 
 3992400    223.41363   -97.641401    216156.16   -22173.903    1415.1514   -23589.054    244.08416    6574.5752    39.185277    40.067015    23.834573 
 3992600    227.96215   -14.208646    216156.16   -22170.343    1443.9627   -23614.306    641.16991    6573.1482    39.185184    40.068006    23.832981 
 3992800    226.74584   -39.766808    216156.16   -22158.996    1436.2583   -23595.255    524.46835    6573.5262    39.185655    40.068466    23.831253 
 3993000    215.98544     -84.3104    216156.16   -22252.363    1368.0996   -23620.463    337.35367    6573.8138    39.184852    40.068274    23.825943 
 3993200    228.06346   -145.59993    216156.16   -22162.517    1444.6045   -23607.122    66.083796     6574.048    39.185417    40.067975    23.832562 
 3993400    227.30051   -170.74221    216156.16   -22117.141    1439.7717   -23556.913    -42.43867    6575.4024    39.186228    40.068334    23.832927 
 3993600    223.29519   -168.56082    216156.16    -22130.88    1414.4012   -23545.282   -34.496726    6573.2202    39.186778    40.068735    23.830295 
 3993800    224.69747    24.787014    216156.16   -22152.387    1423.2835   -23575.671    790.72588    6572.6865    39.187863    40.069456    23.835369 
 3994000    225.38826    12.498295    216156.16   -22166.421    1427.6591    -23594.08    774.59379    6574.3927    39.188758    40.069705    23.833919 
 3994200    222.51992   -99.810823    216156.16   -22185.568    1409.4904   -23595.058    228.73714    6574.5376     39.18935    40.070409    23.834567 
 3994400    225.10563   -195.50259    216156.16   -22156.893    1425.8689   -23582.762   -146.73423    6574.5722    39.189659    40.071412    23.838429 
 3994600    217.20441   -38.127654    216156.16   -22217.966    1375.8208   -23593.786    566.02472    6575.2283    39.189724    40.071906    23.838964 
 3994800    230.56384   -115.06084    216156.16   -22129.104    1460.4424   -23589.547    197.63888    6573.9497    39.190858    40.072872    23.841826 
 3995000       218.75   -66.185557    216156.16   -22138.377    1385.6109   -23523.988    434.32652    6571.8553    39.191878    40.073489    23.833576 
 3995200    225.55711   -122.52104    216156.16   -22195.058    1428.7287   -23623.787    189.78074    6574.1705    39.192233    40.073817    23.834126 
 3995400    225.75608   -123.74808    216156.16   -22135.622     1429.989   -23565.611    162.40704    6572.4268    39.193492     40.07451     23.83728 
 3995600    228.71185   -126.42044    216156.16   -22079.113    1448.7115   -23527.825      119.295    6572.3914    39.195191    40.075379    23.838671 
 3995800    224.29821   -117.23578    216156.16   -22103.948    1420.7545   -23524.702    163.89467    6572.5679    39.196663     40.07615    23.834346 
 3996000    231.86382   -66.724131    216156.16   -22053.607    1468.6768   -23522.283    379.04965     6574.644    39.196913    40.076296    23.832951 
 3996200    230.57325    -114.1174    216156.16    -22134.55     1460.502   -23595.052    181.62503    6575.1378    39.197706    40.075786    23.836427 
 3996400    228.39818   -187.90759    216156.16   -22167.455    1446.7246    -23614.18   -102.84064    6573.6749    39.198264    40.076199    23.826283 
 3996600    225.17081   -124.83341    216156.16   -22139.443    1426.2818   -23565.725    165.99483    6574.0994     39.19855    40.076572    23.823491 
 3996800    228.18305    31.055857    216156.16   -22186.581     1445.362   -23631.943    826.88973     6572.928    39.198447    40.076481    23.827004 
 3997000    232.01051    -144.4038    216156.16   -22067.899    1469.6059   -23537.505    75.478884    6573.7139    39.199112    40.077314     23.83587 
 3997200    224.54907   -134.69456    216156.16   -22120.018    1422.3435   -23542.361    100.82324    6574.8472    39.198721    40.077078    23.829253 
 3997400     219.6543    -18.48353    216156.16   -22177.713     1391.339   -23569.052    608.42126    6573.8311    39.199092    40.077444    23.835072 
 3997600    232.69476   -90.990622    216156.16   -22110.175    1473.9401   -23584.115     304.8391    6573.0844    39.200104    40.077044    23.833528 
 3997800    220.58191   -179.79716    216156.16   -22236.029    1397.2147   -23633.243   -69.496851    6572.1028    39.200426    40.078695    23.829485 
 3998000    228.67273   -79.047456    216156.16   -22159.491    1448.4637   -23607.955    348.26606     6573.212    39.201074     40.07849    23.828886 
 3998200    221.80598   -123.38948    216156.16   -22204.503    1404.9682   -23609.471    173.22483    6574.4753    39.201575    40.078708    23.825741 
 3998400    222.61754   -111.15949    216156.16   -22068.645    1410.1088   -23478.754    201.79386    6575.4774    39.202163    40.079098    23.828847 
 3998600    224.95724   -231.40756    216156.16   -22172.006     1424.929   -23596.935   -305.52132    6573.5586    39.202959    40.079892    23.827944 
 3998800    223.36624   -46.310475    216156.16   -22169.712    1414.8512   -23584.563    491.42898    6573.6669     39.20261    40.081393    23.828901 
 3999000     228.1657     -145.547    216156.16   -22106.371     1445.252   -23551.623    63.664698    6574.3265    39.202668    40.080871    23.833176 
 3999200    223.46013   -84.529605    216156.16    -22159.85    1415.4459   -23575.296    353.24839    6573.3619    39.202811    40.081781    23.833516 
 3999400    217.29346   -124.23397    216156.16   -22193.545    1376.3849    -23569.93     177.0216    6573.8738    39.203893    40.082213     23.83092 
 3999600    218.92928   -107.68607    216156.16   -22196.385    1386.7465   -23583.131    193.95338     6573.484    39.203854    40.082682    23.823227 
 3999800    222.95709   -162.43219    216156.16    -22126.73    1412.2596   -23538.989   -14.379589    6574.2387    39.203357    40.082309    23.819472 
 4000000    221.91222   -90.109526    216156.16   -22118.589    1405.6411    -23524.23    319.91875    6573.8162    39.203999    40.082395    23.835451 
Loop time of 5808.56 on 64 procs for 4000000 steps with 9422 atoms

Performance: 594.984 ns/day, 0.040 hours/ns, 688.639 timesteps/s
99.0% CPU use with 64 MPI tasks x no OpenMP threads

MPI task timing breakdown:
Section |  min time  |  avg time  |  max time  |%varavg| %total
---------------------------------------------------------------
Pair    | 4.3342     | 1866.6     | 3984.5     |3709.6 | 32.13
Neigh   | 4.5496     | 212.27     | 449.43     |1124.0 |  3.65
Comm    | 766.12     | 2092.4     | 4135       |2621.2 | 36.02
Output  | 127.23     | 127.51     | 127.95     |   1.5 |  2.20
Modify  | 342.5      | 1394.7     | 4278.8     |4145.8 | 24.01
Other   |            | 115.1      |            |       |  1.98

Nlocal:        147.219 ave         285 max           0 min
Histogram: 16 0 4 12 0 0 0 7 12 13
Nghost:        827.688 ave        1038 max         620 min
Histogram: 8 12 10 2 0 0 0 14 10 8
Neighs:         0.00000 ave           0 max           0 min
Histogram: 64 0 0 0 0 0 0 0 0 0
FullNghs:      14871.7 ave       32076 max           0 min
Histogram: 16 16 0 0 0 0 0 7 13 12

Total # of neighbors = 951788
Ave neighs/atom = 101.01762
Neighbor list builds = 428990
Dangerous builds = 0
write_data 		${DIR}/data.${NAME}_run
write_data 		run_10/data.${NAME}_run
write_data 		run_10/data.ibeam_cooling_10_run
System init for write_data ...
Total wall time: 1:37:03
