
### Dimensions ###
variable Z_G equal 10.062000000000001
variable Z_W equal 23.803019087

variable	XDIM string 78.752
variable 	YDIM string 80.86108639999017


### IMPORT ATOMS ###
read_data ../Box_Setup/data.Ibeam_240K
Reading data file ...
  orthogonal box = (0.0000000 0.0000000 0.0000000) to (78.752000 80.861086 33.944269)
  4 by 8 by 2 MPI processor grid
  reading atoms ...
  9422 atoms
  reading velocities ...
  9422 velocities
  read_data CPU = 0.029 seconds
group water type 2
2126 atoms in group water
group graphite type 1
7296 atoms in group graphite


# Define potential
#
pair_style          sw
pair_coeff * * MLC_e.sw C mW

# Add velocity/set timestep
#

fix		1 graphite setforce 0.0 0.0 0.0
velocity 	graphite set 0.0 0.0 0.0
velocity            water create ${START_TEMP} ${SEED} rot yes dist gaussian
velocity            water create 235 ${SEED} rot yes dist gaussian
velocity            water create 235 8961 rot yes dist gaussian
timestep            5.0

# Define output
#
compute 1 water msd
compute 2 water temp


thermo	            100
thermo_style custom step c_2 press vol etotal ke pe c_1[4] density

# Neighbor lists
#
neigh_modify        delay 0 every 1 check yes


# Set fixes
#
fix                 2 water momentum 10 linear 1 1 1 rescale
fix                 3 all nve
fix                 4 water temp/csvr ${START_TEMP} ${START_TEMP} 500.0 928347
fix                 4 water temp/csvr 235 ${START_TEMP} 500.0 928347
fix                 4 water temp/csvr 235 235 500.0 928347

# Run 0.05 ns equilibration
#
dump                1 all custom 100 ${DIR}/eq.${NAME}.dump id type x y z vx vy vz
dump                1 all custom 100 run_10/eq.${NAME}.dump id type x y z vx vy vz
dump                1 all custom 100 run_10/eq.ibeam_cooling_10.dump id type x y z vx vy vz
run                 10000
Neighbor list info ...
  update every 1 steps, delay 0 steps, check yes
  max neighbors/atom: 2000, page size: 100000
  master list distance cutoff = 6.6747184
  ghost atom cutoff = 6.6747184
  binsize = 3.3373592, bins = 24 25 11
  1 neighbor lists, perpetual/occasional/extra = 1 0 0
  (1) pair sw, perpetual
      attributes: full, newton on
      pair build: full/bin/atomonly
      stencil: full/bin/3d
      bin: standard
Per MPI rank memory allocation (min/avg/max) = 3.640 | 4.495 | 4.761 Mbytes
Step c_2 Press Volume TotEng KinEng PotEng c_1[4] Density 
       0          235   -349.74665    216156.16   -20108.674     1488.542   -21597.216            0   0.96737059 
     100    233.45665   -363.02768    216156.16   -20131.672    1478.7661   -21610.439    0.9186262   0.96737059 
     200     234.7355   -344.43519    216156.16   -20167.892    1486.8666   -21654.758    1.3265748   0.96737059 
     300    237.70731   -416.91017    216156.16   -20172.127    1505.6907   -21677.817    1.6997744   0.96737059 
     400    234.92942   -402.89617    216156.16   -20176.823     1488.095   -21664.918    2.0645291   0.96737059 
     500     239.3054   -518.99294    216156.16   -20166.529    1515.8134   -21682.342    2.4380219   0.96737059 
     600    235.31443   -358.74425    216156.16   -20115.533    1490.5337   -21606.067    3.0144424   0.96737059 
     700    234.40204   -333.48072    216156.16   -20124.929    1484.7544   -21609.683    3.3910515   0.96737059 
     800      234.948     -291.428    216156.16   -20119.855    1488.2126   -21608.068    3.6648718   0.96737059 
     900     234.0243   -321.09302    216156.16   -20143.347    1482.3617   -21625.708    3.9417516   0.96737059 
    1000    239.83692   -417.39698    216156.16   -20196.689    1519.1801   -21715.869    4.2129348   0.96737059 
    1100    239.10671   -445.07855    216156.16   -20172.772    1514.5548   -21687.327    4.5123562   0.96737059 
    1200    235.90783   -278.27793    216156.16   -20179.609    1494.2924   -21673.901    4.7275063   0.96737059 
    1300    241.47329   -367.27856    216156.16   -20125.532    1529.5453   -21655.077    5.1459895   0.96737059 
    1400    236.68147   -532.20647    216156.16   -20149.019    1499.1928   -21648.211    5.5176732   0.96737059 
    1500    233.35369   -349.51516    216156.16   -20185.231    1478.1139   -21663.345     5.899617   0.96737059 
    1600    233.81515   -594.99049    216156.16   -20164.691    1481.0369   -21645.727    6.2422798   0.96737059 
    1700     238.8432   -385.33134    216156.16   -20175.908    1512.8857   -21688.793    6.6461654   0.96737059 
    1800    233.49865   -255.82007    216156.16   -20161.981    1479.0321   -21641.013     6.951134   0.96737059 
    1900    238.37462   -344.50295    216156.16   -20126.922    1509.9176   -21636.839    7.2493624   0.96737059 
    2000    241.09329   -385.25969    216156.16   -20106.374    1527.1383   -21633.512    7.6609515   0.96737059 
    2100    235.58175   -473.11989    216156.16   -20196.344     1492.227   -21688.571    8.1067611   0.96737059 
    2200    237.74279   -350.01089    216156.16   -20162.512    1505.9155   -21668.427    8.4632319   0.96737059 
    2300    239.35356   -373.96813    216156.16   -20147.196    1516.1185   -21663.315    8.7541221   0.96737059 
    2400    228.92471   -334.77999    216156.16    -20154.62    1450.0598    -21604.68    8.9995361   0.96737059 
    2500     236.3084   -406.74527    216156.16   -20159.208    1496.8297   -21656.037    9.3331565   0.96737059 
    2600    237.95026   -518.93409    216156.16   -20174.609    1507.2296   -21681.839     9.514766   0.96737059 
    2700    238.68503   -395.67309    216156.16   -20168.932    1511.8838   -21680.816    9.7578515   0.96737059 
    2800    245.33027   -209.43916    216156.16   -20134.026    1553.9763   -21688.002     10.06189   0.96737059 
    2900    244.00691   -366.24439    216156.16   -20151.537    1545.5938   -21697.131    10.386578   0.96737059 
    3000    237.89498   -404.90446    216156.16   -20140.034    1506.8795   -21646.914    10.647195   0.96737059 
    3100    236.54228   -299.75254    216156.16   -20145.947    1498.3112   -21644.258    10.876943   0.96737059 
    3200     242.8778   -440.18429    216156.16   -20205.056    1538.4417   -21743.497    11.116893   0.96737059 
    3300    229.12153   -408.29947    216156.16   -20287.011    1451.3065   -21738.318     11.14831   0.96737059 
    3400    234.43344   -327.09491    216156.16   -20239.557    1484.9533    -21724.51    11.551567   0.96737059 
    3500     232.0102   -478.79414    216156.16   -20236.979    1469.6039   -21706.583      11.6406   0.96737059 
    3600    232.87257   -361.46558    216156.16    -20235.78    1475.0664   -21710.847    11.870964   0.96737059 
    3700    237.21617   -475.08483    216156.16    -20212.64    1502.5797    -21715.22    12.219314   0.96737059 
    3800    235.53785   -406.88085    216156.16   -20215.481    1491.9489   -21707.429    12.512968   0.96737059 
    3900    235.45326   -472.37639    216156.16   -20218.837    1491.4131    -21710.25    13.019452   0.96737059 
    4000    235.60249   -326.27638    216156.16   -20224.766    1492.3583   -21717.124    13.495372   0.96737059 
    4100    232.53752   -241.82585    216156.16   -20205.317    1472.9441   -21678.261    14.192238   0.96737059 
    4200    233.35386   -270.58468    216156.16   -20200.938     1478.115   -21679.053    14.696761   0.96737059 
    4300      234.594   -433.53041    216156.16   -20256.495    1485.9703   -21742.466    15.054362   0.96737059 
    4400    230.48012   -436.57916    216156.16   -20202.134    1459.9121   -21662.046    15.326181   0.96737059 
    4500    224.67201   -434.92616    216156.16     -20213.2    1423.1223   -21636.322     15.76886   0.96737059 
    4600    231.15668   -382.78674    216156.16   -20242.757    1464.1976   -21706.955    16.029357   0.96737059 
    4700    235.46695   -233.53235    216156.16   -20181.461    1491.4998   -21672.961    16.444219   0.96737059 
    4800    238.64307   -317.48365    216156.16   -20138.749     1511.618   -21650.367    16.785715   0.96737059 
    4900    239.47302   -348.69038    216156.16   -20089.348    1516.8751   -21606.223    17.095689   0.96737059 
    5000    237.13986   -387.74223    216156.16    -20140.12    1502.0963   -21642.216    17.557206   0.96737059 
    5100    233.55188   -475.99453    216156.16   -20108.776    1479.3693   -21588.145    17.989211   0.96737059 
    5200    239.07406   -424.58386    216156.16    -20130.23     1514.348   -21644.578    18.157962   0.96737059 
    5300    236.28109   -344.77755    216156.16   -20193.342    1496.6567   -21689.999    18.541679   0.96737059 
    5400    237.69629   -443.13147    216156.16    -20183.39    1505.6209   -21689.011    18.541334   0.96737059 
    5500    235.11911   -264.43194    216156.16   -20186.245    1489.2965   -21675.541    18.709392   0.96737059 
    5600    236.54218    -375.8004    216156.16   -20222.675    1498.3105   -21720.985    18.908249   0.96737059 
    5700    234.25012    -376.9846    216156.16   -20207.566    1483.7921   -21691.359    19.294989   0.96737059 
    5800    237.70366   -298.64939    216156.16   -20187.616    1505.6676   -21693.284    19.601244   0.96737059 
    5900    228.59597   -329.87584    216156.16   -20212.679    1447.9775   -21660.656    20.006879   0.96737059 
    6000     228.7731   -312.66167    216156.16   -20222.669    1449.0994   -21671.768    20.185645   0.96737059 
    6100    231.76885   -396.94732    216156.16   -20235.822    1468.0752   -21703.897    20.558195   0.96737059 
    6200    231.78797   -368.76279    216156.16   -20227.345    1468.1963   -21695.541    20.598236   0.96737059 
    6300    237.40361   -212.47866    216156.16   -20177.992     1503.767   -21681.759    20.862717   0.96737059 
    6400    232.91371   -565.63152    216156.16   -20213.275     1475.327   -21688.602    21.080233   0.96737059 
    6500    232.50751   -311.99272    216156.16   -20220.439    1472.7541   -21693.193     21.15988   0.96737059 
    6600    232.34048   -343.93986    216156.16   -20226.062     1471.696   -21697.758    21.336895   0.96737059 
    6700    232.26875   -450.60466    216156.16   -20246.769    1471.2417   -21718.011     21.89209   0.96737059 
    6800    228.27647   -391.42719    216156.16   -20216.107    1445.9537   -21662.061    22.354403   0.96737059 
    6900    237.75624   -412.54466    216156.16   -20175.512    1506.0007   -21681.512    22.731906   0.96737059 
    7000    234.99306    -302.7321    216156.16   -20176.739    1488.4981   -21665.237    23.299438   0.96737059 
    7100    230.50102   -492.59729    216156.16   -20174.626    1460.0445   -21634.671    23.362449   0.96737059 
    7200    225.87427   -407.67199    216156.16   -20216.936    1430.7376   -21647.673    23.498593   0.96737059 
    7300     227.7769   -299.67411    216156.16   -20244.246    1442.7893   -21687.036    23.871826   0.96737059 
    7400    232.37896    -374.4312    216156.16    -20207.82    1471.9398    -21679.76    24.320442   0.96737059 
    7500    233.35856   -424.13845    216156.16   -20173.663    1478.1447   -21651.808    24.589335   0.96737059 
    7600    242.70068   -247.56115    216156.16    -20137.32    1537.3199    -21674.64    24.476809   0.96737059 
    7700    234.65161   -515.65469    216156.16   -20176.344    1486.3353   -21662.679    24.893163   0.96737059 
    7800    230.24673   -543.53697    216156.16   -20242.616    1458.4337    -21701.05    25.247735   0.96737059 
    7900    232.64375   -330.67324    216156.16    -20209.51     1473.617   -21683.127    25.521766   0.96737059 
    8000    238.77206   -420.26934    216156.16   -20178.999    1512.4351   -21691.434    26.025222   0.96737059 
    8100    243.26265   -458.34457    216156.16   -20171.034    1540.8795   -21711.914    26.249439   0.96737059 
    8200     240.5125   -342.52521    216156.16   -20197.027    1523.4594   -21720.486    26.693249   0.96737059 
    8300    235.62059   -460.19478    216156.16   -20179.338     1492.473   -21671.811    26.983498   0.96737059 
    8400    239.04376   -342.09508    216156.16   -20149.202    1514.1561   -21663.358    27.268619   0.96737059 
    8500    234.59316   -490.98745    216156.16   -20189.846     1485.965   -21675.811    27.495497   0.96737059 
    8600     231.0198   -253.28498    216156.16   -20194.855    1463.3305   -21658.186    27.744196   0.96737059 
    8700    236.96449   -378.02352    216156.16   -20219.597    1500.9855   -21720.583    27.953781   0.96737059 
    8800    232.40887   -271.82988    216156.16   -20228.576    1472.1292   -21700.706    28.267303   0.96737059 
    8900    235.18456   -477.92158    216156.16    -20259.79     1489.711   -21749.501     28.51332   0.96737059 
    9000    230.17428   -347.71375    216156.16   -20229.225    1457.9748     -21687.2    28.658981   0.96737059 
    9100    234.00628   -385.07551    216156.16   -20242.683    1482.2476   -21724.931    28.847921   0.96737059 
    9200    242.70597   -443.93215    216156.16   -20202.247    1537.3533     -21739.6    29.108262   0.96737059 
    9300    236.36601   -235.31384    216156.16   -20263.255    1497.1946   -21760.449     29.28253   0.96737059 
    9400    228.81509   -354.96174    216156.16   -20245.231    1449.3654   -21694.596    29.469598   0.96737059 
    9500    228.14237   -441.11895    216156.16   -20265.397    1445.1043   -21710.501    29.667995   0.96737059 
    9600     235.6914   -415.81236    216156.16   -20261.782    1492.9215   -21754.704    29.674683   0.96737059 
    9700    233.89158   -415.32429    216156.16   -20216.525     1481.521   -21698.046    29.853012   0.96737059 
    9800    234.09333    -324.0009    216156.16   -20191.967     1482.799   -21674.766    30.061973   0.96737059 
    9900    233.57235   -424.30255    216156.16   -20211.635    1479.4989   -21691.134    30.667727   0.96737059 
   10000    234.17124   -368.36143    216156.16   -20214.676    1483.2925   -21697.968    30.688655   0.96737059 
Loop time of 14.4869 on 64 procs for 10000 steps with 9422 atoms

Performance: 298.200 ns/day, 0.080 hours/ns, 690.278 timesteps/s
98.9% CPU use with 64 MPI tasks x no OpenMP threads

MPI task timing breakdown:
Section |  min time  |  avg time  |  max time  |%varavg| %total
---------------------------------------------------------------
Pair    | 0.0017521  | 4.8822     | 11.156     | 191.1 | 33.70
Neigh   | 0.0058365  | 0.28661    | 0.61074    |  41.3 |  1.98
Comm    | 1.2669     | 5.2834     | 11.287     | 144.9 | 36.47
Output  | 0.18791    | 0.18915    | 0.1912     |   0.2 |  1.31
Modify  | 0.65265    | 3.5686     | 11.598     | 215.3 | 24.63
Other   |            | 0.277      |            |       |  1.91

Nlocal:        147.219 ave         286 max           0 min
Histogram: 16 0 4 11 1 0 0 7 13 12
Nghost:        824.578 ave        1033 max         618 min
Histogram: 11 10 11 0 0 0 0 11 13 8
Neighs:         0.00000 ave           0 max           0 min
Histogram: 64 0 0 0 0 0 0 0 0 0
FullNghs:      14991.7 ave       32092 max           0 min
Histogram: 16 16 0 0 0 0 0 7 13 12

Total # of neighbors = 959468
Ave neighs/atom = 101.83273
Neighbor list builds = 569
Dangerous builds = 0
write_data 	    ${DIR}/data.${NAME}_eq
write_data 	    run_10/data.${NAME}_eq
write_data 	    run_10/data.ibeam_cooling_10_eq
System init for write_data ...

undump              1
unfix               4



################################################
#######         Run Simulation         #########
################################################

reset_timestep      0
timestep	    10.0
log                 ${DIR}/log.run_${NAME}
log                 run_10/log.run_${NAME}
log                 run_10/log.run_ibeam_cooling_10
