
### Dimensions ###
variable Z_G equal 10.062000000000001
variable Z_W equal 17.781522602

variable	XDIM string 68.908
variable 	YDIM string 68.92587069519459


### IMPORT ATOMS ###
read_data ../Box_Setup/data.Ibeam_240K
Reading data file ...
  orthogonal box = (0.0000000 0.0000000 0.0000000) to (68.908000 68.925871 27.952761)
  8 by 8 by 2 MPI processor grid
  reading atoms ...
  6871 atoms
  reading velocities ...
  6871 velocities
  read_data CPU = 0.017 seconds
group water type 2
1355 atoms in group water
group graphite type 1
5516 atoms in group graphite


# Define potential
#
pair_style          sw
pair_coeff * * MLC_e.sw C mW

# Add velocity/set timestep
#

fix		1 graphite setforce 0.0 0.0 0.0
velocity 	graphite set 0.0 0.0 0.0
velocity            water create ${START_TEMP} 120598 rot yes dist gaussian
velocity            water create 240 120598 rot yes dist gaussian
timestep            5.0

# Define output
#
compute 1 water msd
compute 2 water temp


thermo	            100
thermo_style custom step c_2 press vol etotal ke pe c_1[4] density

# Neighbor lists
#
neigh_modify        delay 0 every 1 check yes


# Set fixes
#
fix                 2 water momentum 10 linear 1 1 1 rescale
fix                 3 all nve
fix                 4 water temp/csvr ${START_TEMP} ${START_TEMP} 500.0 928347
fix                 4 water temp/csvr 240 ${START_TEMP} 500.0 928347
fix                 4 water temp/csvr 240 240 500.0 928347

# Run 0.05 ns equilibration
#
dump                1 all custom 100 ${DIR}/eq.${NAME}.dump id type x y z vx vy vz
dump                1 all custom 100 run_3/eq.${NAME}.dump id type x y z vx vy vz
dump                1 all custom 100 run_3/eq.ibeam_cooling_3.dump id type x y z vx vy vz
run                 10000
Neighbor list info ...
  update every 1 steps, delay 0 steps, check yes
  max neighbors/atom: 2000, page size: 100000
  master list distance cutoff = 6.6747184
  ghost atom cutoff = 6.6747184
  binsize = 3.3373592, bins = 21 21 9
  1 neighbor lists, perpetual/occasional/extra = 1 0 0
  (1) pair sw, perpetual
      attributes: full, newton on
      pair build: full/bin/atomonly
      stencil: full/bin/3d
      bin: standard
Per MPI rank memory allocation (min/avg/max) = 3.598 | 4.475 | 4.724 Mbytes
Step c_2 Press Volume TotEng KinEng PotEng c_1[4] Density 
       0          240   -543.35458    132762.87   -12919.671    968.64403   -13888.315            0    1.1339035 
     100    243.26097   -267.81294    132762.87   -12887.087    981.80535   -13868.893   0.91708838    1.1339035 
     200    234.43478   -427.39246    132762.87   -12910.653    946.18271   -13856.836    1.4510015    1.1339035 
     300    249.19806   -596.25641    132762.87   -12906.979    1005.7676   -13912.747    1.8610709    1.1339035 
     400    244.22395   -525.20784    132762.87   -12918.643    985.69198   -13904.335    2.2184878    1.1339035 
     500    243.80729    -368.8724    132762.87   -12926.454    984.01034   -13910.465    2.8047856    1.1339035 
     600    236.40352   -506.27315    132762.87   -13002.373     954.1286   -13956.501    3.3050219    1.1339035 
     700    231.71786   -465.89056    132762.87   -12983.188    935.21716   -13918.406    3.7860125    1.1339035 
     800    227.83504   -726.80696    132762.87   -13013.977    919.54604   -13933.523    4.0887361    1.1339035 
     900    237.37085   -424.05967    132762.87   -12980.878    958.03274   -13938.911    4.4820525    1.1339035 
    1000    235.05681   -657.04874    132762.87   -12932.828    948.69325   -13881.521     4.904178    1.1339035 
    1100    235.51208   -539.38059    132762.87    -12942.11    950.53073   -13892.641    5.2351649    1.1339035 
    1200    233.42732   -590.55219    132762.87   -12969.195    942.11657   -13911.312    5.6795024    1.1339035 
    1300      233.148   -596.71457    132762.87   -12931.706    940.98926   -13872.695    6.2015591    1.1339035 
    1400    246.76036   -546.56156    132762.87   -12876.495    995.92895   -13872.424    6.7728663    1.1339035 
    1500    237.96513   -391.92137    132762.87   -12899.594    960.43128   -13860.025    6.9054177    1.1339035 
    1600    246.82038   -601.86081    132762.87   -12882.707    996.17122   -13878.878     7.328165    1.1339035 
    1700    241.29223   -554.55675    132762.87   -12899.764    973.85948   -13873.623    7.5271157    1.1339035 
    1800    242.79998     -605.523    132762.87   -12901.471     979.9448   -13881.416    7.6642983    1.1339035 
    1900    249.26892   -505.97792    132762.87   -12845.277    1006.0536   -13851.331    7.8101752    1.1339035 
    2000    254.59512   -328.73481    132762.87   -12828.653    1027.5502   -13856.203    8.0998105    1.1339035 
    2100    254.13032    -582.9243    132762.87   -12844.784    1025.6742   -13870.458    8.3183278    1.1339035 
    2200    256.39837   -466.30235    132762.87     -12852.8    1034.8281   -13887.629    8.6752654    1.1339035 
    2300    239.32555   -437.98401    132762.87   -12899.349    965.92194   -13865.271    8.8960536    1.1339035 
    2400    244.44546   -475.54241    132762.87   -12897.085      986.586   -13883.671    9.0447053    1.1339035 
    2500    250.97831   -443.60125    132762.87   -12903.332    1012.9527   -13916.285    9.7305452    1.1339035 
    2600    235.02565   -438.31393    132762.87   -12947.853    948.56746    -13896.42    10.533414    1.1339035 
    2700    244.81057   -705.24731    132762.87   -12921.235    988.05956   -13909.295    10.962709    1.1339035 
    2800    249.83339   -290.80275    132762.87   -12931.956    1008.3317   -13940.288    11.010568    1.1339035 
    2900    232.43045   -503.42151    132762.87   -12994.465     938.0932   -13932.558    11.104506    1.1339035 
    3000    233.64308   -524.12834    132762.87   -13013.968    942.98738   -13956.955    11.430059    1.1339035 
    3100    237.33145   -550.08441    132762.87   -13003.246    957.87371    -13961.12    12.052742    1.1339035 
    3200    229.32697   -606.06593    132762.87   -13014.845    925.56752   -13940.412    12.092133    1.1339035 
    3300    244.48745   -359.03805    132762.87   -12970.984    986.75544    -13957.74    12.089516    1.1339035 
    3400    236.74124   -448.99887    132762.87   -12983.687    955.49164   -13939.178    12.457892    1.1339035 
    3500    238.92532   -538.04175    132762.87   -12977.895    964.30659   -13942.202    12.784262    1.1339035 
    3600    236.76569   -633.21409    132762.87   -12952.087    955.59031   -13907.677    12.937024    1.1339035 
    3700    232.63756    -424.6886    132762.87   -12975.761    938.92909    -13914.69    13.467958    1.1339035 
    3800     239.2681   -469.75781    132762.87   -12955.971    965.69008   -13921.661      13.8965    1.1339035 
    3900    236.90341   -506.56458    132762.87   -12960.648    956.14615   -13916.794    14.414846    1.1339035 
    4000    238.38346   -361.65109    132762.87   -12971.343    962.11964   -13933.463     14.46063    1.1339035 
    4100     232.5684   -539.48574    132762.87   -12927.868    938.64997   -13866.518    15.054332    1.1339035 
    4200    238.22806   -571.28378    132762.87   -12893.776    961.49244   -13855.268    15.580645    1.1339035 
    4300    252.96224   -399.26372    132762.87   -12833.563    1020.9599   -13854.523    15.988895    1.1339035 
    4400    238.12277   -439.55097    132762.87   -12827.304     961.0675   -13788.371    16.411392    1.1339035 
    4500    238.19017   -374.43324    132762.87   -12866.262    961.33954   -13827.602    17.025883    1.1339035 
    4600     233.1083   -606.22079    132762.87   -12875.985    940.82902   -13816.814    17.123761    1.1339035 
    4700     242.6606   -583.24201    132762.87   -12878.524    979.38226   -13857.907    17.339361    1.1339035 
    4800    243.76304   -418.87867    132762.87     -12860.2    983.83174   -13844.032    17.952648    1.1339035 
    4900     237.3112   -487.10339    132762.87   -12889.229    957.79199   -13847.021    17.891664    1.1339035 
    5000    247.91456   -737.48595    132762.87   -12912.692    1000.5873   -13913.279    17.986528    1.1339035 
    5100    237.27557   -395.24096    132762.87   -12923.371    957.64818   -13881.019    17.748508    1.1339035 
    5200    236.03858   -592.39071    132762.87    -12916.44    952.65569   -13869.095    17.789379    1.1339035 
    5300    237.73217   -443.63779    132762.87   -12967.331    959.49103   -13926.822    18.054086    1.1339035 
    5400    236.53816   -544.54606    132762.87   -12941.216    954.67197   -13895.888    18.522423    1.1339035 
    5500    242.55671   -457.12892    132762.87    -12974.12    978.96294   -13953.083    18.645425    1.1339035 
    5600    229.83614   -418.31954    132762.87   -12988.463    927.62254   -13916.085    18.880282    1.1339035 
    5700    239.54303   -370.10109    132762.87   -12957.457    966.79971   -13924.256    19.126509    1.1339035 
    5800    238.49205   -410.45035    132762.87   -12896.428    962.55792   -13858.986    19.354196    1.1339035 
    5900    234.41162   -448.71193    132762.87   -12927.084    946.08922   -13873.173    19.679571    1.1339035 
    6000    229.48864    -588.8794    132762.87   -12985.345    926.22002   -13911.565    19.571761    1.1339035 
    6100     240.4026   -481.33607    132762.87   -12971.266    970.26893   -13941.535    20.071195    1.1339035 
    6200    235.90981   -613.81839    132762.87   -12955.114    952.13595    -13907.25    20.399371    1.1339035 
    6300    245.95617   -557.17475    132762.87   -12930.077    992.68324   -13922.761    20.580743    1.1339035 
    6400    231.44832   -500.61539    132762.87   -12940.024     934.1293   -13874.153    20.949904    1.1339035 
    6500    235.91174    -642.7615    132762.87   -12949.918    952.14375   -13902.062    21.520649    1.1339035 
    6600    233.75361    -567.5662    132762.87   -12996.786    943.43349    -13940.22    21.768406    1.1339035 
    6700     236.2478      -251.62    132762.87   -13016.076     953.5001   -13969.576    22.109992    1.1339035 
    6800    237.12084   -531.51054    132762.87   -12992.747    957.02371   -13949.771    22.344765    1.1339035 
    6900    225.42229   -468.81158    132762.87   -13023.347    909.80815   -13933.155    22.371449    1.1339035 
    7000    233.81797   -299.48966    132762.87   -12999.865    943.69326   -13943.559    22.782106    1.1339035 
    7100    238.57135   -449.05009    132762.87   -12921.939      962.878   -13884.817      23.1594    1.1339035 
    7200    242.76526    -615.6011    132762.87    -12928.02    979.80467   -13907.824    23.711404    1.1339035 
    7300     236.0267   -482.88821    132762.87   -12988.651    952.60772   -13941.259    23.840532    1.1339035 
    7400    237.01554   -321.39331    132762.87   -12994.889    956.59869   -13951.487    24.494174    1.1339035 
    7500    230.34732   -506.09896    132762.87   -13013.877    929.68567   -13943.562     24.43393    1.1339035 
    7600    230.12027   -494.02031    132762.87   -13012.886    928.76928   -13941.655    24.351437    1.1339035 
    7700    238.02251   -438.11493    132762.87   -12988.287    960.66285   -13948.949    24.433786    1.1339035 
    7800    238.49902   -507.28735    132762.87   -12947.048    962.58605   -13909.634    24.787084    1.1339035 
    7900    242.18455   -700.84027    132762.87   -12947.049    977.46091    -13924.51    25.132402    1.1339035 
    8000    237.84699   -552.08909    132762.87    -12938.27    959.95446   -13898.225    25.468479    1.1339035 
    8100    239.18489   -354.15003    132762.87   -12947.769    965.35425   -13913.123    25.838085    1.1339035 
    8200    230.31882   -670.44877    132762.87   -12968.304    929.57062   -13897.874     26.06202    1.1339035 
    8300    235.23963   -469.34291    132762.87    -12974.91     949.4311   -13924.341    26.548019    1.1339035 
    8400    237.80078   -447.21737    132762.87    -12960.07    959.76796   -13919.838      26.9014    1.1339035 
    8500    233.79776   -480.07693    132762.87   -12950.785     943.6117   -13894.396    27.138557    1.1339035 
    8600    243.12911   -398.85458    132762.87   -12927.848    981.27319   -13909.121    27.600492    1.1339035 
    8700    231.51945   -410.25635    132762.87   -12986.824    934.41639    -13921.24    28.352116    1.1339035 
    8800    243.04512   -435.09656    132762.87   -12950.992    980.93421   -13931.927    28.750597    1.1339035 
    8900    241.05167   -641.03518    132762.87   -12964.514    972.88858   -13937.402    28.829951    1.1339035 
    9000    236.32593   -354.48897    132762.87   -12929.205    953.81541    -13883.02    28.705452    1.1339035 
    9100     246.5889   -555.27187    132762.87   -12922.711    995.23694   -13917.948    29.191808    1.1339035 
    9200    236.01509   -787.75567    132762.87   -12956.059    952.56089    -13908.62    29.875421    1.1339035 
    9300    236.15267    -503.9682    132762.87   -12968.987    953.11613   -13922.103    29.915213    1.1339035 
    9400    238.80993   -483.61846    132762.87   -12975.781    963.84088   -13939.622    29.780939    1.1339035 
    9500    236.36142    -547.3416    132762.87   -12950.181    953.95866    -13904.14    29.885484    1.1339035 
    9600    227.19545   -414.59094    132762.87   -13003.103    916.96467   -13920.068    30.288651    1.1339035 
    9700    241.92357   -468.19104    132762.87   -12943.458    976.40761   -13919.865    30.870875    1.1339035 
    9800     231.6215    -597.7244    132762.87   -12971.237    934.82827   -13906.065    31.038737    1.1339035 
    9900    237.10347   -499.72513    132762.87   -12933.289    956.95359   -13890.243    31.127775    1.1339035 
   10000    242.92561   -394.59844    132762.87   -12886.867    980.45184   -13867.319    31.357554    1.1339035 
Loop time of 5.27597 on 128 procs for 10000 steps with 6871 atoms

Performance: 818.806 ns/day, 0.029 hours/ns, 1895.385 timesteps/s
96.7% CPU use with 128 MPI tasks x no OpenMP threads

MPI task timing breakdown:
Section |  min time  |  avg time  |  max time  |%varavg| %total
---------------------------------------------------------------
Pair    | 0.00075722 | 1.542      | 3.945      | 105.8 | 29.23
Neigh   | 0.0038526  | 0.10528    | 0.25184    |  24.7 |  2.00
Comm    | 0.18537    | 1.5326     | 3.6385     |  70.9 | 29.05
Output  | 0.13094    | 0.13105    | 0.1319     |   0.0 |  2.48
Modify  | 0.15115    | 1.8908     | 4.8829     | 117.1 | 35.84
Other   |            | 0.07426    |            |       |  1.41

Nlocal:        53.6797 ave         113 max           0 min
Histogram: 32 5 10 17 0 0 2 32 20 10
Nghost:        649.148 ave         858 max         468 min
Histogram: 16 9 19 13 13 11 17 14 6 10
Neighs:         0.00000 ave           0 max           0 min
Histogram: 128 0 0 0 0 0 0 0 0 0
FullNghs:      5682.00 ave       13761 max           0 min
Histogram: 43 21 0 0 0 0 18 24 15 7

Total # of neighbors = 727296
Ave neighs/atom = 105.85009
Neighbor list builds = 552
Dangerous builds = 0
write_data 	    ${DIR}/data.${NAME}_eq
write_data 	    run_3/data.${NAME}_eq
write_data 	    run_3/data.ibeam_cooling_3_eq
System init for write_data ...

undump              1
unfix               4



################################################
#######         Run Simulation         #########
################################################

reset_timestep      0
timestep	    10.0
log                 ${DIR}/log.run_${NAME}
log                 run_3/log.run_${NAME}
log                 run_3/log.run_ibeam_cooling_3
