
### Dimensions ###
variable Z_G equal 10.062000000000001
variable Z_W equal 17.781522602

variable	XDIM string 68.908
variable 	YDIM string 68.92587069519459


### IMPORT ATOMS ###
read_data ../Box_Setup/data.Ibeam_240K
Reading data file ...
  orthogonal box = (0.0000000 0.0000000 0.0000000) to (68.908000 68.925871 27.952761)
  4 by 8 by 2 MPI processor grid
  reading atoms ...
  6871 atoms
  reading velocities ...
  6871 velocities
  read_data CPU = 0.018 seconds
group water type 2
1355 atoms in group water
group graphite type 1
5516 atoms in group graphite


# Define potential
#
pair_style          sw
pair_coeff * * MLC_e.sw C mW

# Add velocity/set timestep
#

fix		1 graphite setforce 0.0 0.0 0.0
velocity 	graphite set 0.0 0.0 0.0
velocity            water create ${START_TEMP} ${SEED} rot yes dist gaussian
velocity            water create 240 ${SEED} rot yes dist gaussian
velocity            water create 240 18272 rot yes dist gaussian
timestep            5.0

# Define output
#
compute 1 water msd
compute 2 water temp


thermo	            100
thermo_style custom step c_2 press vol etotal ke pe c_1[4] density

# Neighbor lists
#
neigh_modify        delay 0 every 1 check yes


# Set fixes
#
fix                 2 water momentum 10 linear 1 1 1 rescale
fix                 3 all nve
fix                 4 water temp/csvr ${START_TEMP} ${START_TEMP} 500.0 928347
fix                 4 water temp/csvr 240 ${START_TEMP} 500.0 928347
fix                 4 water temp/csvr 240 240 500.0 928347

# Run 0.05 ns equilibration
#
dump                1 all custom 100 ${DIR}/eq.${NAME}.dump id type x y z vx vy vz
dump                1 all custom 100 run_3/eq.${NAME}.dump id type x y z vx vy vz
dump                1 all custom 100 run_3/eq.ibeam_cooling_3.dump id type x y z vx vy vz
run                 10000
Neighbor list info ...
  update every 1 steps, delay 0 steps, check yes
  max neighbors/atom: 2000, page size: 100000
  master list distance cutoff = 6.6747184
  ghost atom cutoff = 6.6747184
  binsize = 3.3373592, bins = 21 21 9
  1 neighbor lists, perpetual/occasional/extra = 1 0 0
  (1) pair sw, perpetual
      attributes: full, newton on
      pair build: full/bin/atomonly
      stencil: full/bin/3d
      bin: standard
Per MPI rank memory allocation (min/avg/max) = 3.624 | 4.534 | 4.748 Mbytes
Step c_2 Press Volume TotEng KinEng PotEng c_1[4] Density 
       0          240   -543.35458    132762.87   -12919.671    968.64403   -13888.315            0    1.1339035 
     100    243.48569   -374.67557    132762.87   -12886.491    982.71235   -13869.204   0.89128663    1.1339035 
     200    235.30355   -610.42642    132762.87   -12917.929    949.68909   -13867.618    1.4540108    1.1339035 
     300    242.04121    -450.0742    132762.87   -12890.555    976.88239   -13867.437      1.95746    1.1339035 
     400    244.55197   -552.24401    132762.87   -12899.768    987.01585   -13886.783    2.3501111    1.1339035 
     500    242.61746   -401.00862    132762.87   -12910.071    979.20814   -13889.279    2.7068154    1.1339035 
     600    235.97158   -539.86422    132762.87    -12985.16    952.38525   -13937.545    2.9777306    1.1339035 
     700    233.54714   -473.86814    132762.87   -12968.042    942.60019   -13910.642     3.438042    1.1339035 
     800    230.45619   -589.27732    132762.87   -12992.558    930.12507   -13922.683    3.8675315    1.1339035 
     900    235.51497   -329.69453    132762.87   -12957.346    950.54237   -13907.888    4.2277572    1.1339035 
    1000    232.91373   -409.07733    132762.87   -12909.971    940.04374   -13850.015    4.8035768    1.1339035 
    1100    234.81379   -516.76445    132762.87   -12922.347     947.7124   -13870.059    5.0969578    1.1339035 
    1200    233.00678   -466.44905    132762.87    -12965.79    940.41926   -13906.209    5.4971188    1.1339035 
    1300    246.05476   -423.94032    132762.87   -12929.588    993.08114    -13922.67    6.0509104    1.1339035 
    1400    245.41151   -622.56127    132762.87   -12870.904    990.48498   -13861.389    6.6513623    1.1339035 
    1500    244.36039   -435.95901    132762.87   -12884.021    986.24263   -13870.263     7.033345    1.1339035 
    1600    252.75172   -240.08108    132762.87   -12871.083    1020.1102   -13891.193     7.412254    1.1339035 
    1700    233.04616   -688.40901    132762.87   -12889.488    940.57821   -13830.067    7.9698317    1.1339035 
    1800    250.85175   -551.62309    132762.87    -12900.71    1012.4419   -13913.152    8.1485698    1.1339035 
    1900    253.40126   -284.08053    132762.87   -12840.362    1022.7317   -13863.094    8.3703304    1.1339035 
    2000     245.0286   -562.29349    132762.87   -12819.069    988.93956   -13808.008    8.8327702    1.1339035 
    2100    244.89076   -346.97955    132762.87   -12819.467    988.38322   -13807.851    9.2114567    1.1339035 
    2200    238.76631   -321.28818    132762.87   -12818.018    963.66484   -13781.683    9.2960721    1.1339035 
    2300    241.97483   -517.95059    132762.87   -12861.074    976.61449   -13837.689    9.6257291    1.1339035 
    2400    245.76483   -529.92647    132762.87    -12870.09    991.91099   -13862.001    10.103735    1.1339035 
    2500    240.28497   -375.69376    132762.87    -12862.16    969.79416   -13831.954    10.725341    1.1339035 
    2600    240.13257   -518.26342    132762.87   -12886.322     969.1791   -13855.501    11.159594    1.1339035 
    2700    240.11613   -657.04475    132762.87    -12859.22    969.11274   -13828.333    11.356085    1.1339035 
    2800    236.33614   -407.80656    132762.87   -12870.317    953.85665   -13824.173    11.783967    1.1339035 
    2900    240.05632   -524.91807    132762.87    -12921.54    968.87135   -13890.411    12.376687    1.1339035 
    3000     240.6435    -493.5681    132762.87   -12939.511    971.24122   -13910.752    12.857694    1.1339035 
    3100     240.1402   -424.90258    132762.87    -12943.97    969.20988    -13913.18    12.964037    1.1339035 
    3200    237.92562   -340.58974    132762.87   -12961.742     960.2718   -13922.013    13.334122    1.1339035 
    3300    246.42751   -414.09213    132762.87   -12935.549    994.58555   -13930.134    13.836359    1.1339035 
    3400    234.25444   -421.39822    132762.87    -12950.56    945.45484   -13896.015    14.798964    1.1339035 
    3500    235.12135   -431.11026    132762.87   -12945.746    948.95372   -13894.699    15.638847    1.1339035 
    3600    236.39381   -712.35035    132762.87   -12926.498    954.08941   -13880.587    16.125897    1.1339035 
    3700    238.17062   -572.43547    132762.87   -12949.901    961.26064   -13911.162    16.305187    1.1339035 
    3800    232.97611    -588.9503    132762.87   -12934.184    940.29548    -13874.48    16.869879    1.1339035 
    3900    228.99539   -353.03576    132762.87   -12928.731    924.22925    -13852.96    17.371653    1.1339035 
    4000    233.94443   -436.04921    132762.87   -12920.195    944.20366   -13864.399    17.848256    1.1339035 
    4100    247.14065   -298.84393    132762.87   -12892.734    997.46382   -13890.198    18.145232    1.1339035 
    4200    240.54051   -574.95506    132762.87   -12856.306    970.82556   -13827.132    19.125105    1.1339035 
    4300    241.06436   -409.37251    132762.87   -12788.704    972.93979   -13761.644    19.537748    1.1339035 
    4400    253.33203   -416.92401    132762.87   -12792.821    1022.4523   -13815.274    19.725711    1.1339035 
    4500    235.25688   -586.66032    132762.87    -12847.99    949.50073   -13797.491    20.727956    1.1339035 
    4600    236.75313   -358.44298    132762.87   -12873.635    955.53962   -13829.175    20.718967    1.1339035 
    4700    248.42703   -498.37873    132762.87   -12882.322    1002.6557   -13884.977    21.214992    1.1339035 
    4800    242.73799    -621.3544    132762.87   -12867.412    979.69461   -13847.106    21.093459    1.1339035 
    4900    246.36081   -491.98325    132762.87   -12896.816    994.31638   -13891.133    21.481598    1.1339035 
    5000    239.43777   -381.51583    132762.87   -12918.119    966.37485   -13884.493    21.678054    1.1339035 
    5100    235.99193   -524.00187    132762.87   -12934.113     952.4674    -13886.58    22.192528    1.1339035 
    5200    239.50287   -462.17048    132762.87     -12924.8    966.63759   -13891.438    22.354298    1.1339035 
    5300    226.59352   -495.02787    132762.87   -12956.479    914.53526   -13871.014    22.773761    1.1339035 
    5400    241.36038   -558.21833    132762.87   -12915.914    974.13454   -13890.048    23.365409    1.1339035 
    5500    229.63141   -608.64421    132762.87   -12937.428    926.79625   -13864.224    23.862472    1.1339035 
    5600    237.22229   -523.42196    132762.87   -12935.806    957.43315    -13893.24    24.046201    1.1339035 
    5700    242.71071   -483.50093    132762.87   -12901.751    979.58449   -13881.336     24.03678    1.1339035 
    5800    244.06241   -364.34043    132762.87    -12848.32       985.04    -13833.36    24.335852    1.1339035 
    5900    237.64652   -506.30763    132762.87   -12878.668    959.14537   -13837.813    24.574636    1.1339035 
    6000    234.73443   -432.12787    132762.87   -12947.657    947.39211    -13895.05    24.672747    1.1339035 
    6100    239.99618   -254.04131    132762.87   -12935.557    968.62863   -13904.186    24.813125    1.1339035 
    6200    237.86839   -361.03143    132762.87   -12923.131    960.04081   -13883.172    24.982432    1.1339035 
    6300    237.84709   -492.75904    132762.87   -12885.563    959.95485   -13845.518     25.83074    1.1339035 
    6400    241.49693   -527.61038    132762.87   -12892.466    974.68568   -13867.152    26.187236    1.1339035 
    6500    239.18272   -268.62562    132762.87    -12896.16    965.34549   -13861.506    25.817312    1.1339035 
    6600    231.99618   -451.45426    132762.87   -12938.852    936.34049   -13875.193    25.972997    1.1339035 
    6700    237.37911   -481.70209    132762.87   -12962.427    958.06608   -13920.493    26.106803    1.1339035 
    6800    239.70904   -442.16656    132762.87   -12942.391    967.46972   -13909.861    26.404229    1.1339035 
    6900    231.62913   -193.98129    132762.87   -12981.625    934.85907   -13916.484    26.709524    1.1339035 
    7000    241.95588   -434.25777    132762.87   -12962.778    976.53802   -13939.316    26.792394    1.1339035 
    7100    245.14353   -530.79133    132762.87   -12896.186    989.40339    -13885.59    26.650868    1.1339035 
    7200    239.88408   -527.08301    132762.87    -12915.77    968.17617   -13883.947    26.782179    1.1339035 
    7300     231.3891   -436.36272    132762.87   -12968.061    933.89028   -13901.952    27.064419    1.1339035 
    7400    231.93856   -595.46191    132762.87   -12976.254    936.10791   -13912.362    27.537824    1.1339035 
    7500     229.4096   -514.23607    132762.87   -12994.663    925.90099   -13920.564     27.72262    1.1339035 
    7600    234.87085   -380.70536    132762.87   -13010.199    947.94271   -13958.141     27.84181    1.1339035 
    7700    233.33398   -539.31093    132762.87    -12992.65    941.73985    -13934.39    28.242974    1.1339035 
    7800    238.15292    -573.1467    132762.87   -12956.076    961.18921   -13917.265     27.95414    1.1339035 
    7900    233.90131   -376.08851    132762.87   -12954.477    944.02963   -13898.507    28.031322    1.1339035 
    8000     237.2369   -491.41665    132762.87   -12948.359    957.49211   -13905.851    28.556966    1.1339035 
    8100    233.06322   -749.69872    132762.87   -12953.317    940.64708   -13893.964    28.726478    1.1339035 
    8200     242.2391   -528.22025    132762.87    -12969.71    977.68109   -13947.391    29.215202    1.1339035 
    8300      236.253   -420.83282    132762.87   -12980.972    953.52108   -13934.493    29.660325    1.1339035 
    8400    232.94086   -438.78618    132762.87   -12976.142    940.15323   -13916.295    30.237708    1.1339035 
    8500     242.8892   -501.25284    132762.87   -12959.548    980.30491   -13939.853     30.36897    1.1339035 
    8600    241.73921   -518.83752    132762.87   -12934.708    975.66352   -13910.371    30.648195    1.1339035 
    8700     229.6373   -492.13183    132762.87   -12990.104    926.81999   -13916.924      31.0743    1.1339035 
    8800    248.11209   -344.75292    132762.87   -12948.005    1001.3846    -13949.39     30.98897    1.1339035 
    8900    237.55394   -434.25635    132762.87   -12961.538     958.7717    -13920.31    31.258318    1.1339035 
    9000    239.02563   -666.29332    132762.87   -12916.887    964.71144   -13881.599    31.906641    1.1339035 
    9100    240.15655   -480.90742    132762.87   -12896.476    969.27589   -13865.752    32.556952    1.1339035 
    9200    239.53711   -310.68168    132762.87   -12933.501    966.77582   -13900.277    33.272611    1.1339035 
    9300    231.47027   -530.03107    132762.87   -12945.787    934.21789   -13880.005    33.471975    1.1339035 
    9400    251.03567   -572.63115    132762.87     -12964.9    1013.1842   -13978.084    33.834115    1.1339035 
    9500    231.47612   -463.53213    132762.87   -12953.006    934.24152   -13887.247    34.127087    1.1339035 
    9600    231.37208   -292.83299    132762.87   -13014.167    933.82158   -13947.989    34.195501    1.1339035 
    9700    235.87327   -359.09799    132762.87   -12951.225    951.98849   -13903.214    34.419013    1.1339035 
    9800    227.87808   -580.49353    132762.87   -12981.418    919.71978   -13901.138     34.26677    1.1339035 
    9900     239.0209   -366.02127    132762.87    -12934.13    964.69236   -13898.822    34.505519    1.1339035 
   10000    239.30276   -305.12138    132762.87   -12873.083    965.82994   -13838.912    34.513621    1.1339035 
Loop time of 12.0093 on 64 procs for 10000 steps with 6871 atoms

Performance: 359.721 ns/day, 0.067 hours/ns, 832.687 timesteps/s
98.9% CPU use with 64 MPI tasks x no OpenMP threads

MPI task timing breakdown:
Section |  min time  |  avg time  |  max time  |%varavg| %total
---------------------------------------------------------------
Pair    | 0.0022788  | 3.816      | 9.1368     | 166.6 | 31.78
Neigh   | 0.0076754  | 0.21827    | 0.48569    |  35.4 |  1.82
Comm    | 1.2979     | 4.4741     | 9.1433     | 120.8 | 37.26
Output  | 0.14654    | 0.14777    | 0.14989    |   0.2 |  1.23
Modify  | 0.43082    | 3.0763     | 9.4956     | 168.4 | 25.62
Other   |            | 0.2769     |            |       |  2.31

Nlocal:        107.359 ave         207 max           0 min
Histogram: 16 0 6 10 0 0 0 1 18 13
Nghost:        866.250 ave        1081 max         643 min
Histogram: 10 6 0 1 10 14 7 0 10 6
Neighs:         0.00000 ave           0 max           0 min
Histogram: 64 0 0 0 0 0 0 0 0 0
FullNghs:      11336.5 ave       24990 max           0 min
Histogram: 16 16 0 0 0 0 0 12 14 6

Total # of neighbors = 725536
Ave neighs/atom = 105.59395
Neighbor list builds = 554
Dangerous builds = 0
write_data 	    ${DIR}/data.${NAME}_eq
write_data 	    run_3/data.${NAME}_eq
write_data 	    run_3/data.ibeam_cooling_3_eq
System init for write_data ...

undump              1
unfix               4



################################################
#######         Run Simulation         #########
################################################

reset_timestep      0
timestep	    10.0
log                 ${DIR}/log.run_${NAME}
log                 run_3/log.run_${NAME}
log                 run_3/log.run_ibeam_cooling_3
