
# Set production fixes - Nose/Hoover
#
fix                 4 water temp/csvr ${START_TEMP} ${END_TEMP} 500.0 928347
fix                 4 water temp/csvr 235 ${END_TEMP} 500.0 928347
fix                 4 water temp/csvr 235 225 500.0 928347


## divide "droplet" into core and surface
#region		core_reg cylinder z 135 135 44.6 20 INF units box
#region		surface_reg cylinder z 135 135 44.6 20 INF units box side out
#group		core dynamic all region core_reg
#group		surface dynamic all region surface_reg

## compute pressure core
#compute        peratom_core core stress/atom NULL
#compute        p_core core reduce sum c_peratom_core[1] c_peratom_core[2] c_peratom_core[3]
#variable       press_core equal -(c_p_core[1]+c_p_core[2]+c_p_core[3])/(3*1249982.5)


## compute pressure surface
#compute        peratom_surf surface stress/atom NULL
#compute        p_surf surface reduce sum c_peratom_surf[1] c_peratom_surf[2] #c_peratom_surf[3]
#variable       press_surf equal -(c_p_surf[1]+c_p_surf[2]+c_p_surf[3])/(3*42395)

## compute total pressure of drop
compute        peratom water stress/atom NULL
compute        p water reduce sum c_peratom[1] c_peratom[2] c_peratom[3]
variable       press equal -(c_p[1]+c_p[2]+c_p[3])/(3*58301)


# compute order parameter
compute        3 all orientorder/atom nnn NULL cutoff 3.5

# compute center of mass of bridge
compute 	4 water com

# Run simulation
thermo_style        custom step c_2 press vol etotal ke pe v_press c_1[4] c_4[*]
thermo              200
dump		     1 water custom 400 ${DIR}/prod.${NAME}.dump id type x y z vx vy vz c_3[*] c_peratom[*]
dump		     1 water custom 400 run_4/prod.${NAME}.dump id type x y z vx vy vz c_3[*] c_peratom[*]
dump		     1 water custom 400 run_4/prod.ibeam_cooling_4.dump id type x y z vx vy vz c_3[*] c_peratom[*]
run                 ${STEPS}
run                 4000000
Neighbor list info ...
  update every 1 steps, delay 0 steps, check yes
  max neighbors/atom: 2000, page size: 100000
  master list distance cutoff = 6.67472
  ghost atom cutoff = 6.67472
  binsize = 3.33736, bins = 48 11 12
  2 neighbor lists, perpetual/occasional/extra = 1 1 0
  (1) pair sw, perpetual
      attributes: full, newton on
      pair build: full/bin/atomonly
      stencil: full/bin/3d
      bin: standard
  (2) compute orientorder/atom, occasional, copy from (1)
      attributes: full, newton on
      pair build: copy
      stencil: none
      bin: none
Per MPI rank memory allocation (min/avg/max) = 6.146 | 6.774 | 7.318 Mbytes
Step c_2 Press Volume TotEng KinEng PotEng v_press c_1[4] c_4[1] c_4[2] c_4[3] 
       0    241.04327   -325.82472    229018.04   -21228.365    1596.5163   -22824.882   -824.22041    31.554388     78.60022    15.917322    29.608034 
     200    232.03689   -182.51997    229018.04    -21278.33    1536.8639   -22815.194   -224.15656    32.785463     78.59961    15.916459    29.591124 
     400    233.75494   -380.66995    229018.04   -21240.407    1548.2431    -22788.65   -977.19658    34.420147    78.599422     15.91372    29.599971 
     600    225.87757   -255.27335    229018.04   -21335.833    1496.0684   -22831.902   -512.85532    35.362239    78.598906    15.914681     29.61729 
     800    227.52968   -183.05349    229018.04    -21316.59     1507.011   -22823.601   -241.06923    36.202898    78.597782    15.913066     29.63605 
    1000    241.59981   -378.69452    229018.04    -21184.97    1600.2025   -22785.173   -987.63051    38.113395    78.598172    15.912224    29.646308 
    1200    234.10179    -271.6954    229018.04   -21300.074    1550.5404   -22850.614   -566.24067    39.392113    78.596992    15.912498     29.65258 
    1400    239.48574   -397.89981    229018.04   -21164.801    1586.2002   -22751.001    -1052.377    39.917697    78.598619    15.911917    29.680046 
    1600    238.59318   -313.66374    229018.04   -21196.438    1580.2885   -22776.727   -736.07004    40.798447    78.599159    15.912114    29.700154 
    1800    226.30803   -182.59416    229018.04   -21253.659    1498.9195   -22752.578   -165.05282    42.155306     78.59881    15.913861    29.707733 
    2000    241.00667   -272.64288    229018.04   -21141.527    1596.2739     -22737.8   -575.26656    44.317777     78.60049    15.915988    29.700985 
    2200    240.08052   -437.76229    229018.04   -21174.031    1590.1397   -22764.171   -1205.5085    46.155132     78.60062    15.917711    29.700651 
    2400    237.35504   -327.62393    229018.04   -21209.078    1572.0879   -22781.165   -810.05539     48.18062    78.598593    15.920291    29.696207 
    2600    236.13998   -129.87057    229018.04   -21240.477    1564.0401   -22804.517   -35.192044    49.002879    78.596935    15.922333    29.723609 
    2800    239.66494   -323.11802    229018.04    -21227.44    1587.3872   -22814.828   -769.01933    49.376949    78.598303    15.919651     29.71759 
    3000    226.68233   -266.08284    229018.04   -21323.584    1501.3986   -22824.983   -551.56765    50.761517    78.598757    15.919517    29.733581 
    3200    232.39879   -207.12763    229018.04   -21318.493    1539.2608   -22857.753   -301.85482    51.558934    78.598466    15.920608    29.736657 
    3400    234.86929   -361.61213    229018.04   -21278.016    1555.6239    -22833.64   -908.44064    53.031352    78.598863    15.921491    29.748842 
    3600    236.19099    -355.2437    229018.04   -21228.654    1564.3779   -22793.032   -888.37428     54.36946    78.598159    15.921539    29.772192 
    3800    231.22129   -554.15843    229018.04   -21242.507    1531.4618   -22773.969   -1666.3975    56.170168    78.598626    15.919559    29.771283 
    4000    232.35393   -140.70818    229018.04   -21314.965    1538.9637   -22853.929   -56.574569    57.485997    78.597588    15.918817    29.792416 
    4200    234.43748   -282.69053    229018.04   -21259.427    1552.7638   -22812.191   -606.52531    58.562796    78.596608    15.918286    29.776792 
    4400    241.37921   -437.27812    229018.04   -21210.348    1598.7414   -22809.089   -1218.1531    60.268562    78.598622    15.918528    29.766923 
    4600    230.44089    -195.3438    229018.04   -21278.697     1526.293    -22804.99    -277.1521    59.830693     78.60077    15.917599    29.762546 
    4800    238.20606   -293.57023    229018.04    -21262.44    1577.7245   -22840.165   -630.71549    61.365348    78.598178    15.916245    29.773465 
    5000    230.10304   -351.94552    229018.04   -21290.022    1524.0552   -22814.077   -898.86801    62.731397    78.598566    15.918437    29.766032 
    5200    228.58859   -335.15609    229018.04   -21260.161    1514.0245   -22774.185   -817.04438    63.227755    78.598369    15.919602    29.753612 
    5400     228.7191   -162.45817    229018.04   -21240.332    1514.8889   -22755.221   -158.39126    63.218377    78.598533    15.920616    29.751889 
    5600    228.24904   -314.50391    229018.04   -21298.366    1511.7755   -22810.142    -715.6553     64.13026    78.601235    15.919149    29.766659 
    5800    243.30454    -422.9342    229018.04   -21137.223    1611.4936   -22748.717    -1186.249    65.830091    78.601225    15.918958    29.765696 
    6000    226.02898   -502.14538    229018.04   -21323.086    1497.0713   -22820.157   -1456.1115    67.813115    78.600302    15.921618    29.771182 
    6200    230.34665   -284.21624    229018.04   -21243.579    1525.6688   -22769.248   -577.46914    70.038486    78.601362     15.92124    29.791541 
    6400    234.93495   -377.21457    229018.04   -21220.423    1556.0587   -22776.482   -950.00925    71.073016    78.601143    15.921505    29.765096 
    6600    224.79884   -273.65179    229018.04   -21295.308    1488.9236   -22784.231   -546.01566    72.160033    78.603525    15.920569    29.769524 
    6800    238.54403   -255.77775    229018.04   -21272.001     1579.963   -22851.964   -480.24915    73.205189    78.604321    15.921388    29.792587 
    7000    228.26299   -435.46985    229018.04   -21308.961    1511.8679   -22820.829   -1185.6707    73.659384    78.603203     15.92269    29.807116 
    7200    233.64974    -334.8175    229018.04   -21228.597    1547.5463   -22776.143   -801.46385    74.978818    78.600746    15.926273    29.820888 
    7400    227.96474   -334.17701    229018.04   -21295.722    1509.8926   -22805.615   -817.61454    76.483464    78.600281    15.926757    29.808286 
    7600    227.47089   -122.79814    229018.04   -21309.259    1506.6216    -22815.88   -9.2371957    77.831353    78.601066    15.924659    29.817099 
    7800    236.19906   -219.70865    229018.04   -21198.033    1564.4314   -22762.464   -373.05138    79.109109    78.600778    15.926637    29.806051 
    8000    234.54101   -375.20667    229018.04   -21173.083    1553.4495   -22726.533   -977.51817    79.811489    78.600767    15.927888    29.793987 
    8200    235.53199   -89.729669    229018.04    -21279.67    1560.0132   -22839.683    134.57817     81.01719    78.598154    15.927668    29.770972 
    8400    233.51986   -263.94024    229018.04   -21269.002    1546.6861   -22815.688   -550.09689    83.168853     78.59961    15.924151    29.755468 
    8600    236.21145   -244.83554    229018.04   -21186.835    1564.5134   -22751.348   -489.52338    84.332073     78.59933    15.923469     29.75662 
    8800    235.82098   -388.39182    229018.04   -21191.518    1561.9272   -22753.445   -1042.0174    84.954196    78.596118    15.923311    29.756979 
    9000    233.30727   -224.97336    229018.04   -21208.918     1545.278   -22754.196   -380.01136     85.87528    78.595593     15.92124     29.73551 
    9200    233.13214   -201.73393    229018.04   -21270.246     1544.118   -22814.365   -267.28865    86.576745    78.595758    15.919902    29.739209 
    9400    231.66261   -296.29015    229018.04    -21320.66    1534.3848   -22855.045   -675.19821     87.57439    78.595005    15.920647    29.750328 
    9600    235.43456   -223.89406    229018.04   -21318.895    1559.3678   -22878.262   -367.43278    87.769143    78.596685    15.922717    29.732315 
    9800    235.81937   -284.53419    229018.04   -21280.584    1561.9165   -22842.501   -604.75398    87.584054    78.598389    15.924613    29.704093 
   10000    239.19651   -242.36168    229018.04   -21136.168    1584.2846   -22720.453    -462.0929    89.263998    78.600429    15.923043    29.695379 
   10200    230.73495   -303.10782    229018.04   -21167.752    1528.2406   -22695.993    -705.3065    89.736597    78.601421     15.92226    29.679455 
   10400    240.40569     -286.495    229018.04    -21200.33    1592.2934   -22792.624    -657.5719    91.011584    78.600444    15.921198    29.682259 
   10600     234.4122    -201.5903    229018.04   -21201.562    1552.5964   -22754.159   -306.93142    92.020992     78.60048    15.921076    29.686467 
   10800    241.00717   -295.96569    229018.04   -21221.589    1596.2773   -22817.866   -633.93596    93.018966    78.602737    15.921832    29.674746 
   11000    231.80197   -318.07333    229018.04   -21249.709    1535.3079   -22785.016   -765.56344    94.781171    78.602858    15.922183    29.668358 
   11200    236.68037    -105.8324    229018.04   -21236.624    1567.6193   -22804.243    47.984189    95.666563    78.603846    15.922904    29.667389 
   11400    240.04055   -446.66451    229018.04    -21252.96     1589.875   -22842.835   -1208.7743    97.398879    78.605033    15.926257    29.649829 
   11600    236.18942   -291.88411    229018.04    -21201.94    1564.3676   -22766.307   -658.29523     97.96207    78.605885    15.929319    29.627978 
   11800      239.007   -367.79615    229018.04   -21224.069    1583.0294   -22807.099   -909.05674     98.62704    78.606785    15.932221    29.623434 
   12000    236.98926   -165.94986    229018.04   -21152.494    1569.6652   -22722.159   -177.51153    100.01415       78.605    15.934587    29.644203 
   12200    236.78447   -237.89668    229018.04   -21225.588    1568.3088   -22793.897    -431.2423    100.29643    78.607619    15.935354    29.693424 
   12400    243.98849   -174.90207    229018.04   -21160.773    1616.0236   -22776.797   -206.08883    102.34544    78.609159    15.936634    29.718989 
   12600    238.84462   -280.71252    229018.04   -21134.613    1581.9539   -22716.567   -616.69671    104.09541      78.6122     15.93621    29.704929 
   12800    235.18511   -205.48538    229018.04   -21244.946    1557.7156   -22802.661    -337.2923    104.81017    78.611244    15.935415    29.694952 
   13000    232.38675   -258.51269    229018.04   -21285.927    1539.1811   -22825.108    -472.2078    106.27661    78.613506    15.933028    29.715178 
   13200    235.38911    -320.2636    229018.04    -21245.51    1559.0668   -22804.577   -746.07436    107.50984     78.61586    15.931788    29.702989 
   13400    241.90431    -383.0874    229018.04   -21204.782    1602.2193   -22807.002   -986.50945    107.45451    78.618035    15.935354    29.715009 
   13600    233.53853   -310.19366    229018.04   -21234.957    1546.8097   -22781.766   -712.34599    108.29734    78.619345     15.93892    29.725691 
   13800    236.43643    -487.2356    229018.04    -21287.61    1566.0036   -22853.614   -1397.2116    108.73953    78.618399     15.94194    29.710011 
   14000    229.70276   -312.33266    229018.04   -21249.625    1521.4041   -22771.029   -721.40239    109.70065    78.618067    15.942442    29.730839 
   14200    230.16357   -275.40705    229018.04   -21312.825    1524.4562   -22837.281   -579.38433    110.72573    78.619697    15.943812    29.727026 
   14400    224.61967   -358.27499    229018.04   -21377.921    1487.7369   -22865.658   -885.87342     111.9353    78.618926    15.944199    29.736909 
   14600    234.23749   -169.95842    229018.04   -21331.645    1551.4392   -22883.084   -178.53304     113.3808    78.618163    15.943756    29.740315 
   14800     230.7524   -182.65738    229018.04   -21286.344    1528.3562     -22814.7   -216.54993    115.13284    78.616656    15.945305     29.75149 
   15000    238.39382    -204.7044    229018.04   -21276.034    1578.9681   -22855.002   -285.59663    116.35701    78.616846    15.943296    29.763284 
   15200    229.01066   -307.99655    229018.04   -21327.872      1516.82   -22844.692   -721.90079    117.59655    78.617476    15.943868    29.760702 
   15400    237.72821   -186.13152    229018.04   -21248.266    1574.5595   -22822.825   -241.42005    119.04842    78.616813     15.94694    29.783256 
   15600    233.70362   -296.47441    229018.04   -21338.791    1547.9032   -22886.695   -707.99207    121.63257    78.617705    15.949191    29.786201 
   15800    236.37237   -290.11016    229018.04   -21181.204    1565.5793   -22746.783   -621.50224    122.29125    78.616627     15.94919    29.771826 
   16000    233.83795   -253.54185    229018.04   -21232.991    1548.7929   -22781.784   -483.69886    123.53235    78.617538    15.948683    29.776444 
   16200    244.00288   -370.63706    229018.04   -21160.061    1616.1189    -22776.18    -914.2629    125.17078    78.615601    15.946824     29.78872 
   16400    241.88623   -141.84578    229018.04   -21188.813    1602.0996   -22790.912   -49.444447    126.85958    78.614786    15.946217    29.796621 
   16600    240.03531   -265.77166    229018.04   -21242.181    1589.8402   -22832.022   -538.14299    128.52871    78.614009    15.950013    29.791658 
   16800    237.62034   -230.03231    229018.04   -21243.895     1573.845    -22817.74   -440.02416    128.53854    78.614271    15.954388     29.80086 
   17000    233.51983    -24.51224    229018.04   -21236.771    1546.6859   -22783.456    380.65868    128.99897    78.614409    15.955185    29.804489 
   17200    237.81281   -245.71967    229018.04   -21256.191    1575.1198    -22831.31   -433.85016    131.62858    78.612984      15.9546    29.817484 
   17400    236.18214    -179.9074    229018.04   -21231.111    1564.3193    -22795.43   -198.52166    132.97301    78.613217    15.952701    29.821519 
   17600      239.916   -373.70733    229018.04   -21173.195      1589.05   -22762.245   -941.92969    134.55111    78.612125    15.955665    29.793749 
   17800    235.43852   -338.39214    229018.04   -21202.622    1559.3941   -22762.016   -847.09949    136.36341    78.613108    15.958041    29.794143 
   18000    239.96539   -238.23979    229018.04   -21207.052    1589.3772   -22796.429   -433.75643    137.44861    78.613989    15.961425    29.786912 
   18200    235.59242    -371.4729    229018.04    -21245.09    1560.4134   -22805.503   -961.27611    139.75662    78.614683    15.962908    29.797427 
   18400    233.48819   -341.25194    229018.04    -21280.24    1546.4763   -22826.717   -839.51996    140.12609     78.61449    15.962581    29.800823 
   18600    234.82359   -338.69661    229018.04   -21231.651    1555.3212   -22786.972   -858.70736    141.30651    78.612887    15.963295    29.791247 
   18800    234.54403   -420.88417    229018.04   -21273.977    1553.4695   -22827.446   -1139.0012    143.94532    78.610171    15.964329    29.782569 
   19000    234.64507   -340.38353    229018.04   -21292.464    1554.1387   -22846.603   -798.08482    145.47449    78.609134    15.965041    29.789419 
   19200    233.28904   -176.36234    229018.04   -21296.056    1545.1573   -22841.214   -200.75717     145.5298    78.609142    15.967291    29.773177 
   19400    236.91612   -217.99946    229018.04   -21274.658    1569.1808   -22843.838   -324.03387    146.28899    78.609844    15.967333    29.762053 
   19600    234.89931   -265.58996    229018.04   -21324.254    1555.8227   -22880.077   -539.81058    148.46288    78.608173    15.967147     29.74128 
   19800    235.34355   -257.05229    229018.04   -21337.243     1558.765   -22896.008   -481.26561    150.24894    78.606379    15.969141    29.749282 
   20000     230.6298   -375.27265    229018.04   -21346.078    1527.5442   -22873.622   -926.49143    152.08276    78.606997    15.970086    29.773827 
   20200    235.16529   -18.012795    229018.04     -21311.9    1557.5844   -22869.484    418.23279    154.02877    78.608162      15.9684    29.780805 
   20400    226.50816   -247.76463    229018.04   -21376.233    1500.2451   -22876.478   -475.78696    156.31071    78.607555    15.966932     29.78998 
   20600    229.77051   -304.61352    229018.04   -21325.363    1521.8528   -22847.216   -689.90227      158.927    78.607915     15.96529    29.816239 
   20800     237.1398   -433.23397    229018.04   -21316.214    1570.6623   -22886.877   -1201.5961    158.46197      78.6093    15.962936    29.836357 
   21000    231.91305   -346.17121    229018.04    -21336.54    1536.0436   -22872.584   -855.76794    159.29921    78.607967     15.96307    29.834269 
   21200    241.17495   -238.59746    229018.04   -21272.056    1597.3885   -22869.445   -458.57414    160.29111    78.608872    15.964862    29.830288 
   21400    230.63986   -309.17224    229018.04   -21355.004    1527.6108   -22882.615    -683.8482    161.75235    78.610353    15.964443    29.836361 
   21600    236.81166   -331.86871    229018.04   -21264.329    1568.4889   -22832.818    -800.5425    162.88173    78.609944    15.966847    29.842774 
   21800    232.63637   -459.05326    229018.04   -21257.044    1540.8344   -22797.879   -1256.8675    163.41916    78.607606    15.968033    29.837526 
   22000    239.32972   -440.99198    229018.04   -21313.371    1585.1669   -22898.538   -1195.7027    164.74885    78.608814    15.965969    29.833379 
   22200    228.62191   -262.32276    229018.04   -21285.987    1514.2452   -22800.232   -512.00969    165.30065    78.609733     15.96681    29.854971 
   22400    232.43922   -406.50824    229018.04   -21264.234    1539.5286   -22803.762   -1077.3029    166.53925      78.6096    15.963244    29.872679 
   22600     235.0118   -177.89827    229018.04   -21233.643    1556.5677   -22790.211   -173.19534    167.23897    78.609641    15.957871    29.869651 
   22800     241.6512   -218.60463    229018.04   -21223.054    1600.5429   -22823.597   -340.55363    169.05946    78.610633    15.956343    29.870016 
   23000    233.92601   -264.74334    229018.04   -21285.628    1549.3761   -22835.004    -561.0753    170.22033    78.610361     15.95488    29.844742 
   23200    231.23657   -392.53396    229018.04   -21334.932    1531.5631   -22866.495   -1017.9849    173.61412    78.609472    15.957129    29.837331 
   23400    229.46184   -334.42217    229018.04    -21255.34    1519.8084   -22775.149   -797.96966    174.20197    78.609624    15.958184    29.883855 
   23600    229.83868   -257.74444    229018.04   -21381.925    1522.3043   -22904.229   -528.31838    173.53478    78.609185    15.957576    29.878371 
   23800    232.19506   -169.58835    229018.04   -21421.124    1537.9115   -22959.035   -160.25845     173.3562    78.607819      15.9544    29.879588 
   24000    232.96778   -358.84124    229018.04   -21295.263    1543.0294   -22838.292   -916.76523    175.13317    78.606184    15.952686    29.872702 
   24200     230.0322   -267.30772    229018.04   -21320.289     1523.586   -22843.875   -556.16266    176.75597    78.605499    15.952152    29.876951 
   24400    235.56713   -456.64306    229018.04   -21249.603    1560.2459   -22809.849   -1319.5976    178.20703    78.604313    15.952906    29.878772 
   24600    234.69366   -353.08163    229018.04   -21310.624    1554.4606   -22865.085   -912.31066    180.39846    78.602127       15.954    29.880683 
   24800    236.85883   -344.44644    229018.04   -21264.141    1568.8013   -22832.943   -841.37053    181.66033    78.602778    15.952334    29.885478 
   25000    237.30357   -394.76581    229018.04   -21276.254    1571.7469   -22848.001   -1039.6025    181.53884    78.602095    15.952938    29.887333 
   25200    234.00513   -367.30408    229018.04   -21272.736    1549.9002   -22822.637   -914.18669    183.50249    78.602649     15.95393    29.893674 
   25400    230.11623   -265.81349    229018.04   -21282.667    1524.1426    -22806.81   -537.84331    184.59094    78.602138    15.957442    29.906286 
   25600    240.56249   -238.38016    229018.04   -21253.936     1593.332   -22847.268   -463.81002    183.98828    78.602534    15.961045    29.878241 
   25800     235.4267    -400.0274    229018.04   -21311.655    1559.3158   -22870.971   -1032.0451    185.26354    78.601489    15.961725    29.903961 
   26000    230.09311    -168.6573    229018.04    -21358.49    1523.9895   -22882.479   -183.93367     187.1253    78.602515    15.961599    29.896108 
   26200    234.40231   -159.73404    229018.04   -21335.179    1552.5309    -22887.71   -136.80268    188.86906    78.604238    15.958458    29.896414 
   26400    232.35054   -311.16589    229018.04   -21390.435    1538.9412   -22929.376   -695.09107    188.19972     78.60587    15.957369     29.88192 
   26600    235.53648   -332.87218    229018.04   -21329.469    1560.0429   -22889.512   -749.30738    188.81682    78.608336    15.956751     29.88344 
   26800    239.83683   -388.66594    229018.04   -21264.872    1588.5256   -22853.397   -971.58508    190.47963    78.606607    15.956046    29.869974 
   27000    239.15086   -172.89568    229018.04   -21259.247    1583.9822   -22843.229    -188.9146    191.86241    78.604647     15.95618    29.875926 
   27200    237.57263   -207.34512    229018.04   -21181.417     1573.529   -22754.946   -297.20148    192.29296    78.604122    15.954982    29.891844 
   27400    238.48767   -234.79283    229018.04   -21230.224    1579.5897   -22809.814    -449.1382    194.69538     78.60162    15.955672    29.898732 
   27600    236.31358   -313.32259    229018.04    -21271.05    1565.1899    -22836.24   -735.59659    195.57649    78.601325    15.954919    29.883302 
   27800    227.31191   -265.16512    229018.04   -21385.702    1505.5686   -22891.271   -517.80961    196.33957    78.602219     15.95743    29.881362 
   28000    229.36059   -229.76791    229018.04   -21334.871    1519.1377   -22854.009   -369.90606    196.26672    78.602391    15.960687    29.888126 
   28200    230.95859   -27.393052    229018.04   -21260.739    1529.7219    -22790.46    388.26549    196.41485    78.602521    15.962318    29.889821 
   28400    236.21422   -254.95483    229018.04   -21221.094    1564.5318   -22785.625    -474.0976    198.05117    78.603746    15.961103    29.904542 
   28600    236.12772   -374.32783    229018.04   -21241.706    1563.9589   -22805.665   -978.98976     199.1431    78.604283    15.959604    29.900417 
   28800    233.87597   -209.88073    229018.04   -21345.093    1549.0447   -22894.138   -357.64344    200.80304    78.606994    15.960052    29.919247 
   29000     243.6739    -232.9307    229018.04   -21299.159      1613.94   -22913.099   -388.40683    202.38903    78.605661    15.957893    29.918803 
   29200    231.16892   -262.00492    229018.04   -21306.457     1531.115   -22837.572   -521.64813    204.16444    78.604325    15.957355    29.918582 
   29400    241.39214   -400.53664    229018.04   -21244.662     1598.827   -22843.489   -1032.5848    205.30224    78.603401    15.957204    29.923667 
   29600    230.98051   -558.59327    229018.04   -21305.456     1529.867   -22835.323   -1702.5248    205.79021    78.605959    15.957318    29.915056 
   29800    236.69287   -296.69186    229018.04   -21337.696    1567.7021   -22905.398   -670.61909    205.71921    78.608387    15.954559    29.896111 
   30000    234.56458   -253.95948    229018.04     -21371.7    1553.6057   -22925.306    -474.5557    207.67015      78.6103    15.951363    29.880027 
   30200    228.60159   -163.48847    229018.04   -21380.743    1514.1106   -22894.853    -119.2932    210.31541    78.611708    15.950789    29.873531 
   30400    225.65121   -295.91081    229018.04   -21401.776    1494.5692   -22896.345   -659.23434    211.21412    78.611711    15.951182    29.860878 
   30600     228.6298   -224.24965    229018.04   -21463.796    1514.2975   -22978.094   -384.93534    210.71166    78.611952    15.950439    29.885731 
   30800     233.1363   -244.11711    229018.04   -21386.755    1544.1456     -22930.9   -443.14629    210.61889    78.611577    15.949563    29.886543 
   31000    231.67595   -229.46699    229018.04   -21326.725    1534.4732   -22861.199   -403.85277    211.25316    78.611681    15.950231     29.88778 
   31200    239.19436   -291.28868    229018.04   -21280.486    1584.2703   -22864.756   -599.97368     210.7129    78.611016    15.949048    29.871355 
   31400    232.54121    -352.4314    229018.04   -21274.515    1540.2042   -22814.719   -825.97559    209.77711    78.608877    15.951024     29.86767 
   31600    235.96758   -260.77066    229018.04    -21194.68    1562.8982   -22757.578   -483.56333    209.62434    78.612753    15.950176    29.872118 
   31800    230.99845   -428.11134    229018.04   -21263.941    1529.9859   -22793.927   -1124.4809     211.7252    78.614183    15.949599    29.882331 
   32000    237.49818   -292.94943    229018.04   -21247.314    1573.0359    -22820.35   -573.54684    214.24152    78.615775     15.95064    29.889539 
   32200    232.37441   -282.08082    229018.04   -21339.817    1539.0994   -22878.916   -562.13333     215.6986    78.617936     15.94992    29.876358 
   32400    227.73693   -398.98455    229018.04   -21313.841    1508.3837   -22822.225   -1023.2896     215.8282      78.6177    15.949601    29.873465 
   32600    230.48165    -186.9859    229018.04   -21296.014    1526.5629   -22822.577   -192.56227    215.48057    78.619423    15.953275    29.877282 
   32800    231.74618     -319.856    229018.04   -21302.372    1534.9384    -22837.31    -744.7241    216.51974    78.619863    15.955788    29.894823 
   33000    236.97618   -326.65709    229018.04   -21264.669    1569.5785   -22834.248   -766.19026    217.65235    78.620506    15.956346    29.879255 
   33200    235.47675   -287.73538    229018.04   -21266.818    1559.6473   -22826.465   -649.71468    218.12708    78.620502    15.955834    29.858489 
   33400    227.44439    -265.2519    229018.04   -21247.304    1506.4461    -22753.75   -526.27044    218.46402     78.61909    15.955134    29.894621 
   33600     235.5313   -289.43938    229018.04   -21296.171    1560.0086    -22856.18     -616.154    218.33479    78.617611     15.95765    29.920869 
   33800    239.79457   -217.97118    229018.04   -21207.594    1588.2457    -22795.84   -326.84898    219.10424    78.618532    15.960071    29.942562 
   34000    233.57132   -340.63749    229018.04   -21261.668    1547.0269   -22808.695   -844.80762    220.88114    78.617778    15.958289    29.938418 
   34200    236.36464   -394.21914    229018.04   -21232.786    1565.5281   -22798.314   -1029.4458    223.17372    78.619028    15.955752    29.953003 
   34400    234.37853   -166.45169    229018.04   -21256.766    1552.3733   -22809.139   -152.56842      223.501    78.618873    15.955925     29.96604 
   34600    230.94311   -344.78568    229018.04    -21196.16    1529.6193   -22725.779    -845.3566    227.72138    78.621435    15.958185    29.967624 
   34800    237.58522   -251.30996    229018.04   -21189.473    1573.6124   -22763.085   -485.44455    229.43524    78.620566    15.954933     29.97895 
   35000    237.70247     -380.942    229018.04   -21208.172     1574.389   -22782.561   -986.89925    230.84435    78.618863    15.952363      29.9631 
   35200    236.26059   -110.49589    229018.04    -21196.43    1564.8389   -22761.269    103.24977    231.37023     78.61794    15.949015    29.942688 
   35400    240.45194   -321.99538    229018.04   -21170.258    1592.5998   -22762.857   -751.44455    233.88395    78.621301    15.945553    29.951733 
   35600    229.67191    -301.9848    229018.04   -21280.717    1521.1998   -22801.916   -660.53138    235.10034    78.622101     15.94453    29.966397 
   35800    241.02743   -169.27231    229018.04   -21247.966    1596.4114   -22844.377   -156.93281     237.7326      78.6244    15.944196    29.982296 
   36000      234.742   -172.40589    229018.04    -21328.56    1554.7807   -22883.341    -163.3601    239.05506    78.625183     15.94503    29.983244 
   36200    229.87949   -394.35186    229018.04   -21316.038    1522.5746   -22838.613   -1017.9002    241.46613    78.626497    15.942456    29.986636 
   36400    235.50432   -272.23917    229018.04   -21262.339    1559.8299   -22822.169   -571.30706    241.70155    78.626121    15.937518    29.984626 
   36600    234.09139   -303.93803    229018.04   -21306.218    1550.4715   -22856.689   -661.94355    240.73901    78.627328    15.936909    29.985248 
   36800    230.44911   -220.37216    229018.04   -21311.885    1526.3474   -22838.233   -369.64574    242.50422    78.628545    15.938958    29.976057 
   37000    239.32733   -282.54396    229018.04   -21253.421    1585.1511   -22838.572   -584.24382    242.12416    78.629056    15.938259     29.97119 
   37200    227.75571    -178.8427    229018.04   -21380.091     1508.508   -22888.599   -199.21069    242.43435     78.62985    15.937907    29.953678 
   37400    230.94517   -358.26504    229018.04   -21326.684     1529.633   -22856.317   -902.15521    243.70746     78.62994    15.938854      29.9579 
   37600    232.36935   -299.03657    229018.04   -21283.978    1539.0658   -22823.043   -651.01999    245.17394    78.628054    15.940918    29.941176 
   37800    232.23847   -449.23277    229018.04   -21361.081     1538.199    -22899.28    -1249.678    245.29735    78.627757    15.940981    29.934483 
   38000    233.94945   -66.936703    229018.04   -21319.137    1549.5314   -22868.669    246.87336    245.04315    78.629287    15.939183    29.921264 
   38200    229.34182   -330.15422    229018.04   -21319.717    1519.0135    -22838.73   -775.19357    245.61046    78.631306    15.940562    29.920672 
   38400    229.30748   -254.93386    229018.04   -21295.349     1518.786   -22814.135   -453.15296    247.05217    78.631607    15.940812    29.909948 
   38600    233.79002    -198.7206    229018.04    -21277.03    1548.4755   -22825.506   -272.34527    247.62543    78.631467    15.939125    29.927117 
   38800    233.38279    -278.9218    229018.04   -21272.355    1545.7782   -22818.133   -567.31329    250.02231    78.632966    15.939648    29.944965 
   39000    239.76723   -324.32633    229018.04    -21252.99    1588.0646   -22841.055    -769.7906    251.55445    78.634353    15.940613     29.93426 
   39200    228.24199   -146.64491    229018.04   -21322.741    1511.7288    -22834.47   -48.734829    251.84861    78.636715    15.938756    29.938493 
   39400    238.37853   -362.40767    229018.04   -21265.906    1578.8668   -22844.773    -917.2634    252.15703     78.63791    15.938877    29.908312 
   39600    231.48086   -282.39189    229018.04    -21297.05    1533.1811   -22830.231   -649.13763     252.6915    78.638444    15.941486    29.893108 
   39800    240.96202   -287.86225    229018.04   -21157.706    1595.9782   -22753.684   -646.04898     253.9974     78.63849    15.941049    29.877685 
   40000    226.66676   -217.36734    229018.04   -21250.135    1501.2955    -22751.43    -344.4755    255.58444    78.639528    15.939705    29.858098 
   40200     226.9233   -317.18218    229018.04   -21311.751    1502.9947   -22814.745   -736.27272    257.49204      78.6384    15.939253    29.850605 
   40400     240.4654   -337.44217    229018.04   -21142.606    1592.6889   -22735.295   -798.35403    259.47488    78.638269    15.937547    29.852505 
   40600    232.37023   -273.33389    229018.04   -21256.634    1539.0716   -22795.705    -541.3474    260.29623    78.639702    15.936703    29.853744 
   40800    230.96953   -290.26574    229018.04   -21215.305    1529.7943     -22745.1   -624.06022     261.2792    78.638127    15.935926    29.874707 
   41000    238.27096   -422.79477    229018.04   -21134.749    1578.1543   -22712.903    -1126.649    262.70104    78.638137    15.936665    29.861443 
   41200    240.14981   -250.47291    229018.04   -21164.948    1590.5986   -22755.547   -488.87155    265.51712    78.638549    15.934878    29.866765 
   41400    236.95089   -213.28695    229018.04   -21194.641     1569.411   -22764.052   -332.92711    267.77088    78.640915    15.935026    29.862164 
   41600     237.5791   -162.08157    229018.04   -21142.119    1573.5719   -22715.691   -102.09539    270.27985    78.643432    15.934438    29.869426 
   41800    233.98924   -385.38835    229018.04   -21229.347    1549.7949   -22779.142   -1017.1333    271.08313    78.642707    15.933621     29.87246 
   42000     230.6474    -315.4021    229018.04   -21260.096    1527.6607   -22787.756   -740.75352    270.33488    78.643329     15.93508    29.840747 
   42200    231.58574    -270.6141    229018.04   -21241.106    1533.8757   -22774.982   -549.85837     269.9196    78.642993    15.936777    29.824353 
   42400    237.08921   -175.36136    229018.04   -21218.882    1570.3272   -22789.209   -173.35398    269.96936    78.644399    15.936955    29.832941 
   42600    234.06178   -358.95642    229018.04   -21245.564    1550.2754   -22795.839   -945.65502    273.63893     78.64321    15.936426    29.834902 
   42800    240.23747    -176.5331    229018.04   -21169.646    1591.1792   -22760.825   -155.53779    276.14996     78.64332     15.93534    29.831186 
   43000     239.0026   -196.71678    229018.04   -21148.893    1583.0002   -22731.893   -267.98872    277.66301    78.644236     15.93391     29.82418 
   43200    236.25587   -227.66075    229018.04   -21189.557    1564.8076   -22754.364   -376.51865    279.36079    78.643537    15.933585    29.811833 
   43400    231.78575   -253.22642    229018.04   -21212.485    1535.2004   -22747.685   -462.44217    282.08426    78.642518    15.934373    29.825217 
   43600    233.64127   -140.61303    229018.04    -21292.01    1547.4903     -22839.5   -13.718887     283.3021    78.643573    15.933744    29.842986 
   43800    236.01325   -247.36913    229018.04   -21239.434    1563.2007   -22802.635   -433.72474    286.87945     78.64379    15.935637    29.842424 
   44000    229.78171   -333.91633    229018.04   -21311.336     1521.927   -22833.262   -780.59523    288.90123    78.642419    15.937049    29.828528 
   44200    228.29841   -109.51742    229018.04   -21266.336    1512.1026   -22778.438    78.036352     288.9113    78.643782     15.93607    29.848189 
   44400    239.57619   -359.57074    229018.04   -21195.995    1586.7994   -22782.794   -908.41527    291.08583     78.64487    15.936491     29.88294 
   44600    232.92767   -382.35405    229018.04   -21188.101    1542.7638   -22730.865    -1014.773    294.84306    78.644933    15.935875    29.894776 
   44800    230.65768   -336.14038    229018.04   -21237.754    1527.7289   -22765.483   -852.83749    296.28848    78.647456    15.936085    29.892865 
   45000    229.79791    -216.7687    229018.04   -21258.343    1522.0343   -22780.377   -288.35784    295.70891    78.648433    15.935856    29.879808 
   45200     240.6796   -387.53838    229018.04   -21140.583    1594.1076   -22734.691   -1025.5857    299.19853    78.650563    15.936982    29.896639 
   45400    243.20451   -368.90399    229018.04   -21132.116     1610.831   -22742.947   -949.17736    301.33341    78.651569    15.934195    29.894181 
   45600    241.80206   -174.40388    229018.04   -21128.774    1601.5421   -22730.316   -184.52368    303.28986    78.650515    15.930708    29.913358 
   45800    231.25935   -441.98296    229018.04   -21212.031    1531.7139   -22743.745   -1183.4756     306.2624     78.65057    15.929191    29.936687 
   46000    239.90345   -225.54743    229018.04   -21273.055    1588.9669   -22862.022   -365.61788    307.11174     78.64914    15.927736    29.947741 
   46200    244.86259    -296.9566    229018.04   -21241.757    1621.8131    -22863.57   -688.12493     308.5326    78.647993    15.928355    29.939651 
   46400    236.95056   -254.51971    229018.04   -21197.661    1569.4088   -22767.069   -450.57009    311.23277    78.649959    15.927841    29.924024 
   46600    233.81451   -260.49678    229018.04    -21227.24    1548.6376   -22775.878   -537.01708    314.52968    78.652491    15.928447    29.924295 
   46800    234.47183   -341.40967    229018.04   -21192.249    1552.9913   -22745.241   -810.85169    316.96638    78.652159    15.928771    29.926194 
   47000    236.62328   -343.35445    229018.04   -21137.803    1567.2411   -22705.044   -872.71899    318.81495    78.653227    15.927782    29.945367 
   47200    238.49796   -415.40427    229018.04     -21206.7    1579.6578   -22786.357   -1131.1283    318.52482    78.652417    15.928428    29.946538 
   47400    232.39033   -387.22042    229018.04   -21251.196    1539.2048   -22790.401   -991.97119    318.24852    78.652997    15.931084    29.933337 
   47600    238.71324   -221.53271    229018.04   -21184.034    1581.0837   -22765.118   -360.77254    317.20736    78.651822    15.931614    29.926727 
   47800     229.2003   -369.03198    229018.04   -21181.009    1518.0761   -22699.085   -953.69896    318.33366     78.65064    15.931281    29.924569 
   48000    235.17118   -531.60579    229018.04   -21197.102    1557.6234   -22754.725   -1560.2002    321.03455    78.650504    15.929897    29.929727 
   48200    236.00089   -365.41039    229018.04   -21219.975    1563.1188   -22783.094   -911.35391    323.40067     78.64937    15.929143    29.922911 
   48400    232.55463   -288.05251    229018.04    -21249.49     1540.293   -22789.783   -608.73266    325.11664    78.647264    15.931107    29.922248 
   48600    227.09331   -326.45456    229018.04   -21242.335    1504.1207   -22746.455   -749.89411    323.50329    78.646158    15.932346    29.914472 
   48800    240.77476   -161.05605    229018.04   -21237.955    1594.7379   -22832.693   -87.775317    323.06326    78.646897    15.930701     29.91089 
   49000    228.35716   -361.60545    229018.04   -21267.645    1512.4917   -22780.136   -917.01011     324.8455     78.64895    15.932626    29.912504 
   49200    229.44783   -386.37807    229018.04   -21253.467    1519.7156   -22773.182   -976.72921    327.13298    78.651714    15.935304    29.912866 
   49400    234.79271   -341.92177    229018.04   -21225.773    1555.1166    -22780.89   -835.28668    326.29561     78.65121    15.935454    29.904876 
   49600    244.86968   -373.39664    229018.04   -21246.128      1621.86   -22867.988   -942.70096    325.51617    78.654714    15.935149    29.886726 
   49800    234.76539   -306.65445    229018.04   -21287.092    1554.9357   -22842.028   -708.37638    324.68529    78.652911    15.935146    29.864196 
   50000    235.59248    -340.6674    229018.04   -21295.145    1560.4138   -22855.559   -817.24293    322.61811     78.65254    15.935518    29.853634 
   50200    235.27821   -259.09914    229018.04   -21320.179    1558.3323   -22878.511   -517.60837    324.98526    78.651114    15.933786    29.873142 
   50400    239.23564   -380.21661    229018.04   -21307.913    1584.5438   -22892.456   -984.55897    328.74077    78.650672    15.934506    29.856544 
   50600    236.86241   -333.38431    229018.04   -21302.749     1568.825   -22871.574   -787.54457    331.67798    78.647628    15.934165    29.866839 
   50800     232.1815   -393.68829    229018.04    -21290.24    1537.8216   -22828.061   -1028.3384    334.20825    78.644248    15.935186    29.867284 
   51000    233.39336   -226.13024    229018.04   -21279.498    1545.8483   -22825.346    -389.1828     332.4974    78.643782    15.935568    29.847048 
   51200    235.85303    -275.3102    229018.04   -21296.525    1562.1395   -22858.665    -545.9341    333.72821    78.640978    15.934111    29.852142 
   51400    233.89456   -235.44262    229018.04   -21351.612    1549.1679    -22900.78   -418.67415    337.28565     78.64048    15.933503    29.851572 
   51600    234.35725   -246.64725    229018.04   -21322.219    1552.2324   -22874.452   -446.06014    337.51343     78.64036    15.932804    29.845911 
   51800    235.68904   -265.09261    229018.04   -21273.656    1561.0534   -22834.709   -548.48591    336.72529    78.640158    15.930992    29.859107 
   52000     240.2025   -454.76094    229018.04   -21221.811    1590.9476   -22812.758   -1271.0551    341.32698    78.640508    15.932707    29.829918 
   52200    237.32473   -248.58276    229018.04   -21239.633    1571.8871    -22811.52   -478.06118    343.33484    78.639733    15.932889    29.844156 
   52400    236.69108   -262.43281    229018.04   -21299.106    1567.6902   -22866.796   -536.30261    341.38953    78.637618    15.934421    29.838883 
   52600    237.39509   -466.54533    229018.04   -21242.729    1572.3531   -22815.082   -1313.9469    343.91129    78.636353    15.931435     29.83338 
   52800    231.40413   -389.26591    229018.04    -21359.05    1532.6728   -22891.723    -1009.102    343.03907    78.635535    15.927224    29.831305 
   53000     235.4382   -341.12971    229018.04    -21311.74     1559.392   -22871.132   -798.95485    342.88259    78.635679    15.926571    29.828091 
   53200    233.44579   -197.62565    229018.04   -21299.276    1546.1955   -22845.472   -233.65447    344.76818    78.632716    15.924395    29.829322 
   53400    234.82358   -193.63719    229018.04   -21294.705    1555.3211   -22850.026   -258.92651    346.32112    78.631089    15.921271    29.862646 
   53600    233.58819   -324.86775    229018.04    -21265.39    1547.1386   -22812.529   -764.95214    347.90493    78.631053    15.917342    29.857476 
   53800      235.331   -393.83391    229018.04   -21261.792    1558.6819   -22820.474   -1015.6816    351.63329    78.631638    15.917324    29.889892 
   54000    240.10985   -392.15448    229018.04   -21158.996     1590.334    -22749.33   -1030.0969    355.49932    78.629548    15.920935    29.888754 
   54200    236.83155   -163.56929    229018.04   -21268.542    1568.6206   -22837.163   -140.31926    358.79114    78.627675    15.923505    29.892597 
   54400    231.72144   -259.24612    229018.04   -21314.044    1534.7745   -22848.819   -504.74153    360.01298    78.625548     15.92462    29.881706 
   54600    236.44458   -189.54462    229018.04   -21239.384    1566.0576   -22805.441   -210.35537    359.10432    78.626529    15.923722    29.853779 
   54800    234.30122   -245.86389    229018.04   -21227.722    1551.8613   -22779.583   -478.86453    358.70155    78.624865    15.924166    29.848579 
   55000    232.89462   -380.81719    229018.04   -21287.421    1542.5449   -22829.966    -977.5767    359.00327    78.624195    15.926078    29.865327 
   55200    231.27804   -201.18562    229018.04   -21233.708    1531.8377   -22765.546   -279.37421    355.67635    78.624925    15.926851    29.873534 
   55400     230.6625   -292.06444    229018.04   -21249.099    1527.7607    -22776.86   -645.58595    352.80111     78.62583    15.928512    29.893697 
   55600    235.57683   -258.31119    229018.04   -21210.186    1560.3101   -22770.496   -522.00797    353.52011    78.625191    15.930712    29.885253 
   55800    233.01658   -245.65091    229018.04   -21251.219    1543.3527   -22794.572   -480.79626    352.52728    78.623062    15.933455    29.895804 
   56000    233.40942   -296.91757    229018.04   -21287.753    1545.9546   -22833.708   -642.56781    353.67593    78.622499    15.936301     29.90884 
   56200    235.21106   -168.19163    229018.04   -21203.387    1557.8875   -22761.274   -103.37004    354.58611    78.622092    15.934768    29.920745 
   56400    236.37328   -196.18793    229018.04   -21206.474    1565.5853    -22772.06     -281.071    353.68764    78.623848    15.935024    29.922633 
   56600    234.69684   -156.71044    229018.04   -21311.661    1554.4816   -22866.143    -83.76969    353.77571    78.625981    15.935294    29.915324 
   56800    231.08367    -217.5267    229018.04   -21300.173    1530.5503   -22830.723   -380.10497    353.72122    78.626487    15.933248    29.901929 
   57000    228.33789   -324.31116    229018.04   -21344.725    1512.3641   -22857.089   -731.02611    356.64884    78.626769    15.930706    29.894006 
   57200    229.54145   -333.07123    229018.04   -21313.441    1520.3356   -22833.777   -807.27986    359.67683    78.628958    15.928496    29.895245 
   57400    232.77931   -329.77069    229018.04   -21323.074    1541.7812   -22864.855   -783.28365    360.25365    78.628602    15.929929     29.86515 
   57600    237.91121   -380.15241    229018.04   -21230.939    1575.7716   -22806.711   -989.84233    363.78145    78.627781    15.932319    29.869899 
   57800    231.68528    -302.2202    229018.04   -21226.699     1534.535   -22761.234   -685.46303    366.29323    78.628544    15.934442    29.869234 
   58000    233.97578   -311.74409    229018.04    -21202.48    1549.7058   -22752.186   -729.73922    365.87756    78.629106    15.935772    29.880021 
   58200    234.76782   -448.31451    229018.04    -21211.02    1554.9518   -22765.972    -1269.038    368.48788    78.627611    15.935413    29.881604 
   58400    230.95625   -263.56197    229018.04   -21330.024    1529.7064    -22859.73   -538.60847     372.6205    78.624982     15.93554    29.866436 
   58600    234.23212   -169.07333    229018.04   -21258.538    1551.4037   -22809.942    -141.7358    376.10152    78.624964    15.934441    29.841412 
   58800    230.10178   -181.27005    229018.04   -21257.542    1524.0469   -22781.589   -197.96569    379.11431    78.626356    15.932528    29.827228 
   59000    235.25485   -362.58692    229018.04   -21260.394    1558.1776   -22818.572   -922.58216    382.53126    78.626662    15.930639    29.834918 
   59200    232.18863   -267.94579    229018.04   -21319.155    1537.8688   -22857.024   -559.76543    382.86281    78.626342    15.931191    29.822777 
   59400    240.09694   -226.50356    229018.04   -21318.982    1590.2485    -22909.23   -418.44684    383.13569    78.623379     15.93044     29.82968 
   59600    240.81526   -151.21486    229018.04   -21244.672    1595.0062   -22839.679   -165.37773    382.93531    78.620832    15.928396    29.855457 
   59800    241.44296   -339.25607    229018.04   -21203.173    1599.1636   -22802.337   -820.52011    383.52337    78.619569    15.929262    29.867059 
   60000    234.75976   -229.78584    229018.04   -21314.115    1554.8984   -22869.013    -400.5001    383.48505    78.618027     15.93003    29.868965 
   60200    237.57906   -486.09863    229018.04   -21245.498    1573.5716    -22819.07   -1379.7565    384.98116    78.618871    15.929583    29.872156 
   60400    237.42194   -332.10622    229018.04   -21345.177     1572.531   -22917.708   -804.60448    383.60445    78.618313    15.927457    29.894071 
   60600    227.00325   -246.78315    229018.04   -21327.864    1503.5243   -22831.388   -449.97624    386.89875    78.617945     15.92483    29.883046 
   60800    232.68233   -201.27527    229018.04   -21316.127    1541.1388   -22857.266   -297.59185    386.94356    78.618219    15.921804    29.887638 
   61000     228.4223   -450.92843    229018.04    -21304.51    1512.9231   -22817.433   -1264.7136    387.82394    78.618647    15.920492    29.917802 
   61200    223.56342   -250.29948    229018.04   -21363.367     1480.741   -22844.108   -499.80999    388.72531    78.618695    15.920856    29.935846 
   61400     230.8305   -244.29941    229018.04    -21316.64    1528.8735   -22845.513   -444.17162     391.7752    78.616461    15.922214    29.943761 
   61600    236.55626   -231.85963    229018.04   -21284.464    1566.7972   -22851.261   -437.24572    394.37198    78.613224    15.922178    29.952828 
   61800     233.3912   -365.78726    229018.04   -21245.295    1545.8339   -22791.129   -921.43931    397.64461    78.608079    15.921008    29.952893 
   62000     233.2883   -344.50969    229018.04   -21333.872    1545.1524   -22879.025   -788.39524    398.62635    78.607954    15.920196    29.946313 
   62200    231.61835   -347.59035    229018.04   -21250.516    1534.0917   -22784.608   -885.07138    398.81858    78.608655    15.917961    29.939704 
   62400    243.82301   -135.95902    229018.04   -21209.209    1614.9276   -22824.136   -15.636524    398.69711    78.609311    15.914815    29.939002 
   62600     240.5126   -317.09782    229018.04   -21256.891    1593.0015   -22849.893   -708.09819    398.15614    78.607879    15.914376    29.941237 
   62800    236.81625   -275.26397    229018.04   -21243.718    1568.5193   -22812.237   -565.03773    399.79457    78.607728    15.915513     29.94567 
   63000    238.77089   -197.02527    229018.04   -21277.782    1581.4656   -22859.248   -264.81639     399.3203    78.606173    15.916236     29.93867 
   63200    225.49861   -257.81964    229018.04   -21380.454    1493.5585   -22874.013   -462.59938    401.15869    78.607632    15.918879    29.937246 
   63400    236.17358   -335.58754    229018.04   -21308.096    1564.2626   -22872.359   -838.23799     401.5901    78.608335    15.920934    29.928439 
   63600    234.14906   -316.23737    229018.04   -21311.109    1550.8535   -22861.962   -729.02337     400.5489    78.609415    15.922662    29.903591 
   63800    236.09213   -156.56682    229018.04   -21226.089    1563.7232   -22789.812     -189.049     404.1704    78.610007    15.924359    29.898337 
   64000    232.46755    -251.3051    229018.04   -21256.261    1539.7163   -22795.977   -499.31125    407.29754    78.609831    15.923969     29.89389 
   64200    243.55218   -316.93136    229018.04   -21261.847    1613.1337   -22874.981   -741.35118    409.05815      78.6092    15.922124    29.902293 
   64400    230.75615   -221.15182    229018.04   -21213.477    1528.3811   -22741.858   -356.27051    406.49261    78.610282    15.922362    29.903302 
   64600    234.34788   -345.31282    229018.04   -21268.284    1552.1703   -22820.454   -844.41378    407.21837     78.61011    15.922779    29.882274 
   64800    235.45002    -156.3226    229018.04   -21196.434    1559.4702   -22755.904   -118.59198    407.53005    78.609175    15.922019      29.8657 
   65000     233.5598   -205.52108    229018.04    -21275.99    1546.9506   -22822.941   -355.72157    405.90694    78.609877    15.922176    29.849207 
   65200    228.79047   -255.01948    229018.04    -21267.45    1515.3616   -22782.811   -509.82746    407.33006    78.610315    15.920963    29.839633 
   65400    238.99408   -311.53611    229018.04   -21133.109    1582.9438   -22716.053   -703.88917    407.62591    78.612127    15.922059    29.851404 
   65600    236.31623   -358.38729    229018.04   -21132.955    1565.2075   -22698.162    -948.2554    406.75617     78.61286    15.923225    29.839197 
   65800    232.42686   -287.79097    229018.04   -21230.789    1539.4468   -22770.236   -614.50118    408.26846    78.613921    15.924048    29.829922 
   66000    234.65583   -343.39352    229018.04   -21291.901      1554.21   -22846.111   -825.73376    410.54483    78.612974    15.924108     29.84143 
   66200    233.45991   -238.05881    229018.04   -21235.549     1546.289   -22781.838   -454.72734    412.30514    78.613656    15.927282    29.849615 
   66400    234.36546   -281.29126    229018.04   -21295.679    1552.2868   -22847.966    -610.2813    412.09617    78.613623    15.927004    29.860944 
   66600    233.44031    -216.7883    229018.04   -21291.488    1546.1592   -22837.647   -383.91273    410.63145    78.614733    15.927963    29.860388 
   66800    231.88006   -343.21915    229018.04   -21370.977    1535.8251   -22906.802   -803.44748    411.17796    78.616374     15.92916    29.862092 
   67000    226.00699   -314.08306    229018.04     -21333.6    1496.9256   -22830.525   -742.37932    410.55448    78.617043    15.928577    29.850085 
   67200    234.98787   -288.72758    229018.04   -21385.633    1556.4092   -22942.042   -627.58492    410.35317    78.619101    15.932458    29.856553 
   67400    235.81512   -302.05036    229018.04   -21352.845    1561.8884   -22914.733   -730.34275    411.97013    78.618247    15.934626    29.846823 
   67600    234.18718   -250.14877    229018.04   -21399.618     1551.106   -22950.724   -482.12349    410.97318    78.618139    15.933344     29.84713 
   67800    231.76848   -278.11817    229018.04   -21376.142     1535.086   -22911.228   -633.81884    411.74339    78.619492    15.931362    29.832622 
   68000    230.66582   -391.85461    229018.04   -21352.617    1527.7827     -22880.4   -992.18262    411.75887    78.619694    15.932099    29.830743 
   68200    231.52233   -207.88713    229018.04   -21371.745    1533.4557   -22905.201   -319.06526    408.74558    78.619142    15.933856    29.820466 
   68400     246.9109   -371.45926    229018.04   -21204.569    1635.3797   -22839.949   -988.30413    410.13604    78.618489    15.935282    29.838841 
   68600     238.5849     -265.348    229018.04    -21244.79    1580.2337   -22825.024   -597.03097    410.58512    78.619503    15.933267    29.852009 
   68800    239.25476    -280.2633    229018.04   -21188.208    1584.6704   -22772.878   -581.27857     411.2789     78.61733    15.932274    29.870978 
   69000    237.29467   -165.25712    229018.04   -21166.366     1571.688   -22738.054   -146.31712    412.15907    78.615575    15.933735    29.902622 
   69200    236.09127   -306.53087    229018.04   -21189.058    1563.7174   -22752.776   -736.28114    413.00788    78.616376    15.935743     29.89399 
   69400    229.47565   -260.70337    229018.04   -21213.006    1519.8998   -22732.906    -524.2116    415.10766    78.618139    15.934507     29.89888 
   69600    236.07149   -260.56901    229018.04   -21218.062    1563.5864   -22781.648   -535.61367    416.20711    78.618239    15.936261     29.91876 
   69800    239.44204   -230.64665    229018.04   -21228.742    1585.9108   -22814.653   -424.94673    418.51802    78.618219    15.936618    29.937395 
   70000    231.29867   -384.83857    229018.04   -21297.346    1531.9743    -22829.32   -994.28399    418.76432    78.618179      15.9354    29.934318 
   70200    229.99964   -330.26066    229018.04    -21284.61    1523.3704    -22807.98   -796.77944    418.20247    78.618669    15.933513    29.907573 
   70400    238.52548   -443.32311    229018.04   -21284.766    1579.8401   -22864.606   -1231.1886    417.95238    78.619331    15.933489    29.909385 
   70600     236.9355   -331.56682    229018.04   -21252.793    1569.3091   -22822.102   -761.54902    416.25592    78.619725    15.933622    29.912494 
   70800    231.62363    -257.8653    229018.04   -21296.229    1534.1267   -22830.355   -510.45303    418.24383    78.619093    15.932225    29.918804 
   71000    237.34461   -343.57192    229018.04   -21265.869    1572.0188   -22837.887   -848.94801     420.1623    78.619987    15.932907    29.932499 
   71200     243.1022   -383.89151    229018.04   -21178.545    1610.1534   -22788.699   -990.56646    421.24161     78.62038    15.934211    29.925166 
   71400    239.52154   -346.78362    229018.04   -21199.819    1586.4374   -22786.256   -858.57222    420.93714    78.619981    15.933735    29.938825 
   71600    243.08204   -184.62826    229018.04   -21210.563    1610.0198   -22820.583   -233.36367    419.75056     78.62098    15.933591    29.950212 
   71800    234.99916   -313.03692    229018.04   -21256.278     1556.484   -22812.762   -724.12424    423.64598    78.621669    15.934241    29.964702 
   72000     235.9193    -121.5605    229018.04   -21262.526    1562.5784   -22825.105    9.0696885    422.47875    78.620582    15.935009    29.950283 
   72200     234.2084   -266.04988    229018.04   -21249.834    1551.2465    -22801.08   -539.89617    424.89868    78.617749    15.935037    29.938834 
   72400    237.59267   -333.60912    229018.04   -21217.851    1573.6618   -22791.513   -825.98905    426.56678    78.616619    15.937886    29.918155 
   72600    237.35011   -478.81027    229018.04   -21250.455    1572.0552    -22822.51   -1387.9787       428.17    78.618692    15.938094     29.92545 
   72800    230.04791   -402.04781    229018.04   -21268.904    1523.6901   -22792.594   -1109.4635    427.61514    78.620282    15.936894    29.909799 
   73000    235.92163   -283.23186    229018.04   -21316.696    1562.5939    -22879.29   -647.36414    427.65434    78.623638    15.938555    29.923092 
   73200    238.11023   -430.19152    229018.04    -21205.05    1577.0897    -22782.14   -1162.5147    430.29285     78.62713    15.939182    29.940798 
   73400    233.24936   -231.92199    229018.04   -21249.481    1544.8945   -22794.376   -421.74421    429.69698    78.628253    15.937671    29.967707 
   73600    230.84094   -288.55056    229018.04   -21301.536    1528.9426   -22830.478   -655.52849    432.26955     78.62701    15.937243    29.968532 
   73800    241.36532   -263.75971    229018.04   -21213.757    1598.6494   -22812.407   -541.47086    432.69436    78.625061    15.934861    29.986695 
   74000    245.60312   -445.38757    229018.04   -21136.805    1626.7179   -22763.523   -1246.6184    434.55965      78.6238    15.934354    30.000706 
   74200    230.46547   -372.29883    229018.04   -21220.906    1526.4558   -22747.362    -954.7763    434.27177    78.622978    15.937782    29.981849 
   74400    237.68391   -300.99935    229018.04   -21271.891    1574.2661   -22846.157   -703.73414    432.66888    78.619747    15.942754    29.954244 
   74600    229.36279   -221.61103    229018.04    -21277.02    1519.1523   -22796.172   -388.38382    433.18659    78.619553    15.942469    29.964407 
   74800    235.29492   -308.67756    229018.04   -21224.115    1558.4429   -22782.558   -705.51623    435.56476    78.618016    15.941694    29.949169 
   75000    233.02103   -222.82763    229018.04   -21214.317    1543.3821   -22757.699   -426.81519     436.9207    78.616289    15.942444    29.921172 
   75200    239.54919   -314.10116    229018.04    -21200.92    1586.6205   -22787.541   -725.40105    436.92666    78.615844    15.941944    29.911128 
   75400    240.97332   -358.38878    229018.04   -21164.792     1596.053   -22760.845   -912.05682    438.75393    78.612888    15.939275    29.929594 
   75600    238.29617   -281.22868    229018.04   -21196.905    1578.3213   -22775.227   -596.42198    439.80746    78.611662    15.938268    29.901292 
   75800    231.38025   -284.47119    229018.04   -21232.682    1532.5146   -22765.197   -644.23314     439.3486    78.611159    15.935992    29.892523 
   76000    233.30156   -208.49611    229018.04   -21230.432    1545.2402   -22775.672   -341.41711     439.3444     78.61494    15.934194    29.884209 
   76200    231.23119   -425.46892    229018.04   -21294.185    1531.5274   -22825.712   -1149.2818    443.59165    78.615888    15.931974    29.879811 
   76400    225.85918   -282.00643    229018.04   -21335.523    1495.9466    -22831.47   -631.91431    443.24095    78.617247    15.928965    29.891374 
   76600    236.45877   -277.38111    229018.04   -21276.541    1566.1516   -22842.693   -607.95003    446.06854    78.615427    15.927472    29.869689 
   76800    237.67657   -331.70653    229018.04   -21188.722    1574.2175   -22762.939   -835.60116    447.44448    78.614166     15.92602    29.876413 
   77000    231.47508   -212.20111    229018.04   -21280.087    1533.1428    -22813.23   -335.74125    447.84727    78.612455    15.924726    29.885099 
   77200    232.92891   -163.10243    229018.04   -21271.996     1542.772   -22814.768   -144.59867    449.46206    78.614101     15.92801    29.888205 
   77400    234.46136   -292.66833    229018.04   -21284.094     1552.922   -22837.016   -648.98386     450.5855     78.61535    15.927653    29.900131 
   77600    229.93808   -266.23521    229018.04    -21310.87    1522.9627   -22833.833   -558.08297    451.72157     78.61578    15.928167     29.90937 
   77800    234.53128    -275.3787    229018.04   -21327.242    1553.3851   -22880.627   -561.90022    453.70725    78.616417     15.92888    29.910584 
   78000    230.69517   -284.90081    229018.04   -21371.355    1527.9772   -22899.333    -640.5364    454.48378    78.616474    15.929009    29.926744 
   78200    232.95533   -419.23868    229018.04   -21284.813     1542.947    -22827.76   -1169.1651    454.05299    78.616743    15.928246    29.948728 
   78400    239.50632   -340.66099    229018.04    -21325.09    1586.3366   -22911.427   -852.69621    454.79476    78.614393    15.928087    29.968035 
   78600    232.39039   -356.39583    229018.04   -21375.963    1539.2052   -22915.168   -891.67982    455.75225    78.612972    15.930036    29.977055 
   78800    235.90359   -272.41967    229018.04   -21328.748    1562.4744   -22891.223    -594.4671    454.57959    78.613053    15.929698    29.980491 
   79000    232.44307   -268.29019    229018.04   -21290.916    1539.5541    -22830.47   -549.73742    456.29019    78.615312    15.930552    29.988668 
   79200    228.64249   -309.64171    229018.04   -21328.247    1514.3815   -22842.628   -741.51581    456.67308    78.616818    15.929931    29.988373 
   79400     226.7393   -498.78861    229018.04   -21326.304     1501.776    -22828.08   -1461.3954    457.66545    78.616178    15.932573    29.983256 
   79600    234.83124   -248.53635    229018.04   -21288.385    1555.3718   -22843.757   -513.62648    456.13426    78.615383    15.935371    29.957732 
   79800    236.16484   -475.86626    229018.04   -21261.762    1564.2047   -22825.967   -1360.9898    458.14668    78.612901    15.934859    29.950529 
   80000    231.76505   -270.00598    229018.04   -21328.367    1535.0634    -22863.43   -569.77189    456.99015    78.611754     15.93112    29.942683 
   80200    232.08446   -162.57081    229018.04   -21323.269    1537.1789   -22860.448   -151.14167    457.60263     78.61273     15.92901    29.926913 
   80400    222.59524   -356.74998    229018.04   -21380.854    1474.3284   -22855.182   -913.00411    458.40983     78.61433    15.929981    29.939286 
   80600    237.81817   -265.03594    229018.04   -21209.393    1575.1553   -22784.548   -542.76613    458.68126     78.61221    15.931524    29.935342 
   80800    235.37487   -242.54154    229018.04   -21289.619    1558.9725   -22848.592   -466.51406    458.29268    78.613195    15.932159     29.92513 
   81000    235.39474   -529.50236    229018.04     -21242.4    1559.1041   -22801.504   -1592.9963     458.4483    78.614058    15.929338     29.92584 
   81200    242.19619   -237.08422    229018.04   -21265.326    1604.1526   -22869.479   -445.95001    460.39419    78.613971    15.924733    29.934329 
   81400    235.55359   -215.36256    229018.04   -21348.476    1560.1562   -22908.632   -377.45985       461.03    78.614047    15.925327    29.937524 
   81600    240.85467   -331.37733    229018.04   -21254.591    1595.2672   -22849.858   -805.79232    463.33443    78.614008     15.92596    29.941137 
   81800    237.57564   -477.06406    229018.04    -21244.78     1573.549   -22818.329    -1397.515    464.66051    78.611889    15.927005    29.946143 
   82000    240.96314   -271.00232    229018.04   -21212.082    1595.9856   -22808.068   -561.88638    466.99783    78.612888     15.92867    29.949148 
   82200    232.44519   -266.18874    229018.04   -21309.587    1539.5682   -22849.155   -536.11823    468.45033    78.613215    15.931733    29.958197 
   82400    233.27409   -140.10415    229018.04   -21322.554    1545.0582   -22867.613   -71.421042    467.60917    78.612718    15.932086    29.959667 
   82600    239.33199   -280.57756    229018.04   -21288.083    1585.1819   -22873.265   -649.71857    467.88354    78.611833    15.930257    29.972627 
   82800    237.41294   -251.55976    229018.04    -21245.08    1572.4713   -22817.552   -464.84275    467.62173    78.610089    15.929763    29.975886 
   83000    230.77533   -264.91153    229018.04   -21314.653    1528.5081   -22843.161    -564.0833    469.62263    78.609068    15.927618    29.969577 
   83200    228.86026   -316.08094    229018.04   -21304.271    1515.8239   -22820.095   -750.03749    472.99302    78.610399    15.927275      29.9701 
   83400    235.98298   -303.00845    229018.04   -21301.293    1563.0002   -22864.293   -670.97978    474.93463    78.609814    15.925071    29.983795 
   83600    231.42519   -295.86689    229018.04   -21267.914    1532.8124   -22800.726    -697.5973    473.86625    78.609911     15.92281    29.995268 
   83800    229.90894   -276.45839    229018.04   -21295.404    1522.7697   -22818.173   -635.37702    475.24681    78.608218     15.91793    29.992282 
   84000    236.38651   -298.50116    229018.04   -21313.315     1565.673   -22878.988   -666.99053    476.27884    78.609616    15.915023     29.98347 
   84200    232.31918   -280.90407    229018.04   -21370.811    1538.7335   -22909.545   -604.86966    479.35041    78.611643    15.914553    29.971179 
   84400    235.65592   -283.14134    229018.04   -21305.683     1560.834   -22866.517   -627.89416    479.36098    78.613363    15.911266    29.975732 
   84600    232.10842   -210.10893    229018.04   -21308.646    1537.3376   -22845.984   -283.87906    480.45456    78.615888    15.910942     29.93689 
   84800    233.21294   -256.32026    229018.04   -21372.066    1544.6533    -22916.72   -490.36926    481.21483    78.616631    15.909296    29.950785 
   85000    238.34171   -351.03909    229018.04   -21308.039    1578.6229   -22886.662   -898.62997    483.10962    78.613071    15.910603    29.950881 
   85200    232.90647   -406.41056    229018.04   -21223.387    1542.6234    -22766.01   -1107.6022     485.8437    78.613245    15.910629    29.982056 
   85400    232.70146    -210.1599    229018.04   -21271.848    1541.2655   -22813.114    -351.4964    487.62381      78.6115    15.910818    29.985278 
   85600    233.68717    -506.9574    229018.04   -21281.931    1547.7942   -22829.725   -1483.6429    490.38068    78.610336    15.908901    30.024305 
   85800    235.29782   -230.43874    229018.04   -21279.475    1558.4621   -22837.937   -410.25046    489.87452    78.611139    15.905038    30.009048 
   86000    238.99571   -371.56682    229018.04   -21249.834    1582.9546   -22832.788   -938.63892    489.87748    78.612041    15.904561    29.999399 
   86200    234.57954   -219.89025    229018.04   -21312.142    1553.7047   -22865.847   -396.24355     488.9636    78.612301    15.906164     30.00083 
   86400     236.8306   -285.57042    229018.04   -21299.228    1568.6143   -22867.843    -607.2412     489.4645    78.613045    15.907062    30.017606 
   86600    233.91356   -291.01409    229018.04   -21255.152    1549.2937   -22804.446   -647.95111    489.41997    78.613956    15.909663    30.030508 
   86800    235.64785   -453.05325    229018.04   -21303.991    1560.7805   -22864.771   -1271.0095    492.32755    78.611761    15.908875    30.051346 
   87000    231.65108   -244.30826    229018.04   -21287.013    1534.3085   -22821.322    -452.9716    492.39396    78.610993    15.909209    30.033451 
   87200    233.95811   -235.38296    229018.04   -21261.796    1549.5888   -22811.385   -424.54386    493.65459    78.608928    15.910245    30.018795 
   87400    237.54918    -248.3294    229018.04   -21266.848    1573.3737   -22840.222   -454.28631    494.88048    78.605704    15.907299    30.018786 
   87600    235.68532   -373.34243    229018.04   -21236.758    1561.0287   -22797.786   -952.42899     496.0887    78.602672    15.907244    30.011654 
   87800    228.68685   -231.66929    229018.04   -21374.902    1514.6753   -22889.577   -426.53047    495.54495    78.601593    15.907738    30.035405 
   88000    236.84718   -215.85854    229018.04     -21208.3    1568.7241   -22777.024    -358.4515     496.5739    78.602207    15.908925    30.049491 
   88200     243.3221    -246.6162    229018.04   -21185.281    1611.6098   -22796.891   -485.82727    497.95006    78.600645    15.908235    30.068788 
   88400    238.78675   -353.37909    229018.04   -21222.308    1581.5706   -22803.879   -906.57798    500.03915    78.601169    15.908456    30.108039 
   88600     234.2567   -337.02198    229018.04   -21342.892    1551.5664   -22894.459   -809.70519    503.47233    78.603546    15.911998    30.117338 
   88800    230.87522   -201.38518    229018.04   -21351.708    1529.1697   -22880.877   -271.87272    503.91573    78.605767    15.914104    30.116976 
   89000    226.13584   -214.53504    229018.04   -21375.029    1497.7791   -22872.808   -333.56995    506.01473     78.60656    15.915703    30.121616 
   89200    230.71572   -266.60621    229018.04   -21318.692    1528.1132   -22846.805   -551.40576    507.33069    78.608105    15.918147    30.116047 
   89400    236.29033   -339.34561    229018.04   -21265.906    1565.0359   -22830.942   -863.91624    509.85725    78.607996    15.921326    30.093071 
   89600    231.44175    -222.1301    229018.04   -21376.543     1532.922   -22909.465   -334.43469    509.22939    78.609922    15.921124    30.111792 
   89800    230.89434   -382.90956    229018.04   -21299.705    1529.2963   -22829.001   -974.64207    510.67665    78.611773    15.921868    30.079446 
   90000    236.04756   -261.16177    229018.04   -21216.109     1563.428   -22779.537   -537.09675    510.81338    78.611886    15.923923    30.076152 
   90200    230.55724   -191.36618    229018.04   -21244.233    1527.0636   -22771.296   -283.30014     507.3014    78.611833    15.922425    30.046129 
   90400    235.06743   -187.59662    229018.04   -21298.138    1556.9362   -22855.074   -238.83074    507.66376    78.613664    15.923027    30.055982 
   90600    232.96661   -328.29204    229018.04   -21296.289    1543.0217   -22839.311   -787.68775    508.46607    78.616172     15.92352    30.060732 
   90800    238.81145   -278.92521    229018.04   -21180.865    1581.7342   -22762.599    -572.5504    509.16778    78.615909    15.923172    30.058182 
   91000    233.70347   -387.01805    229018.04   -21281.523    1547.9022   -22829.425   -986.40465    511.00418    78.614184    15.924032    30.051581 
   91200     234.7761   -349.44993    229018.04   -21309.935    1555.0066   -22864.942   -863.04401    513.33749     78.61419    15.925611    30.076639 
   91400    237.04721   -304.59135    229018.04   -21292.248     1570.049   -22862.297   -681.06681    513.19819    78.614735    15.928483    30.087109 
   91600    234.12141   -498.75132    229018.04   -21270.113    1550.6704   -22820.783   -1451.4697    515.56249     78.61644    15.926847    30.074009 
   91800     232.1595    -247.8333    229018.04   -21247.747    1537.6759   -22785.423   -441.85312    517.28607     78.61737    15.928307    30.060793 
   92000    234.99091   -291.56692    229018.04   -21245.474    1556.4293   -22801.904   -645.64903    517.47333    78.616883     15.92747    30.055698 
   92200    238.42586   -347.27023    229018.04   -21265.106    1579.1803   -22844.286   -884.24331    515.80879    78.616334    15.929251    30.054291 
   92400    239.63573   -366.03953    229018.04   -21227.237    1587.1937    -22814.43   -953.45959    518.88243    78.614842    15.929252    30.048149 
   92600    233.92623    -300.2612    229018.04   -21209.812    1549.3776   -22759.189   -696.54904    518.62711      78.6145    15.929881    30.060444 
   92800    229.28349   -350.73588    229018.04   -21272.196    1518.6271   -22790.823   -874.80695    518.97604    78.614988    15.930553    30.081302 
   93000    232.51948   -350.42114    229018.04   -21331.155    1540.0602   -22871.215    -906.6672    520.48872    78.614096    15.932971    30.093988 
   93200     235.3436   -304.70597    229018.04    -21242.91    1558.7654   -22801.676   -700.90944    521.80695    78.614393    15.933312    30.098412 
   93400     227.8996   -291.84231    229018.04   -21307.542    1509.4611   -22817.003   -622.25968    526.30837    78.613399     15.93196    30.081654 
   93600    230.24579   -318.66856    229018.04   -21282.349    1525.0008    -22807.35    -728.4388    525.76893    78.615298    15.931668    30.089958 
   93800    237.52522   -371.82452    229018.04    -21197.29     1573.215   -22770.505   -977.96147    523.26356    78.613547    15.930742    30.085203 
   94000    234.72335   -387.56332    229018.04    -21214.77    1554.6572   -22769.427    -1007.316    524.17114    78.614659    15.928673    30.083392 
   94200    231.36688   -234.48547    229018.04   -21228.263    1532.4261   -22760.689   -431.66926    523.77861    78.616791    15.928637    30.086522 
   94400    240.34416   -341.36884    229018.04   -21161.676    1591.8859   -22753.562   -834.25044    523.79516    78.614502    15.928312    30.080007 
   94600    231.32009   -401.96029    229018.04       -21233    1532.1162   -22765.116   -1085.5243    523.59719     78.61449    15.928425    30.074951 
   94800    231.86364   -357.70557    229018.04   -21171.787    1535.7164   -22707.504    -911.4023    525.76227    78.614661    15.929755    30.054326 
   95000     235.9097   -453.85045    229018.04    -21163.53    1562.5149   -22726.045   -1296.9239    528.93529    78.614787    15.930282    30.070033 
   95200    225.39416   -209.72735    229018.04    -21251.91    1492.8666   -22744.777   -393.76214    528.35776    78.614549    15.932635    30.059929 
   95400    233.82077   -292.52834    229018.04   -21273.123    1548.6791   -22821.802   -653.63239    530.47298    78.615645    15.933893    30.060566 
   95600    228.22815   -266.28059    229018.04   -21274.455    1511.6372   -22786.092   -565.90993    533.55825    78.616715    15.932711    30.066361 
   95800    235.27458   -273.59093    229018.04   -21246.923    1558.3082   -22805.231   -619.72443    535.35411    78.617455    15.931549    30.055876 
   96000    229.43455   -214.86481    229018.04     -21276.4    1519.6276   -22796.027   -352.11024    538.09132    78.617431    15.931105    30.055549 
   96200    226.33758    -289.7087    229018.04   -21325.176    1499.1152   -22824.291   -694.22315    539.43175    78.615083    15.931122    30.050097 
   96400    239.31867   -289.20568    229018.04    -21236.29    1585.0937   -22821.384   -628.27821    539.52677    78.614461    15.931119    30.032089 
   96600    233.61952   -254.29459    229018.04   -21321.465    1547.3462   -22868.811   -542.16574    538.42689    78.614277    15.932622    30.037027 
   96800    231.41249   -232.20175    229018.04   -21283.907    1532.7282   -22816.635   -404.40427     536.9937    78.615647    15.934142    30.047581 
   97000    231.82126   -411.83434    229018.04   -21285.714    1535.4357    -22821.15   -1110.9646    539.70528    78.616804    15.932581    30.026981 
   97200     233.0071   -369.19658    229018.04   -21258.501    1543.2899   -22801.791   -977.52162    540.57625    78.617142    15.929692    30.018996 
   97400    237.17063   -348.59974    229018.04   -21254.815    1570.8665   -22825.681   -922.80235     542.4554     78.61658     15.92968    30.033467 
   97600    231.67022   -271.95087    229018.04   -21291.944    1534.4352   -22826.379    -603.2825    539.85212    78.616358    15.930768    30.044811 
   97800    231.40482   -254.01541    229018.04   -21374.814    1532.6774   -22907.492   -501.47812    536.62276    78.615296    15.930132    30.041781 
   98000    226.16169   -429.58384    229018.04   -21442.082    1497.9502   -22940.032   -1195.5409    539.80027    78.614328    15.926672    30.048657 
   98200    226.56478   -284.46363    229018.04   -21420.324    1500.6201   -22920.944   -624.82175    539.50942    78.612029    15.928616    30.057588 
   98400    232.40647   -279.16343    229018.04   -21334.869    1539.3117   -22874.181   -609.87835    539.15802    78.612958    15.928292     30.05312 
   98600    236.16511   -435.10857    229018.04   -21319.468    1564.2065   -22883.675   -1187.2461    537.84446    78.613404    15.930518    30.078739 
   98800    240.68178   -293.79021    229018.04   -21187.035     1594.122   -22781.157   -644.79586    539.66792    78.614665    15.930847    30.062286 
   99000     238.9147   -235.80649    229018.04   -21182.753    1582.4181   -22765.171   -458.27273    540.97612    78.614791    15.929109    30.058701 
   99200    239.03468   -292.32966    229018.04   -21248.992    1583.2127   -22832.204   -658.61551     543.2125    78.613149    15.924818    30.045156 
   99400    235.20121   -218.77792    229018.04   -21293.055    1557.8223   -22850.878   -362.30717    543.19112    78.614462     15.92259    30.038378 
   99600    230.61858   -277.82281    229018.04   -21219.243    1527.4699   -22746.712   -610.79124     545.2262    78.613077    15.921648    30.035922 
   99800    240.63711   -284.59814    229018.04   -21178.117    1593.8262   -22771.943   -611.04498    547.34698    78.611696    15.920955    30.027015 
  100000    232.31965    -287.7943    229018.04   -21218.597    1538.7367   -22757.334   -654.93391     547.8819    78.611797     15.92197    30.046154 
  100200    238.27992    -353.1025    229018.04    -21138.51    1578.2137   -22716.723   -870.14091    549.89023     78.61002    15.925412    30.052894 
  100400    241.43712   -306.74626    229018.04    -21158.91    1599.1249   -22758.035    -721.9247    550.09886     78.60909    15.925628    30.071085 
  100600    232.69714   -273.77605    229018.04   -21193.933    1541.2369    -22735.17    -566.5171    550.04057    78.610293    15.925733    30.054161 
  100800    240.80646   -337.98538    229018.04   -21118.969    1594.9479   -22713.916   -831.42319    550.50388    78.606665    15.928264    30.035648 
[...]
 3975800     228.6262   -392.56342    229018.04    -23385.37    1514.2736   -24899.644   -1070.4238    2553.1905    77.849288    15.682136     29.46352 
 3976000     220.2923    -273.6442    229018.04   -23417.869    1459.0752   -24876.944   -619.31214    2550.1529    77.849368    15.681463    29.462871 
 3976200    222.20238   -279.41195    229018.04   -23379.781    1471.7264   -24851.507   -622.01961    2550.7083     77.84644    15.679705    29.473545 
 3976400    225.41353   -379.09301    229018.04   -23383.609     1492.995   -24876.604   -1024.6387    2554.0469    77.846526    15.682565    29.464896 
 3976600    230.60894   -323.26643    229018.04   -23318.757     1527.406   -24846.163   -807.69283    2550.0239     77.84611    15.683274    29.461319 
 3976800    231.26933   -303.08393    229018.04    -23320.91      1531.78    -24852.69   -723.08788    2548.9832    77.844831    15.683131    29.462642 
 3977000    227.84477   -417.51117    229018.04   -23352.845    1509.0979   -24861.943   -1173.6591    2553.0426     77.84371    15.685169    29.471316 
 3977200    225.19753   -362.97588    229018.04   -23309.497    1491.5643   -24801.061   -1002.8606    2551.6615    77.844094    15.686717    29.475385 
 3977400    225.23472   -373.31823    229018.04   -23341.025    1491.8106   -24832.836   -986.68847    2550.3843    77.844512    15.685365    29.477015 
 3977600    217.74831    -432.9698    229018.04   -23409.963    1442.2255   -24852.188   -1235.2805    2552.3852    77.844632    15.685499    29.475404 
 3977800    216.45233   -377.81824    229018.04   -23373.476    1433.6417   -24807.118   -1003.9312    2552.5558    77.843921    15.686432    29.470533 
 3978000    224.24239   -369.80309    229018.04   -23378.034     1485.238   -24863.272   -974.69194    2550.8365    77.843914    15.686292    29.475796 
 3978200    227.19847   -401.38862    229018.04   -23318.237    1504.8173   -24823.054    -1102.239     2552.912    77.844484    15.686246    29.457386 
 3978400     228.2181   -461.10003    229018.04   -23372.491    1511.5706   -24884.062   -1329.8436    2553.9048    77.842913    15.686398    29.459699 
 3978600    225.59719   -282.07742    229018.04   -23425.226    1494.2114   -24919.437   -637.78212    2549.1283     77.84216    15.687154    29.453314 
 3978800    225.37335   -366.76053    229018.04   -23381.314    1492.7288   -24874.042   -967.68284    2551.3615    77.841617    15.686484     29.45373 
 3979000    232.76401   -417.39546    229018.04   -23270.713    1541.6798   -24812.393   -1166.5778    2553.2248    77.841638    15.687391    29.458467 
 3979200    226.59576   -287.63066    229018.04   -23335.334    1500.8253   -24836.159   -688.18018    2549.7628    77.840216     15.68691    29.456663 
 3979400    218.93449   -427.36167    229018.04   -23408.399     1450.082   -24858.481   -1191.4037    2552.1548    77.841239    15.685956    29.444726 
 3979600    226.75409   -490.07974    229018.04   -23387.937     1501.874   -24889.811   -1424.5203    2553.0751    77.840229    15.687721     29.45285 
 3979800    226.79426   -216.01949    229018.04    -23329.97      1502.14    -24832.11   -391.37598     2547.777    77.839851    15.687948    29.453187 
 3980000    221.83873   -503.80973    229018.04   -23433.462    1469.3178    -24902.78   -1509.1139    2553.9813    77.839742    15.688778    29.435078 
 3980200    226.74512   -462.30241    229018.04   -23431.034    1501.8145   -24932.848   -1326.6045    2552.9779    77.840015    15.690458    29.448763 
 3980400    218.64863     -267.574    229018.04   -23399.724    1448.1886   -24847.912    -563.2181    2547.8144    77.840019    15.690505    29.450153 
 3980600    221.70855   -371.80911    229018.04   -23423.839    1468.4555   -24892.295   -984.81977     2551.248     77.84024     15.68979    29.446942 
 3980800    219.24437   -458.26721    229018.04   -23427.602    1452.1344   -24879.737    -1359.348    2553.5568    77.840996     15.69273    29.452569 
 3981000     226.9809   -258.22359    229018.04   -23342.173    1503.3762   -24845.549   -527.49525    2548.8027    77.841745    15.693309    29.466278 
 3981200     221.3973   -411.78497    229018.04   -23389.065     1466.394   -24855.459   -1123.0141      2549.92    77.842416     15.69425    29.475529 
 3981400    223.78728   -411.96495    229018.04   -23372.713    1482.2237   -24854.937    -1125.387    2552.3471    77.843478    15.695475    29.473318 
 3981600    230.60268   -308.94997    229018.04    -23334.86    1527.3646   -24862.225   -753.37729    2549.5549    77.845041    15.699406    29.485178 
 3981800    222.56657   -361.82625    229018.04   -23405.844    1474.1385   -24879.982   -927.46802    2549.6186    77.847291    15.699292    29.487559 
 3982000    224.20172   -389.61854    229018.04   -23376.104    1484.9687   -24861.072   -1048.6134    2551.4439    77.848259    15.699977    29.470602 
 3982200    224.90824   -423.12897    229018.04   -23346.706    1489.6482   -24836.354   -1165.5792    2552.3637    77.849448    15.700976    29.471161 
 3982400    228.00323   -254.05862    229018.04   -23363.179    1510.1475   -24873.327   -550.12545    2548.4704     77.84946    15.700157    29.477102 
 3982600    228.55671   -398.34244    229018.04   -23362.287    1513.8133     -24876.1   -1086.3515    2551.3901    77.851293    15.698754    29.469998 
 3982800    222.61536   -450.36246    229018.04   -23358.718    1474.4616    -24833.18   -1289.9609    2553.8682    77.851643    15.699008     29.46252 
 3983000    224.40555   -254.71572    229018.04    -23429.34    1486.3187   -24915.659   -557.92603    2549.2723    77.853678    15.697988    29.459042 
 3983200    222.45227   -337.65969    229018.04   -23390.687    1473.3815   -24864.068   -846.31495    2550.8685    77.854371    15.697639    29.464502 
 3983400    221.63994   -421.31381    229018.04   -23388.431    1468.0011   -24856.432   -1175.3497    2553.4624    77.855842    15.696494    29.461143 
 3983600     231.1411   -385.22393    229018.04   -23332.126    1530.9307   -24863.057   -1048.1848    2552.6989    77.855539    15.697773    29.461994 
 3983800    215.38868   -299.54126    229018.04    -23446.83    1426.5967   -24873.427   -677.39222    2548.2755    77.855685    15.697457    29.462029 
 3984000    221.68214   -491.11216    229018.04   -23364.433    1468.2806   -24832.714   -1458.8619    2553.4884     77.85756      15.6973    29.456023 
 3984200    225.38886    -426.1801    229018.04   -23420.233    1492.8315   -24913.064   -1218.6589      2552.45    77.859614    15.698621    29.450792 
 3984400    221.61136   -340.68374    229018.04    -23433.61    1467.8118   -24901.422   -870.89918    2549.7008     77.85899    15.697809    29.455814 
 3984600    225.38313    -397.7001    229018.04    -23387.85    1492.7936   -24880.644   -1070.5674    2552.1589     77.86066    15.696729    29.450312 
 3984800    222.43588   -420.18675    229018.04    -23411.77    1473.2729   -24885.043   -1150.0933     2552.699    77.861067    15.697363    29.448206 
 3985000     226.1908   -332.52789    229018.04   -23369.117    1498.1431    -24867.26   -814.86332    2549.0948    77.862761    15.697915    29.437829 
 3985200    227.14325   -392.08107    229018.04    -23358.35    1504.4515   -24862.802    -1022.857    2550.4384    77.864421    15.696708    29.452469 
 3985400    224.04738   -440.61619    229018.04    -23374.92    1483.9464   -24858.866   -1281.2308    2555.1943    77.864869    15.696415    29.452473 
 3985600    225.96524   -231.58895    229018.04   -23350.026    1496.6491   -24846.675   -435.57412    2548.2573     77.86445    15.696138    29.451166 
 3985800    222.66836   -381.58448    229018.04   -23405.072    1474.8127   -24879.885   -997.81704    2550.0832    77.865421    15.696992    29.455295 
 3986000    229.99871   -447.16806    229018.04   -23343.347    1523.3643   -24866.711    -1297.931     2555.043    77.865141    15.698111       29.454 
 3986200    229.23313   -242.35658    229018.04     -23371.9    1518.2935   -24890.193   -505.44548    2548.2555    77.867155    15.700529     29.45041 
 3986400     223.9021   -417.10621    229018.04   -23445.186    1482.9842    -24928.17   -1160.0251    2550.0672    77.865289    15.699512    29.441974 
 3986600    218.21849   -425.49019    229018.04   -23430.155    1445.3396   -24875.494   -1181.0059    2554.5287    77.866044    15.700308    29.439443 
 3986800    223.91344   -282.25576    229018.04   -23332.998    1483.0593   -24816.057   -649.04397    2548.6647     77.86631    15.699928    29.448043 
 3987000    226.39774   -408.76829    229018.04   -23325.563    1499.5137   -24825.076   -1113.5521    2549.7907    77.866872    15.700192    29.440732 
 3987200    223.75448   -412.03551    229018.04   -23355.458    1482.0065   -24837.465   -1152.4723    2554.0916    77.868454    15.701114    29.461302 
 3987400    225.87803   -343.05766    229018.04   -23357.324    1496.0715   -24853.396   -833.62302    2549.7858     77.86743    15.702504    29.460516 
 3987600    223.14381   -338.75376    229018.04   -23415.021    1477.9618   -24892.983   -826.29015    2549.7653    77.869127    15.701806    29.446017 
 3987800    225.56677   -358.48377    229018.04   -23399.002    1494.0099   -24893.012   -931.51545    2553.2477    77.868969    15.700865    29.450483 
 3988000    226.78266   -446.42466    229018.04   -23370.926    1502.0632   -24872.989   -1264.2837    2552.5868    77.868848    15.702163    29.452576 
 3988200    226.37247   -282.87712    229018.04    -23348.99    1499.3464   -24848.336   -598.76995    2548.5508    77.870706    15.702072    29.448469 
 3988400     227.0023   -348.36166    229018.04   -23330.502    1503.5179    -24834.02   -882.53401     2552.101    77.871846    15.703348     29.45626 
 3988600    225.40844   -435.14572    229018.04   -23361.259    1492.9612    -24854.22   -1219.6037     2554.472    77.873856    15.705623    29.457327 
 3988800    219.20095   -377.93418    229018.04   -23440.967    1451.8468   -24892.813   -1015.6406    2550.0894    77.875296    15.704119    29.447894 
 3989000    222.09111   -361.56885    229018.04   -23410.015    1470.9894   -24881.004   -929.63654    2552.8375    77.876284    15.703416    29.457294 
 3989200    229.59533   -386.03141    229018.04   -23338.464    1520.6925   -24859.157   -1015.0386    2552.8362    77.876955     15.70547    29.457792 
 3989400    229.10546   -294.11138    229018.04   -23347.673    1517.4479   -24865.121     -702.382    2548.7935    77.878264    15.705803    29.451758 
 3989600    222.51882   -397.86863    229018.04   -23404.648    1473.8222    -24878.47   -1082.2355    2551.4962    77.879082    15.705704    29.439162 
 3989800    226.15184   -473.57442    229018.04   -23372.197    1497.8851   -24870.082   -1367.9853    2555.1204    77.878889    15.707377    29.444434 
 3990000    231.01075   -262.65176    229018.04   -23342.253    1530.0673    -24872.32   -548.79046    2547.7834    77.880086    15.706531    29.445303 
 3990200    218.08485   -404.19449    229018.04   -23376.034    1444.4544   -24820.489   -1090.0316    2553.1373    77.879991     15.70546    29.448021 
 3990400    228.55476    -429.7551    229018.04   -23361.873    1513.8005   -24875.673   -1235.7523    2553.9354    77.880011    15.704477    29.457469 
 3990600    223.41436   -338.47427    229018.04   -23384.227    1479.7537   -24863.981   -837.99263    2547.5403    77.880584    15.704547    29.456129 
 3990800      232.354   -412.94503    229018.04   -23300.262    1538.9642   -24839.226   -1148.5334    2552.1367    77.881687    15.704165    29.456453 
 3991000    230.23345   -401.76811    229018.04   -23308.017     1524.919   -24832.936   -1080.1904    2553.6668    77.882897    15.705276    29.461182 
 3991200    224.09795   -352.59031    229018.04   -23364.176    1484.2814   -24848.457   -901.62563    2548.1263    77.883988    15.706112    29.456739 
 3991400    225.13398   -438.11486    229018.04   -23398.855    1491.1434   -24889.999   -1258.1129    2551.3306    77.884704    15.706876    29.460433 
 3991600     225.7612   -327.38958    229018.04   -23362.356    1495.2977   -24857.653   -829.12563    2554.0225    77.885805    15.710739    29.446526 
 3991800    230.86269   -379.02383    229018.04   -23304.436    1529.0867   -24833.523   -1002.8684    2550.4422    77.884533    15.712773    29.437885 
 3992000    228.09562   -377.08374    229018.04   -23338.209    1510.7594   -24848.968   -1037.0907    2551.1004    77.884928    15.712382    29.448808 
 3992200    223.97361   -402.79544    229018.04   -23379.459    1483.4579   -24862.917   -1087.0872    2553.7097    77.882869    15.713043    29.458253 
 3992400    222.25835   -432.27396    229018.04   -23390.094     1472.097   -24862.191   -1239.6282    2550.2748    77.885713    15.713555    29.457253 
 3992600    225.28391   -359.89762    229018.04   -23333.161    1492.1364   -24825.297   -939.16663    2549.9248    77.889133    15.712644    29.464248 
 3992800    227.23118   -365.83096    229018.04   -23316.727    1505.0339   -24821.761   -958.03155    2553.4599    77.888437    15.714111    29.455771 
 3993000    228.88272   -374.99596    229018.04   -23304.717    1515.9726   -24820.689   -1011.9813    2550.6165    77.888959    15.713078    29.463871 
 3993200    226.97922   -382.46247    229018.04   -23309.052    1503.3651   -24812.417   -1051.1635    2549.7771     77.88925    15.711272    29.472081 
 3993400     230.0103   -419.57145    229018.04   -23341.851     1523.441   -24865.292   -1146.1543    2552.8834    77.888742    15.711147    29.461258 
 3993600    224.19862   -421.53224    229018.04   -23390.102    1484.9482    -24875.05   -1209.2972    2549.5579    77.888681    15.711401    29.464668 
 3993800    222.31551   -393.79304    229018.04   -23421.882    1472.4756   -24894.358   -1080.1998    2547.5324    77.887217    15.709894    29.463019 
 3994000    220.54899   -377.31411    229018.04   -23426.909    1460.7754   -24887.684   -1016.9174     2552.964    77.887801    15.707692    29.456634 
 3994200    226.20519    -455.7303    229018.04   -23352.879    1498.2384   -24851.117   -1353.0129    2552.3104    77.889217    15.708929    29.459764 
 3994400    223.43465   -309.90034    229018.04   -23365.825    1479.8881   -24845.713   -729.86684    2546.4356    77.889719    15.707335    29.456838 
 3994600    229.40357   -325.68652    229018.04   -23337.354    1519.4224   -24856.777   -825.65642    2552.9811    77.889211    15.708239    29.461606 
 3994800    222.99751   -474.94364    229018.04   -23341.832    1476.9928   -24818.825   -1422.4599    2553.6541    77.888756    15.710849    29.457164 
 3995000       230.42   -238.00883    229018.04   -23386.274    1526.1546   -24912.428   -450.15046    2546.2909    77.890206    15.710106    29.457402 
 3995200    221.96418   -342.57451    229018.04    -23402.75    1470.1486   -24872.899   -888.81138    2552.4728     77.88843    15.710289    29.462958 
 3995400    225.33032   -445.70914    229018.04   -23354.755    1492.4438   -24847.198   -1265.1735    2554.4458    77.887717    15.711305    29.468611 
 3995600    227.81955   -331.61346    229018.04   -23350.004    1508.9309   -24858.934    -858.4241      2547.88    77.886744    15.712539    29.460627 
 3995800    221.64817   -386.98089    229018.04   -23415.547    1468.0556   -24883.602   -1033.7008    2552.2387    77.887324    15.713558    29.453884 
 3996000    222.21866   -478.40459    229018.04   -23380.174    1471.8342   -24852.008   -1415.6841     2555.451    77.886723    15.715553      29.4449 
 3996200    226.53708   -265.38981    229018.04   -23362.593    1500.4366    -24863.03   -551.62616    2549.0949    77.885832    15.715769    29.444107 
 3996400    220.38508   -346.10378    229018.04   -23404.244    1459.6897   -24863.933   -868.65517     2550.793     77.88546     15.71507    29.453488 
 3996600    219.36522   -465.46938    229018.04   -23426.813    1452.9348   -24879.748   -1349.9338    2556.7152    77.884651    15.715509    29.463277 
 3996800    223.85552   -333.73219    229018.04   -23382.606    1482.6757   -24865.282   -832.69045    2550.2431    77.886419    15.717025    29.471415 
 3997000    222.85876   -397.13139    229018.04   -23345.293    1476.0738   -24821.366   -1086.5434    2551.4818    77.888468    15.714322    29.471258 
 3997200    222.45535   -460.78972    229018.04   -23408.469    1473.4019   -24881.871   -1304.9968    2556.2992     77.88917    15.715237    29.462499 
 3997400    227.82115   -356.23423    229018.04    -23394.33    1508.9414   -24903.271   -948.55644     2552.479    77.889692    15.716768    29.459278 
 3997600    224.68042   -384.54785    229018.04   -23393.157    1488.1393   -24881.297   -1056.8492    2551.3329    77.889901    15.715122    29.462793 
 3997800    231.64132   -459.29918    229018.04   -23365.103    1534.2438   -24899.346   -1300.9884    2557.2586    77.889021    15.713934    29.455748 
 3998000    224.10734   -322.79873    229018.04    -23382.53    1484.3436   -24866.873   -809.41404    2552.7942      77.8902    15.714326    29.465958 
 3998200    223.03691   -329.56903    229018.04   -23326.811    1477.2537   -24804.065   -844.78146    2550.6508    77.891869    15.713362     29.47146 
 3998400    221.69923   -481.03127    229018.04   -23382.477    1468.3938   -24850.871   -1415.9579    2554.0203    77.891596    15.711781    29.471019 
 3998600    224.62175   -309.57227    229018.04   -23379.321    1487.7507   -24867.071   -754.35766    2555.2135    77.891705    15.709468    29.476001 
 3998800    224.35764   -307.70096    229018.04   -23371.556    1486.0014   -24857.557   -727.33462    2551.8679    77.890762    15.711106    29.471686 
 3999000    224.07437   -396.33551    229018.04   -23385.901    1484.1252   -24870.026   -1054.7858    2553.1797    77.890237    15.711762    29.457461 
 3999200    227.03568   -466.23668    229018.04   -23370.474     1503.739   -24874.213   -1349.5011    2554.6903    77.888559     15.71067    29.443755 
 3999400     223.6986   -289.31478    229018.04   -23364.246    1481.6363   -24845.882   -663.40285    2551.9053    77.888651    15.711608    29.450879 
 3999600    220.64227   -396.34555    229018.04   -23385.686    1461.3932   -24847.079   -1102.5953     2553.376    77.888477     15.71103    29.452793 
 3999800    221.99238   -306.12614    229018.04   -23373.165    1470.3355   -24843.501   -715.02992    2553.6539    77.887744    15.710609    29.457059 
 4000000    224.26888   -199.78213    229018.04   -23363.347    1485.4135    -24848.76   -312.81942    2551.3699    77.886255    15.710665    29.447452 
Loop time of 25191.3 on 60 procs for 4000000 steps with 8943 atoms

Performance: 137.190 ns/day, 0.175 hours/ns, 158.785 timesteps/s
90.2% CPU use with 60 MPI tasks x no OpenMP threads

MPI task timing breakdown:
Section |  min time  |  avg time  |  max time  |%varavg| %total
---------------------------------------------------------------
Pair    | 0.27681    | 2866.2     | 10524      |7036.0 | 11.38
Neigh   | 2.1016     | 182.24     | 538.4      |1430.9 |  0.72
Comm    | 92.171     | 5768.6     | 20020      |7263.3 | 22.90
Output  | 258.71     | 258.99     | 260.59     |   1.8 |  1.03
Modify  | 2326.1     | 15600      | 24487      |6061.5 | 61.93
Other   |            | 514.8      |            |       |  2.04

Nlocal:    149.05 ave 375 max 0 min
Histogram: 24 0 2 14 0 0 0 0 4 16
Nghost:    817.85 ave 1257 max 360 min
Histogram: 8 4 0 0 21 7 4 3 5 8
Neighs:    0 ave 0 max 0 min
Histogram: 60 0 0 0 0 0 0 0 0 0
FullNghs:  14903 ave 45058 max 0 min
Histogram: 27 13 0 0 0 0 0 2 10 8

Total # of neighbors = 894178
Ave neighs/atom = 99.9864
Neighbor list builds = 408991
Dangerous builds = 0
write_data 		${DIR}/data.${NAME}_run
write_data 		run_4/data.${NAME}_run
write_data 		run_4/data.ibeam_cooling_4_run
Total wall time: 7:00:53
