

### IMPORT ATOMS ###
read_data ../Box_Setup/data.Ibeam_240K
  orthogonal box = (0 0 0) to (157.504 42.9242 26.8557)
  8 by 4 by 2 MPI processor grid
  reading atoms ...
  9253 atoms
  reading velocities ...
  9253 velocities
group water type 2
1381 atoms in group water
group graphite type 1
7872 atoms in group graphite


# Define potential
#
pair_style          sw
pair_coeff * * MLC_e.sw C mW

# Add velocity/set timestep
#

fix		1 graphite setforce 0.0 0.0 0.0
velocity 	graphite set 0.0 0.0 0.0
velocity            water create ${START_TEMP} ${SEED} rot yes dist gaussian
velocity            water create 240 ${SEED} rot yes dist gaussian
velocity            water create 240 28632 rot yes dist gaussian
timestep            5.0

# Define output
#
compute 1 water msd
compute 2 water temp


thermo	            100
thermo_style custom step c_2 press vol etotal ke pe c_1[4] density

# Neighbor lists
#
neigh_modify        delay 0 every 1 check yes


# Set fixes
#
fix                 2 water momentum 10 linear 1 1 1 rescale
fix                 3 all nve
fix                 4 water temp/csvr ${START_TEMP} ${START_TEMP} 500.0 928347
fix                 4 water temp/csvr 240 ${START_TEMP} 500.0 928347
fix                 4 water temp/csvr 240 240 500.0 928347

# Run 0.05 ns equilibration
#
dump                1 all custom 100 ${DIR}/eq.${NAME}.dump id type x y z vx vy vz
dump                1 all custom 100 run_19/eq.${NAME}.dump id type x y z vx vy vz
dump                1 all custom 100 run_19/eq.ibeam_cooling_19.dump id type x y z vx vy vz
run                 10000
Neighbor list info ...
  update every 1 steps, delay 0 steps, check yes
  max neighbors/atom: 2000, page size: 100000
  master list distance cutoff = 6.67472
  ghost atom cutoff = 6.67472
  binsize = 3.33736, bins = 48 13 9
  1 neighbor lists, perpetual/occasional/extra = 1 0 0
  (1) pair sw, perpetual
      attributes: full, newton on
      pair build: full/bin/atomonly
      stencil: full/bin/3d
      bin: standard
Per MPI rank memory allocation (min/avg/max) = 3.396 | 4.325 | 4.765 Mbytes
Step c_2 Press Volume TotEng KinEng PotEng c_1[4] Density 
       0          240   -344.39513    181563.75    -13284.54    987.24429   -14271.784            0    1.0922001 
     100     254.6255   -48.530646    181563.75   -13253.699    1047.4065   -14301.106   0.85512078    1.0922001 
     200    246.74496   -187.99963    181563.75   -13300.813    1014.9898   -14315.803    1.4722536    1.0922001 
     300    244.92989   -263.33867    181563.75   -13288.618    1007.5235   -14296.142    1.9259124    1.0922001 
     400    237.67526   -296.04865    181563.75   -13297.495    977.68142   -14275.176    2.2821099    1.0922001 
     500    235.12499   -515.72203    181563.75   -13291.899    967.19083    -14259.09     2.698078    1.0922001 
     600    224.28824   -469.36014    181563.75   -13356.249    922.61368   -14278.863    3.0566992    1.0922001 
     700    234.69097    -205.9343    181563.75   -13337.021     965.4055   -14302.427     3.379572    1.0922001 
     800    224.38147    -129.2509    181563.75   -13357.674    922.99717   -14280.672    3.7807733    1.0922001 
     900    235.83381   -357.02895    181563.75   -13324.588    970.10658   -14294.695     4.217377    1.0922001 
    1000    237.55814   -435.71571    181563.75   -13277.204    977.19966   -14254.404    4.7051477    1.0922001 
    1100    240.70502   -498.75908    181563.75   -13297.713    990.14439   -14287.857    5.2638838    1.0922001 
    1200    232.57723   -415.72817    181563.75   -13342.922     956.7106   -14299.633    5.6606098    1.0922001 
    1300    244.64871   -303.43029    181563.75   -13305.568    1006.3668   -14311.935    5.7726632    1.0922001 
    1400    245.27391   -331.39182    181563.75   -13260.657    1008.9386   -14269.595     6.129796    1.0922001 
    1500    244.69284   -425.02472    181563.75   -13280.355    1006.5484   -14286.903    6.4098664    1.0922001 
    1600    244.81195   -354.39764    181563.75   -13264.028    1007.0383   -14271.067    6.7181805    1.0922001 
    1700    241.17393   -235.72122    181563.75   -13294.456    992.07328   -14286.529    6.9178706    1.0922001 
    1800     237.1299   -354.57051    181563.75   -13303.995    975.43807   -14279.433    7.0961943    1.0922001 
    1900    252.14927   -183.72973    181563.75   -13246.159    1037.2205    -14283.38    7.4766493    1.0922001 
    2000     249.2599   -281.86793    181563.75   -13220.369     1025.335   -14245.704    7.9989766    1.0922001 
    2100    247.19987   -311.09972    181563.75   -13229.037    1016.8611   -14245.898    8.3807986    1.0922001 
    2200    244.38154   -451.48627    181563.75   -13221.798    1005.2678   -14227.065    8.9303848    1.0922001 
    2300    241.23407   -420.56986    181563.75   -13263.961    992.32064   -14256.282    9.2962589    1.0922001 
    2400    241.78376   -388.10002    181563.75   -13277.722    994.58182   -14272.304    9.7381021    1.0922001 
    2500    243.14324   -144.35193    181563.75   -13275.581    1000.1741   -14275.755    10.212649    1.0922001 
    2600    234.04696    -332.5341    181563.75   -13308.727    962.75636   -14271.483    10.418227    1.0922001 
    2700    236.96169   -296.71064    181563.75   -13286.391    974.74613   -14261.137    10.658326    1.0922001 
    2800    245.98515   -284.47952    181563.75   -13307.998    1011.8643   -14319.862    11.235851    1.0922001 
    2900      238.013   -505.83788    181563.75   -13364.828    979.07072   -14343.898    11.856373    1.0922001 
    3000    234.94463   -367.82158    181563.75   -13390.122    966.44894   -14356.571    12.100713    1.0922001 
    3100     237.9899    -378.4544    181563.75   -13388.916    978.97572   -14367.892    12.323271    1.0922001 
    3200    230.14443   -168.76845    181563.75   -13393.119    946.70321   -14339.823    12.370005    1.0922001 
    3300    244.73527   -330.57516    181563.75   -13341.758    1006.7229   -14348.481    12.595934    1.0922001 
    3400    235.25736   -444.54704    181563.75   -13364.833    967.73534   -14332.569    13.045125    1.0922001 
    3500    232.25246   -368.59369    181563.75   -13374.416    955.37465   -14329.791    13.150424    1.0922001 
    3600     242.8253   -399.39691    181563.75   -13359.595    998.86623   -14358.462    13.318366    1.0922001 
    3700    235.21784    -411.5492    181563.75   -13394.333    967.57277   -14361.906    13.546581    1.0922001 
    3800    238.55914   -260.82381    181563.75   -13374.438    981.31729   -14355.755    13.720611    1.0922001 
    3900    234.87414   -309.75899    181563.75   -13385.277    966.15897   -14351.436    14.250464    1.0922001 
    4000    236.20007   -485.03775    181563.75   -13385.802     971.6132   -14357.415    14.922049    1.0922001 
    4100    236.02598   -370.95751    181563.75   -13352.353    970.89707    -14323.25    15.358499    1.0922001 
    4200    240.63509   -342.37032    181563.75   -13320.705    989.85673   -14310.562    15.910574    1.0922001 
    4300    248.10916   -219.54083    181563.75   -13269.114    1020.6015   -14289.715    16.664188    1.0922001 
    4400    245.11409   -193.51103    181563.75   -13277.623    1008.2812   -14285.904    17.185725    1.0922001 
    4500    249.32021   -478.32814    181563.75   -13327.089    1025.5831   -14352.673    17.262238    1.0922001 
    4600    237.81974   -494.08022    181563.75   -13337.073    978.27575   -14315.349    17.732353    1.0922001 
    4700    237.56147     -388.544    181563.75   -13337.873    977.21335   -14315.086    17.962211    1.0922001 
    4800    242.09052   -348.33052    181563.75   -13310.786    995.84367   -14306.629    18.306028    1.0922001 
    4900    240.14263   -132.44341    181563.75   -13337.018      987.831   -14324.849    18.262169    1.0922001 
    5000    233.96258   -362.18542    181563.75   -13359.819    962.40925   -14322.228    18.432147    1.0922001 
    5100    240.78779   -258.72001    181563.75   -13372.189    990.48489   -14362.674    18.679815    1.0922001 
    5200    232.75096   -359.83274    181563.75    -13362.71    957.42525   -14320.135    19.288869    1.0922001 
    5300    234.51832   -397.87284    181563.75   -13402.444    964.69532    -14367.14    19.572291    1.0922001 
    5400    238.02067   -130.86768    181563.75    -13359.79    979.10226   -14338.892    19.504873    1.0922001 
    5500    238.25056   -291.96209    181563.75    -13392.79    980.04794   -14372.838    19.795169    1.0922001 
    5600    233.33477   -315.97074    181563.75   -13413.674    959.82673   -14373.501     20.04307    1.0922001 
    5700    239.48669   -436.76007    181563.75   -13368.969    985.13278   -14354.102    20.058534    1.0922001 
    5800    246.54584   -400.23099    181563.75   -13298.277    1014.1707   -14312.447    20.483414    1.0922001 
    5900    234.08532   -278.93838    181563.75   -13321.528    962.91413   -14284.443    20.942382    1.0922001 
    6000    233.44605   -192.68596    181563.75   -13381.833     960.2845   -14342.117    21.156556    1.0922001 
    6100    232.97112   -208.93844    181563.75   -13363.992    958.33086   -14322.322    21.450616    1.0922001 
    6200    229.55468   -306.59831    181563.75   -13331.662    944.27728   -14275.939    21.416759    1.0922001 
    6300    238.11572   -314.57298    181563.75   -13299.529    979.49326   -14279.023    21.466166    1.0922001 
    6400    247.39732    -362.1764    181563.75   -13291.603    1017.6733   -14309.276     21.90618    1.0922001 
    6500    234.81318    -452.9516    181563.75   -13309.128    965.90821   -14275.037    22.157679    1.0922001 
    6600    231.60324   -388.01961    181563.75   -13349.077    952.70407   -14301.781    22.290766    1.0922001 
    6700    230.16016    -370.7336    181563.75   -13365.325    946.76793   -14312.092    22.046216    1.0922001 
    6800    236.54524    -212.9986    181563.75   -13348.885    973.03307   -14321.918    22.576677    1.0922001 
    6900    238.30143   -283.96685    181563.75   -13390.597    980.25719   -14370.855    23.013544    1.0922001 
    7000    229.86284   -195.63861    181563.75    -13384.87    945.54489   -14330.415    23.582069    1.0922001 
    7100    242.97867   -287.46689    181563.75   -13313.588    999.49708   -14313.086    23.656679    1.0922001 
    7200    233.12789   -397.74987    181563.75   -13320.376    958.97573   -14279.352     23.90387    1.0922001 
    7300    235.80372    -507.9108    181563.75   -13371.215    969.98281   -14341.198    24.337519    1.0922001 
    7400    234.54015   -417.66418    181563.75   -13373.968    964.78508   -14338.753    24.607947    1.0922001 
    7500    233.05545   -409.73426    181563.75   -13393.116    958.67776   -14351.794      24.9697    1.0922001 
    7600    237.63357   -564.18624    181563.75    -13404.41    977.50995    -14381.92    25.577635    1.0922001 
    7700    230.08839   -492.34694    181563.75   -13394.404    946.47271   -14340.876     25.73951    1.0922001 
    7800    240.81873   -224.39887    181563.75   -13351.367    990.61215   -14341.979    25.569969    1.0922001 
    7900    233.16603   -355.82085    181563.75   -13352.258    959.13265    -14311.39    25.949033    1.0922001 
    8000    236.61547   -417.04226    181563.75   -13344.727    973.32198   -14318.049    26.286219    1.0922001 
    8100    232.07838   -320.77821    181563.75   -13345.885    954.65856   -14300.544    26.621588    1.0922001 
    8200    240.77319   -432.05982    181563.75   -13367.172    990.42482   -14357.597    26.742067    1.0922001 
    8300    229.24933   -506.34114    181563.75   -13383.981    943.02122   -14327.002    26.675804    1.0922001 
    8400    229.78092    -103.1764    181563.75   -13394.803    945.20793   -14340.011    26.938674    1.0922001 
    8500    239.56051   -253.27445    181563.75   -13380.552    985.43644   -14365.988     27.10454    1.0922001 
    8600    239.39775   -226.43329    181563.75   -13347.141    984.76692   -14331.907    27.364476    1.0922001 
    8700    231.80271   -398.58421    181563.75   -13400.344    953.52458   -14353.869    27.643794    1.0922001 
    8800    240.16069   -363.05307    181563.75   -13348.732    987.90528   -14336.638    28.413495    1.0922001 
    8900     231.5079   -315.00894    181563.75   -13364.894    952.31188   -14317.206    28.507093    1.0922001 
    9000    241.92828    -329.7051    181563.75   -13332.139    995.17631   -14327.316    28.549457    1.0922001 
    9100    248.02452    -227.3395    181563.75   -13318.493    1020.2533   -14338.747    28.927647    1.0922001 
    9200    239.49991   -382.82716    181563.75   -13352.152    985.18714   -14337.339    29.228786    1.0922001 
    9300    235.82961   -389.12337    181563.75   -13362.239     970.0893   -14332.329    29.171062    1.0922001 
    9400    230.98719   -564.64007    181563.75   -13366.547    950.16994   -14316.717    29.327578    1.0922001 
    9500    237.17326   -328.78005    181563.75    -13340.01    975.61644   -14315.627    29.434739    1.0922001 
    9600     229.9241   -426.69138    181563.75   -13393.073    945.79688   -14338.869     29.77394    1.0922001 
    9700     238.8077   -273.62106    181563.75   -13333.509    982.33975   -14315.848     30.10074    1.0922001 
    9800    233.52431   -431.64348    181563.75     -13361.7    960.60642   -14322.306    30.336126    1.0922001 
    9900    235.28253   -423.16308    181563.75   -13305.248    967.83888   -14273.087    30.861175    1.0922001 
   10000    243.46484   -229.58402    181563.75   -13255.486     1001.497   -14256.983    31.248348    1.0922001 
Loop time of 11.6918 on 64 procs for 10000 steps with 9253 atoms

Performance: 369.490 ns/day, 0.065 hours/ns, 855.301 timesteps/s
99.9% CPU use with 64 MPI tasks x no OpenMP threads

MPI task timing breakdown:
Section |  min time  |  avg time  |  max time  |%varavg| %total
---------------------------------------------------------------
Pair    | 0.001029   | 3.3859     | 9.507      | 172.7 | 28.96
Neigh   | 0.0079963  | 0.24081    | 0.55617    |  39.1 |  2.06
Comm    | 0.32502    | 2.9699     | 8.2185     | 150.4 | 25.40
Output  | 0.15845    | 0.15854    | 0.15922    |   0.0 |  1.36
Modify  | 0.25245    | 4.8192     | 11.074     | 206.8 | 41.22
Other   |            | 0.1173     |            |       |  1.00

Nlocal:    144.578 ave 293 max 0 min
Histogram: 16 8 0 8 0 0 0 3 21 8
Nghost:    963.422 ave 1345 max 657 min
Histogram: 13 3 0 20 4 0 13 3 0 8
Neighs:    0 ave 0 max 0 min
Histogram: 64 0 0 0 0 0 0 0 0 0
FullNghs:  15597.2 ave 35820 max 0 min
Histogram: 24 8 0 0 0 0 0 16 11 5

Total # of neighbors = 998218
Ave neighs/atom = 107.88
Neighbor list builds = 552
Dangerous builds = 0
write_data 	    ${DIR}/data.${NAME}_eq
write_data 	    run_19/data.${NAME}_eq
write_data 	    run_19/data.ibeam_cooling_19_eq

undump              1
unfix               4



################################################
#######         Run Simulation         #########
################################################

reset_timestep      0
timestep	    10.0
log                 ${DIR}/log.run_${NAME}
log                 run_19/log.run_${NAME}
log                 run_19/log.run_ibeam_cooling_19
