LAMMPS data file via write_data, version 29 Sep 2021, timestep = 4000000

9422 atoms
2 atom types

0 78.752 xlo xhi
0 80.86108639999017 ylo yhi
0 33.944268656624175 zlo zhi

Masses

1 12.01
2 18.015

Atoms # atomic

1 1 0 2.8417180249513345 1.677 0 0 0
3 1 0 0 1.677 0 0 0
5 1 1.2305 0.7104295062378347 1.677 0 0 0
12 1 1.2305 2.1312885187135 1.677 0 0 0
14 1 2.461 2.8417180249513345 1.677 0 0 0
16 1 2.461 0 1.677 0 0 0
18 1 3.6915 0.7104295062378347 1.677 0 0 0
33 1 3.6914999999999996 2.1312885187135 1.677 0 0 0
35 1 4.922 2.841718024951334 1.677 0 0 0
37 1 4.922 0 1.677 0 0 0
39 1 6.1525 0.7104295062378343 1.677 0 0 0
62 1 6.1525 2.1312885187134993 1.677 0 0 0
64 1 7.382999999999999 2.8417180249513345 1.677 0 0 0
66 1 7.382999999999999 0 1.677 0 0 0
68 1 8.613499999999998 0.7104295062378343 1.677 0 0 0
99 1 8.613499999999998 2.1312885187135002 1.677 0 0 0
8 1 0 4.262577037427 1.677 0 0 0
10 1 1.2305000000000001 4.973006543664834 1.677 0 0 0
25 1 1.2305 6.393865556140499 1.677 0 0 0
29 1 2.461 4.262577037427 1.677 0 0 0
31 1 3.6914999999999996 4.973006543664834 1.677 0 0 0
54 1 3.6914999999999996 6.393865556140499 1.677 0 0 0
58 1 4.922 4.262577037426999 1.677 0 0 0
60 1 6.1525 4.973006543664834 1.677 0 0 0
91 1 6.1525 6.393865556140499 1.677 0 0 0
95 1 7.382999999999999 4.262577037427 1.677 0 0 0
97 1 8.6135 4.973006543664834 1.677 0 0 0
130 1 8.6135 6.3938655561405 1.677 0 0 0
6 1 0 7.104295062378334 1.677 0 0 0
21 1 0 8.525154074854 1.677 0 0 0
23 1 1.2304999999999997 9.235583581091834 1.677 0 0 0
27 1 2.461 7.104295062378334 1.677 0 0 0
50 1 2.4609999999999994 8.525154074854 1.677 0 0 0
52 1 3.6915 9.235583581091834 1.677 0 0 0
56 1 4.922 7.104295062378334 1.677 0 0 0
87 1 4.922 8.525154074854 1.677 0 0 0
89 1 6.1525 9.235583581091834 1.677 0 0 0
93 1 7.383 7.104295062378334 1.677 0 0 0
126 1 7.383 8.525154074854 1.677 0 0 0
128 1 8.613499999999998 9.235583581091834 1.677 0 0 0
2 1 0 1.420859012475665 5.031000000000001 0 0 0
4 1 0 0 5.031000000000001 0 0 0
13 1 1.2305 2.1312885187135 5.031000000000001 0 0 0
15 1 2.461 1.420859012475665 5.031000000000001 0 0 0
17 1 2.461 0 5.031000000000001 0 0 0
34 1 3.6914999999999996 2.1312885187135 5.031000000000001 0 0 0
36 1 4.922 1.420859012475665 5.031000000000001 0 0 0
38 1 4.922 0 5.031000000000001 0 0 0
63 1 6.1525 2.1312885187134993 5.031000000000001 0 0 0
65 1 7.382999999999999 1.420859012475666 5.031000000000001 0 0 0
67 1 7.382999999999999 0 5.031000000000001 0 0 0
100 1 8.613499999999998 2.1312885187135002 5.031000000000001 0 0 0
7 1 0 5.683436049902665 5.031000000000001 0 0 0
9 1 0 4.262577037427 5.031000000000001 0 0 0
11 1 1.2305 3.552147531189165 5.031000000000001 0 0 0
26 1 1.2305 6.393865556140499 5.031000000000001 0 0 0
28 1 2.461 5.683436049902665 5.031000000000001 0 0 0
30 1 2.461 4.262577037427 5.031000000000001 0 0 0
32 1 3.6914999999999996 3.552147531189165 5.031000000000001 0 0 0
55 1 3.6914999999999996 6.393865556140499 5.031000000000001 0 0 0
57 1 4.922 5.6834360499026655 5.031000000000001 0 0 0
59 1 4.922 4.262577037426999 5.031000000000001 0 0 0
61 1 6.1525 3.5521475311891653 5.031000000000001 0 0 0
92 1 6.1525 6.393865556140499 5.031000000000001 0 0 0
94 1 7.382999999999999 5.6834360499026655 5.031000000000001 0 0 0
96 1 7.382999999999999 4.262577037427 5.031000000000001 0 0 0
98 1 8.613499999999998 3.552147531189166 5.031000000000001 0 0 0
131 1 8.6135 6.3938655561405 5.031000000000001 0 0 0
20 1 0 9.946013087329664 5.031000000000001 0 0 0
22 1 0 8.525154074854 5.031000000000001 0 0 0
24 1 1.2304999999999997 7.814724568616164 5.031000000000001 0 0 0
49 1 2.4609999999999994 9.946013087329664 5.031000000000001 0 0 0
51 1 2.4609999999999994 8.525154074854 5.031000000000001 0 0 0
53 1 3.6914999999999996 7.814724568616165 5.031000000000001 0 0 0
86 1 4.922 9.946013087329666 5.031000000000001 0 0 0
88 1 4.922 8.525154074854 5.031000000000001 0 0 0
90 1 6.1525 7.814724568616166 5.031000000000001 0 0 0
125 1 7.383 9.946013087329664 5.031000000000001 0 0 0
127 1 7.383 8.525154074854 5.031000000000001 0 0 0
129 1 8.6135 7.814724568616164 5.031000000000001 0 0 0
430 1 0 2.8417180249513345 8.385 0 0 0
431 1 0 0 8.385 0 0 0
432 1 1.2305 0.7104295062378347 8.385 0 0 0
436 1 1.2305 2.1312885187135 8.385 0 0 0
437 1 2.461 2.8417180249513345 8.385 0 0 0
438 1 2.461 0 8.385 0 0 0
439 1 3.6915 0.7104295062378347 8.385 0 0 0
447 1 3.6914999999999996 2.1312885187135 8.385 0 0 0
448 1 4.922 2.841718024951334 8.385 0 0 0
449 1 4.922 0 8.385 0 0 0
450 1 6.1525 0.7104295062378343 8.385 0 0 0
462 1 6.1525 2.1312885187134993 8.385 0 0 0
463 1 7.382999999999999 2.8417180249513345 8.385 0 0 0
464 1 7.382999999999999 0 8.385 0 0 0
465 1 8.613499999999998 0.7104295062378343 8.385 0 0 0
481 1 8.613499999999998 2.1312885187135002 8.385 0 0 0
434 1 0 4.262577037427 8.385 0 0 0
435 1 1.2305000000000001 4.973006543664834 8.385 0 0 0
443 1 1.2305 6.393865556140499 8.385 0 0 0
445 1 2.461 4.262577037427 8.385 0 0 0
446 1 3.6914999999999996 4.973006543664834 8.385 0 0 0
458 1 3.6914999999999996 6.393865556140499 8.385 0 0 0
460 1 4.922 4.262577037426999 8.385 0 0 0
461 1 6.1525 4.973006543664834 8.385 0 0 0
477 1 6.1525 6.393865556140499 8.385 0 0 0
479 1 7.382999999999999 4.262577037427 8.385 0 0 0
480 1 8.6135 4.973006543664834 8.385 0 0 0
497 1 8.6135 6.3938655561405 8.385 0 0 0
433 1 0 7.104295062378334 8.385 0 0 0
441 1 0 8.525154074854 8.385 0 0 0
442 1 1.2304999999999997 9.235583581091834 8.385 0 0 0
444 1 2.461 7.104295062378334 8.385 0 0 0
456 1 2.4609999999999994 8.525154074854 8.385 0 0 0
457 1 3.6915 9.235583581091834 8.385 0 0 0
459 1 4.922 7.104295062378334 8.385 0 0 0
475 1 4.922 8.525154074854 8.385 0 0 0
476 1 6.1525 9.235583581091834 8.385 0 0 0
478 1 7.383 7.104295062378334 8.385 0 0 0
495 1 7.383 8.525154074854 8.385 0 0 0
496 1 8.613499999999998 9.235583581091834 8.385 0 0 0
19 1 0 11.366872099805333 1.677 0 0 0
42 1 0 12.787731112280998 1.677 0 0 0
46 1 1.2304999999999997 10.656442593567498 1.677 0 0 0
48 1 2.461 11.366872099805335 1.677 0 0 0
79 1 2.461 12.787731112280998 1.677 0 0 0
83 1 3.6914999999999996 10.6564425935675 1.677 0 0 0
85 1 4.922 11.366872099805333 1.677 0 0 0
118 1 4.922 12.787731112281 1.677 0 0 0
122 1 6.1525 10.6564425935675 1.677 0 0 0
124 1 7.382999999999999 11.366872099805335 1.677 0 0 0
157 1 7.382999999999999 12.787731112280998 1.677 0 0 0
161 1 8.613499999999998 10.656442593567498 1.677 0 0 0
40 1 0 15.629449137232333 1.677 0 0 0
44 1 1.2305000000000001 13.498160618518833 1.677 0 0 0
75 1 1.2305000000000001 14.919019630994498 1.677 0 0 0
77 1 2.4610000000000003 15.629449137232331 1.677 0 0 0
81 1 3.6915 13.498160618518833 1.677 0 0 0
114 1 3.6915 14.919019630994498 1.677 0 0 0
116 1 4.921999999999999 15.629449137232333 1.677 0 0 0
120 1 6.152499999999999 13.498160618518833 1.677 0 0 0
153 1 6.152499999999999 14.919019630994498 1.677 0 0 0
155 1 7.382999999999999 15.629449137232333 1.677 0 0 0
159 1 8.6135 13.498160618518835 1.677 0 0 0
192 1 8.6135 14.919019630994498 1.677 0 0 0
69 1 0 19.892026174659332 1.677 0 0 0
71 1 0 17.050308149708 1.677 0 0 0
73 1 1.2305000000000001 17.76073765594583 1.677 0 0 0
106 1 1.2305000000000001 19.1815966684215 1.677 0 0 0
108 1 2.4609999999999994 19.892026174659332 1.677 0 0 0
110 1 2.4610000000000003 17.050308149708 1.677 0 0 0
112 1 3.6914999999999996 17.76073765594583 1.677 0 0 0
145 1 3.6914999999999996 19.1815966684215 1.677 0 0 0
149 1 4.921999999999999 17.050308149708 1.677 0 0 0
147 1 4.922 19.892026174659332 1.677 0 0 0
151 1 6.1525 17.76073765594583 1.677 0 0 0
184 1 6.1525 19.1815966684215 1.677 0 0 0
186 1 7.382999999999999 19.892026174659332 1.677 0 0 0
188 1 7.383 17.050308149708 1.677 0 0 0
190 1 8.613499999999998 17.76073765594583 1.677 0 0 0
223 1 8.6135 19.1815966684215 1.677 0 0 0
43 1 0 12.787731112280998 5.031000000000001 0 0 0
45 1 1.2304999999999997 12.077301606043164 5.031000000000001 0 0 0
47 1 1.2304999999999997 10.656442593567498 5.031000000000001 0 0 0
80 1 2.461 12.787731112280998 5.031000000000001 0 0 0
82 1 3.6914999999999996 12.077301606043164 5.031000000000001 0 0 0
84 1 3.6914999999999996 10.6564425935675 5.031000000000001 0 0 0
119 1 4.922 12.787731112281 5.031000000000001 0 0 0
121 1 6.1525 12.077301606043164 5.031000000000001 0 0 0
123 1 6.1525 10.6564425935675 5.031000000000001 0 0 0
158 1 7.382999999999999 12.787731112280998 5.031000000000001 0 0 0
160 1 8.6135 12.077301606043164 5.031000000000001 0 0 0
162 1 8.613499999999998 10.656442593567498 5.031000000000001 0 0 0
41 1 0 14.208590124756665 5.031000000000001 0 0 0
74 1 1.2305000000000001 16.339878643470165 5.031000000000001 0 0 0
76 1 1.2305000000000001 14.919019630994498 5.031000000000001 0 0 0
78 1 2.461 14.208590124756665 5.031000000000001 0 0 0
113 1 3.6915 16.339878643470165 5.031000000000001 0 0 0
115 1 3.6915 14.919019630994498 5.031000000000001 0 0 0
117 1 4.922 14.208590124756663 5.031000000000001 0 0 0
152 1 6.1525 16.339878643470165 5.031000000000001 0 0 0
154 1 6.152499999999999 14.919019630994498 5.031000000000001 0 0 0
156 1 7.383 14.208590124756665 5.031000000000001 0 0 0
191 1 8.613499999999998 16.339878643470165 5.031000000000001 0 0 0
193 1 8.6135 14.919019630994498 5.031000000000001 0 0 0
70 1 0 18.471167162183665 5.031000000000001 0 0 0
72 1 0 17.050308149708 5.031000000000001 0 0 0
107 1 1.2305000000000001 19.1815966684215 5.031000000000001 0 0 0
109 1 2.4610000000000003 18.47116716218366 5.031000000000001 0 0 0
111 1 2.4610000000000003 17.050308149708 5.031000000000001 0 0 0
146 1 3.6914999999999996 19.1815966684215 5.031000000000001 0 0 0
150 1 4.921999999999999 17.050308149708 5.031000000000001 0 0 0
148 1 4.922000000000001 18.47116716218366 5.031000000000001 0 0 0
185 1 6.1525 19.1815966684215 5.031000000000001 0 0 0
187 1 7.382999999999999 18.471167162183665 5.031000000000001 0 0 0
189 1 7.383 17.050308149708 5.031000000000001 0 0 0
224 1 8.6135 19.1815966684215 5.031000000000001 0 0 0
226 1 9.843999999999998 18.47116716218366 5.031000000000001 0 0 0
440 1 0 11.366872099805333 8.385 0 0 0
452 1 0 12.787731112280998 8.385 0 0 0
454 1 1.2304999999999997 10.656442593567498 8.385 0 0 0
455 1 2.461 11.366872099805335 8.385 0 0 0
471 1 2.461 12.787731112280998 8.385 0 0 0
473 1 3.6914999999999996 10.6564425935675 8.385 0 0 0
474 1 4.922 11.366872099805333 8.385 0 0 0
491 1 4.922 12.787731112281 8.385 0 0 0
493 1 6.1525 10.6564425935675 8.385 0 0 0
494 1 7.382999999999999 11.366872099805335 8.385 0 0 0
511 1 7.382999999999999 12.787731112280998 8.385 0 0 0
513 1 8.613499999999998 10.656442593567498 8.385 0 0 0
451 1 0 15.629449137232333 8.385 0 0 0
453 1 1.2305000000000001 13.498160618518833 8.385 0 0 0
469 1 1.2305000000000001 14.919019630994498 8.385 0 0 0
470 1 2.4610000000000003 15.629449137232331 8.385 0 0 0
472 1 3.6915 13.498160618518833 8.385 0 0 0
489 1 3.6915 14.919019630994498 8.385 0 0 0
490 1 4.921999999999999 15.629449137232333 8.385 0 0 0
492 1 6.152499999999999 13.498160618518833 8.385 0 0 0
509 1 6.152499999999999 14.919019630994498 8.385 0 0 0
510 1 7.382999999999999 15.629449137232333 8.385 0 0 0
512 1 8.6135 13.498160618518835 8.385 0 0 0
529 1 8.6135 14.919019630994498 8.385 0 0 0
466 1 0 19.892026174659332 8.385 0 0 0
467 1 0 17.050308149708 8.385 0 0 0
468 1 1.2305000000000001 17.76073765594583 8.385 0 0 0
485 1 1.2305000000000001 19.1815966684215 8.385 0 0 0
486 1 2.4609999999999994 19.892026174659332 8.385 0 0 0
487 1 2.4610000000000003 17.050308149708 8.385 0 0 0
488 1 3.6914999999999996 17.76073765594583 8.385 0 0 0
505 1 3.6914999999999996 19.1815966684215 8.385 0 0 0
507 1 4.921999999999999 17.050308149708 8.385 0 0 0
506 1 4.922 19.892026174659332 8.385 0 0 0
508 1 6.1525 17.76073765594583 8.385 0 0 0
525 1 6.1525 19.1815966684215 8.385 0 0 0
526 1 7.382999999999999 19.892026174659332 8.385 0 0 0
527 1 7.383 17.050308149708 8.385 0 0 0
528 1 8.613499999999998 17.76073765594583 8.385 0 0 0
545 1 8.6135 19.1815966684215 8.385 0 0 0
698 1 0 21.312885187135 1.677 0 0 0
700 1 1.2304999999999993 22.023314693372832 1.677 0 0 0
708 1 1.2304999999999993 23.4441737058485 1.677 0 0 0
712 1 2.4609999999999994 21.312885187134995 1.677 0 0 0
714 1 3.6914999999999996 22.023314693372832 1.677 0 0 0
730 1 3.6915000000000004 23.4441737058485 1.677 0 0 0
734 1 4.922000000000001 21.312885187134995 1.677 0 0 0
736 1 6.152499999999999 22.023314693372832 1.677 0 0 0
760 1 6.1525 23.4441737058485 1.677 0 0 0
764 1 7.382999999999999 21.312885187135 1.677 0 0 0
766 1 8.6135 22.023314693372836 1.677 0 0 0
797 1 8.613499999999998 23.4441737058485 1.677 0 0 0
696 1 0 24.154603212086332 1.677 0 0 0
704 1 0 25.575462224561996 1.677 0 0 0
706 1 1.2305000000000001 26.285891730799833 1.677 0 0 0
710 1 2.4609999999999994 24.154603212086332 1.677 0 0 0
726 1 2.4610000000000003 25.575462224561996 1.677 0 0 0
728 1 3.6914999999999987 26.285891730799833 1.677 0 0 0
732 1 4.921999999999999 24.154603212086332 1.677 0 0 0
756 1 4.922 25.575462224561996 1.677 0 0 0
758 1 6.1525 26.285891730799836 1.677 0 0 0
762 1 7.383 24.154603212086336 1.677 0 0 0
793 1 7.382999999999999 25.575462224561996 1.677 0 0 0
795 1 8.613500000000002 26.285891730799836 1.677 0 0 0
702 1 0 28.417180249513333 1.677 0 0 0
718 1 0 29.838039261988996 1.677 0 0 0
722 1 1.230500000000001 27.706750743275496 1.677 0 0 0
724 1 2.4609999999999994 28.41718024951333 1.677 0 0 0
748 1 2.4610000000000003 29.838039261988996 1.677 0 0 0
752 1 3.6914999999999996 27.7067507432755 1.677 0 0 0
785 1 4.921999999999999 29.838039261988996 1.677 0 0 0
754 1 4.922 28.417180249513336 1.677 0 0 0
789 1 6.152499999999999 27.7067507432755 1.677 0 0 0
791 1 7.383000000000001 28.417180249513336 1.677 0 0 0
822 1 7.383 29.838039261988996 1.677 0 0 0
826 1 8.6135 27.7067507432755 1.677 0 0 0
697 1 0 22.733744199610662 5.031000000000001 0 0 0
699 1 0 21.312885187135 5.031000000000001 0 0 0
701 1 1.2305000000000001 20.602455680897165 5.031000000000001 0 0 0
709 1 1.2304999999999993 23.4441737058485 5.031000000000001 0 0 0
711 1 2.4610000000000003 22.733744199610662 5.031000000000001 0 0 0
713 1 2.4609999999999994 21.312885187134995 5.031000000000001 0 0 0
715 1 3.6915000000000004 20.602455680897165 5.031000000000001 0 0 0
731 1 3.6915000000000004 23.4441737058485 5.031000000000001 0 0 0
733 1 4.922 22.733744199610662 5.031000000000001 0 0 0
735 1 4.922000000000001 21.312885187134995 5.031000000000001 0 0 0
737 1 6.1525 20.602455680897165 5.031000000000001 0 0 0
761 1 6.1525 23.4441737058485 5.031000000000001 0 0 0
763 1 7.382999999999999 22.733744199610662 5.031000000000001 0 0 0
765 1 7.382999999999999 21.312885187135 5.031000000000001 0 0 0
767 1 8.613499999999998 20.60245568089716 5.031000000000001 0 0 0
798 1 8.613499999999998 23.4441737058485 5.031000000000001 0 0 0
800 1 9.843999999999998 22.733744199610662 5.031000000000001 0 0 0
705 1 0 25.575462224561996 5.031000000000001 0 0 0
707 1 1.2305000000000001 24.865032718324162 5.031000000000001 0 0 0
727 1 2.4610000000000003 25.575462224561996 5.031000000000001 0 0 0
729 1 3.6914999999999996 24.865032718324166 5.031000000000001 0 0 0
757 1 4.922 25.575462224561996 5.031000000000001 0 0 0
759 1 6.152499999999999 24.86503271832416 5.031000000000001 0 0 0
794 1 7.382999999999999 25.575462224561996 5.031000000000001 0 0 0
796 1 8.613499999999998 24.86503271832416 5.031000000000001 0 0 0
703 1 0 26.996321237037662 5.031000000000001 0 0 0
719 1 0 29.838039261988996 5.031000000000001 0 0 0
721 1 1.2304999999999993 29.127609755751163 5.031000000000001 0 0 0
723 1 1.230500000000001 27.706750743275496 5.031000000000001 0 0 0
725 1 2.4609999999999994 26.996321237037662 5.031000000000001 0 0 0
749 1 2.4610000000000003 29.838039261988996 5.031000000000001 0 0 0
751 1 3.6914999999999987 29.12760975575116 5.031000000000001 0 0 0
753 1 3.6914999999999996 27.7067507432755 5.031000000000001 0 0 0
755 1 4.921999999999999 26.996321237037662 5.031000000000001 0 0 0
786 1 4.921999999999999 29.838039261988996 5.031000000000001 0 0 0
788 1 6.152499999999998 29.12760975575116 5.031000000000001 0 0 0
790 1 6.152499999999999 27.7067507432755 5.031000000000001 0 0 0
792 1 7.382999999999998 26.996321237037662 5.031000000000001 0 0 0
823 1 7.383 29.838039261988996 5.031000000000001 0 0 0
825 1 8.613499999999998 29.12760975575116 5.031000000000001 0 0 0
827 1 8.6135 27.7067507432755 5.031000000000001 0 0 0
1104 1 0 21.312885187135 8.385 0 0 0
1105 1 1.2304999999999993 22.023314693372832 8.385 0 0 0
1109 1 1.2304999999999993 23.4441737058485 8.385 0 0 0
1111 1 2.4609999999999994 21.312885187134995 8.385 0 0 0
1112 1 3.6914999999999996 22.023314693372832 8.385 0 0 0
1120 1 3.6915000000000004 23.4441737058485 8.385 0 0 0
1122 1 4.922000000000001 21.312885187134995 8.385 0 0 0
1123 1 6.152499999999999 22.023314693372832 8.385 0 0 0
1135 1 6.1525 23.4441737058485 8.385 0 0 0
1137 1 7.382999999999999 21.312885187135 8.385 0 0 0
1138 1 8.6135 22.023314693372836 8.385 0 0 0
1153 1 8.613499999999998 23.4441737058485 8.385 0 0 0
1103 1 0 24.154603212086332 8.385 0 0 0
1107 1 0 25.575462224561996 8.385 0 0 0
1108 1 1.2305000000000001 26.285891730799833 8.385 0 0 0
1110 1 2.4609999999999994 24.154603212086332 8.385 0 0 0
1118 1 2.4610000000000003 25.575462224561996 8.385 0 0 0
1119 1 3.6914999999999987 26.285891730799833 8.385 0 0 0
1121 1 4.921999999999999 24.154603212086332 8.385 0 0 0
1133 1 4.922 25.575462224561996 8.385 0 0 0
1134 1 6.1525 26.285891730799836 8.385 0 0 0
1136 1 7.383 24.154603212086336 8.385 0 0 0
1151 1 7.382999999999999 25.575462224561996 8.385 0 0 0
1152 1 8.613500000000002 26.285891730799836 8.385 0 0 0
1106 1 0 28.417180249513333 8.385 0 0 0
1114 1 0 29.838039261988996 8.385 0 0 0
1116 1 1.230500000000001 27.706750743275496 8.385 0 0 0
1117 1 2.4609999999999994 28.41718024951333 8.385 0 0 0
1129 1 2.4610000000000003 29.838039261988996 8.385 0 0 0
1131 1 3.6914999999999996 27.7067507432755 8.385 0 0 0
1147 1 4.921999999999999 29.838039261988996 8.385 0 0 0
1132 1 4.922 28.417180249513336 8.385 0 0 0
1149 1 6.152499999999999 27.7067507432755 8.385 0 0 0
1150 1 7.383000000000001 28.417180249513336 8.385 0 0 0
1165 1 7.383 29.838039261988996 8.385 0 0 0
1167 1 8.6135 27.7067507432755 8.385 0 0 0
716 1 0 32.67975728694033 1.677 0 0 0
720 1 1.2304999999999993 30.548468768226833 1.677 0 0 0
744 1 1.2304999999999993 31.969327780702496 1.677 0 0 0
746 1 2.4610000000000003 32.67975728694034 1.677 0 0 0
750 1 3.6915000000000004 30.548468768226833 1.677 0 0 0
781 1 3.6914999999999996 31.969327780702496 1.677 0 0 0
783 1 4.9220000000000015 32.67975728694034 1.677 0 0 0
787 1 6.152500000000001 30.548468768226833 1.677 0 0 0
818 1 6.1525 31.9693277807025 1.677 0 0 0
820 1 7.383 32.67975728694033 1.677 0 0 0
824 1 8.6135 30.548468768226833 1.677 0 0 0
855 1 8.613499999999998 31.9693277807025 1.677 0 0 0
738 1 0 36.94233432436734 1.677 0 0 0
740 1 0 34.100616299416 1.677 0 0 0
742 1 1.230500000000001 34.81104580565383 1.677 0 0 0
773 1 1.2304999999999993 36.23190481812949 1.677 0 0 0
775 1 2.461000000000002 36.94233432436734 1.677 0 0 0
777 1 2.4609999999999985 34.100616299416 1.677 0 0 0
779 1 3.6915000000000013 34.81104580565383 1.677 0 0 0
810 1 3.6914999999999996 36.23190481812949 1.677 0 0 0
812 1 4.922000000000001 36.94233432436733 1.677 0 0 0
814 1 4.922000000000001 34.100616299416 1.677 0 0 0
816 1 6.152500000000001 34.81104580565383 1.677 0 0 0
847 1 6.1525 36.23190481812949 1.677 0 0 0
849 1 7.383000000000002 36.94233432436733 1.677 0 0 0
851 1 7.382999999999999 34.100616299416 1.677 0 0 0
853 1 8.613500000000002 34.81104580565383 1.677 0 0 0
884 1 8.613499999999998 36.23190481812949 1.677 0 0 0
888 1 9.843999999999998 34.100616299416 1.677 0 0 0
769 1 0 38.363193336843 1.677 0 0 0
771 1 1.230500000000001 39.07362284308084 1.677 0 0 0
806 1 2.4610000000000003 38.363193336843 1.677 0 0 0
808 1 3.6915000000000013 39.07362284308083 1.677 0 0 0
843 1 4.921999999999999 38.363193336843 1.677 0 0 0
845 1 6.152500000000002 39.073622843080834 1.677 0 0 0
880 1 7.382999999999999 38.363193336843 1.677 0 0 0
882 1 8.613500000000002 39.073622843080834 1.677 0 0 0
717 1 0 31.258898274464663 5.031000000000001 0 0 0
743 1 1.2304999999999993 33.39018679317816 5.031000000000001 0 0 0
745 1 1.2304999999999993 31.969327780702496 5.031000000000001 0 0 0
747 1 2.4609999999999985 31.25889827446466 5.031000000000001 0 0 0
780 1 3.691499999999998 33.39018679317816 5.031000000000001 0 0 0
782 1 3.6914999999999996 31.969327780702496 5.031000000000001 0 0 0
784 1 4.921999999999998 31.25889827446466 5.031000000000001 0 0 0
817 1 6.152499999999999 33.39018679317816 5.031000000000001 0 0 0
819 1 6.1525 31.9693277807025 5.031000000000001 0 0 0
821 1 7.382999999999999 31.258898274464663 5.031000000000001 0 0 0
854 1 8.613499999999998 33.39018679317816 5.031000000000001 0 0 0
856 1 8.613499999999998 31.9693277807025 5.031000000000001 0 0 0
858 1 9.843999999999998 31.258898274464663 5.031000000000001 0 0 0
739 1 0 35.521475311891656 5.031000000000001 0 0 0
741 1 0 34.100616299416 5.031000000000001 0 0 0
774 1 1.2304999999999993 36.23190481812949 5.031000000000001 0 0 0
776 1 2.4609999999999985 35.52147531189166 5.031000000000001 0 0 0
778 1 2.4609999999999985 34.100616299416 5.031000000000001 0 0 0
811 1 3.6914999999999996 36.23190481812949 5.031000000000001 0 0 0
813 1 4.921999999999999 35.52147531189166 5.031000000000001 0 0 0
815 1 4.922000000000001 34.100616299416 5.031000000000001 0 0 0
848 1 6.1525 36.23190481812949 5.031000000000001 0 0 0
850 1 7.382999999999998 35.52147531189166 5.031000000000001 0 0 0
852 1 7.382999999999999 34.100616299416 5.031000000000001 0 0 0
885 1 8.613499999999998 36.23190481812949 5.031000000000001 0 0 0
887 1 9.843999999999998 35.52147531189166 5.031000000000001 0 0 0
889 1 9.843999999999998 34.100616299416 5.031000000000001 0 0 0
768 1 0 39.78405234931866 5.031000000000001 0 0 0
770 1 0 38.363193336843 5.031000000000001 0 0 0
772 1 1.2304999999999993 37.65276383060515 5.031000000000001 0 0 0
805 1 2.4610000000000003 39.78405234931866 5.031000000000001 0 0 0
807 1 2.4610000000000003 38.363193336843 5.031000000000001 0 0 0
809 1 3.6914999999999996 37.65276383060516 5.031000000000001 0 0 0
842 1 4.921999999999999 39.78405234931866 5.031000000000001 0 0 0
844 1 4.921999999999999 38.363193336843 5.031000000000001 0 0 0
846 1 6.152499999999998 37.65276383060516 5.031000000000001 0 0 0
879 1 7.382999999999997 39.78405234931866 5.031000000000001 0 0 0
881 1 7.382999999999999 38.363193336843 5.031000000000001 0 0 0
883 1 8.613499999999998 37.65276383060516 5.031000000000001 0 0 0
916 1 9.843999999999998 39.78405234931866 5.031000000000001 0 0 0
1113 1 0 32.67975728694033 8.385 0 0 0
1115 1 1.2304999999999993 30.548468768226833 8.385 0 0 0
1127 1 1.2304999999999993 31.969327780702496 8.385 0 0 0
1128 1 2.4610000000000003 32.67975728694034 8.385 0 0 0
1130 1 3.6915000000000004 30.548468768226833 8.385 0 0 0
1145 1 3.6914999999999996 31.969327780702496 8.385 0 0 0
1146 1 4.9220000000000015 32.67975728694034 8.385 0 0 0
1148 1 6.152500000000001 30.548468768226833 8.385 0 0 0
1163 1 6.1525 31.9693277807025 8.385 0 0 0
1164 1 7.383 32.67975728694033 8.385 0 0 0
1166 1 8.6135 30.548468768226833 8.385 0 0 0
1181 1 8.613499999999998 31.9693277807025 8.385 0 0 0
1124 1 0 36.94233432436734 8.385 0 0 0
1125 1 0 34.100616299416 8.385 0 0 0
1126 1 1.230500000000001 34.81104580565383 8.385 0 0 0
1141 1 1.2304999999999993 36.23190481812949 8.385 0 0 0
1142 1 2.461000000000002 36.94233432436734 8.385 0 0 0
1143 1 2.4609999999999985 34.100616299416 8.385 0 0 0
1144 1 3.6915000000000013 34.81104580565383 8.385 0 0 0
1159 1 3.6914999999999996 36.23190481812949 8.385 0 0 0
1160 1 4.922000000000001 36.94233432436733 8.385 0 0 0
1161 1 4.922000000000001 34.100616299416 8.385 0 0 0
1162 1 6.152500000000001 34.81104580565383 8.385 0 0 0
1177 1 6.1525 36.23190481812949 8.385 0 0 0
1178 1 7.383000000000002 36.94233432436733 8.385 0 0 0
1179 1 7.382999999999999 34.100616299416 8.385 0 0 0
1180 1 8.613500000000002 34.81104580565383 8.385 0 0 0
1195 1 8.613499999999998 36.23190481812949 8.385 0 0 0
1197 1 9.843999999999998 34.100616299416 8.385 0 0 0
1139 1 0 38.363193336843 8.385 0 0 0
1140 1 1.230500000000001 39.07362284308084 8.385 0 0 0
1157 1 2.4610000000000003 38.363193336843 8.385 0 0 0
1158 1 3.6915000000000013 39.07362284308083 8.385 0 0 0
1175 1 4.921999999999999 38.363193336843 8.385 0 0 0
1176 1 6.152500000000002 39.073622843080834 8.385 0 0 0
1193 1 7.382999999999999 38.363193336843 8.385 0 0 0
1194 1 8.613500000000002 39.073622843080834 8.385 0 0 0
1356 1 0 41.20491136179434 1.677 0 0 0
1359 1 0 42.62577037427 1.677 0 0 0
1361 1 1.2304999999999993 43.336199880507834 1.677 0 0 0
1363 1 1.230500000000001 40.4944818555565 1.677 0 0 0
1365 1 2.4610000000000003 41.20491136179433 1.677 0 0 0
1376 1 2.4610000000000003 42.62577037427 1.677 0 0 0
1378 1 3.6915000000000013 43.336199880507834 1.677 0 0 0
1380 1 3.6914999999999996 40.4944818555565 1.677 0 0 0
1401 1 4.921999999999999 42.62577037426999 1.677 0 0 0
1382 1 4.922000000000002 41.20491136179433 1.677 0 0 0
1403 1 6.152500000000002 43.336199880507834 1.677 0 0 0
1405 1 6.152499999999998 40.494481855556494 1.677 0 0 0
1407 1 7.383000000000001 41.20491136179433 1.677 0 0 0
1434 1 7.382999999999999 42.62577037426999 1.677 0 0 0
1436 1 8.613500000000002 43.336199880507834 1.677 0 0 0
1438 1 8.6135 40.494481855556494 1.677 0 0 0
1357 1 0 45.46748839922133 1.677 0 0 0
1368 1 0 46.888347411697 1.677 0 0 0
1372 1 1.2304999999999993 44.757058892983494 1.677 0 0 0
1374 1 2.4610000000000003 45.46748839922134 1.677 0 0 0
1393 1 2.4609999999999985 46.888347411697 1.677 0 0 0
1397 1 3.6914999999999996 44.757058892983494 1.677 0 0 0
1399 1 4.922000000000001 45.46748839922134 1.677 0 0 0
1426 1 4.922000000000001 46.888347411697 1.677 0 0 0
1430 1 6.1525 44.757058892983494 1.677 0 0 0
1432 1 7.383000000000003 45.46748839922133 1.677 0 0 0
1465 1 7.383000000000001 46.888347411697 1.677 0 0 0
1469 1 8.6135 44.757058892983494 1.677 0 0 0
1366 1 0 49.73006543664833 1.677 0 0 0
1370 1 1.230500000000001 47.59877691793483 1.677 0 0 0
1389 1 1.2304999999999993 49.019635930410494 1.677 0 0 0
1391 1 2.4610000000000003 49.73006543664833 1.677 0 0 0
1395 1 3.6914999999999996 47.598776917934835 1.677 0 0 0
1422 1 3.6914999999999996 49.019635930410494 1.677 0 0 0
1424 1 4.922000000000001 49.73006543664833 1.677 0 0 0
1428 1 6.152500000000002 47.598776917934835 1.677 0 0 0
1461 1 6.152500000000002 49.019635930410494 1.677 0 0 0
1463 1 7.383000000000001 49.73006543664833 1.677 0 0 0
1467 1 8.613500000000002 47.59877691793483 1.677 0 0 0
1500 1 8.6135 49.019635930410494 1.677 0 0 0
1360 1 0 42.62577037427 5.031000000000001 0 0 0
1362 1 1.230500000000001 41.91534086803216 5.031000000000001 0 0 0
1364 1 1.230500000000001 40.4944818555565 5.031000000000001 0 0 0
1377 1 2.4610000000000003 42.62577037427 5.031000000000001 0 0 0
1379 1 3.6914999999999996 41.91534086803216 5.031000000000001 0 0 0
1381 1 3.6914999999999996 40.4944818555565 5.031000000000001 0 0 0
1402 1 4.921999999999999 42.62577037426999 5.031000000000001 0 0 0
1404 1 6.152499999999998 41.91534086803216 5.031000000000001 0 0 0
1406 1 6.152499999999998 40.494481855556494 5.031000000000001 0 0 0
1435 1 7.382999999999999 42.62577037426999 5.031000000000001 0 0 0
1437 1 8.613499999999997 41.91534086803216 5.031000000000001 0 0 0
1439 1 8.6135 40.494481855556494 5.031000000000001 0 0 0
1358 1 0 44.04662938674566 5.031000000000001 0 0 0
1369 1 0 46.888347411697 5.031000000000001 0 0 0
1371 1 1.2304999999999993 46.177917905459154 5.031000000000001 0 0 0
1373 1 1.2304999999999993 44.757058892983494 5.031000000000001 0 0 0
1375 1 2.4610000000000003 44.04662938674566 5.031000000000001 0 0 0
1394 1 2.4609999999999985 46.888347411697 5.031000000000001 0 0 0
1396 1 3.6914999999999996 46.177917905459154 5.031000000000001 0 0 0
1398 1 3.6914999999999996 44.757058892983494 5.031000000000001 0 0 0
1400 1 4.921999999999999 44.04662938674566 5.031000000000001 0 0 0
1427 1 4.922000000000001 46.888347411697 5.031000000000001 0 0 0
1429 1 6.152499999999998 46.177917905459154 5.031000000000001 0 0 0
1431 1 6.1525 44.757058892983494 5.031000000000001 0 0 0
1433 1 7.382999999999997 44.046629386745664 5.031000000000001 0 0 0
1466 1 7.383000000000001 46.888347411697 5.031000000000001 0 0 0
1468 1 8.6135 46.177917905459154 5.031000000000001 0 0 0
1470 1 8.6135 44.757058892983494 5.031000000000001 0 0 0
1367 1 0 48.30920642417266 5.031000000000001 0 0 0
1388 1 1.2304999999999993 50.44049494288616 5.031000000000001 0 0 0
1390 1 1.2304999999999993 49.019635930410494 5.031000000000001 0 0 0
1392 1 2.4609999999999985 48.30920642417266 5.031000000000001 0 0 0
1421 1 3.691499999999998 50.44049494288616 5.031000000000001 0 0 0
1423 1 3.6914999999999996 49.019635930410494 5.031000000000001 0 0 0
1425 1 4.921999999999999 48.30920642417266 5.031000000000001 0 0 0
1460 1 6.152500000000002 50.440494942886154 5.031000000000001 0 0 0
1462 1 6.152500000000002 49.019635930410494 5.031000000000001 0 0 0
1464 1 7.383000000000001 48.30920642417266 5.031000000000001 0 0 0
1499 1 8.6135 50.44049494288616 5.031000000000001 0 0 0
1501 1 8.6135 49.019635930410494 5.031000000000001 0 0 0
1785 1 0 41.20491136179434 8.385 0 0 0
1787 1 0 42.62577037427 8.385 0 0 0
1788 1 1.2304999999999993 43.336199880507834 8.385 0 0 0
1789 1 1.230500000000001 40.4944818555565 8.385 0 0 0
1790 1 2.4610000000000003 41.20491136179433 8.385 0 0 0
1796 1 2.4610000000000003 42.62577037427 8.385 0 0 0
1797 1 3.6915000000000013 43.336199880507834 8.385 0 0 0
1798 1 3.6914999999999996 40.4944818555565 8.385 0 0 0
1809 1 4.921999999999999 42.62577037426999 8.385 0 0 0
1799 1 4.922000000000002 41.20491136179433 8.385 0 0 0
1810 1 6.152500000000002 43.336199880507834 8.385 0 0 0
1811 1 6.152499999999998 40.494481855556494 8.385 0 0 0
1812 1 7.383000000000001 41.20491136179433 8.385 0 0 0
1826 1 7.382999999999999 42.62577037426999 8.385 0 0 0
1827 1 8.613500000000002 43.336199880507834 8.385 0 0 0
1828 1 8.6135 40.494481855556494 8.385 0 0 0