
### Dimensions ###
variable Z_G equal 10.062000000000001
variable Z_W equal 23.803019087

variable	XDIM string 78.752
variable 	YDIM string 80.86108639999017


### IMPORT ATOMS ###
read_data ../Box_Setup/data.Ibeam_240K
Reading data file ...
  orthogonal box = (0.0000000 0.0000000 0.0000000) to (78.752000 80.861086 33.944269)
  8 by 8 by 2 MPI processor grid
  reading atoms ...
  9422 atoms
  reading velocities ...
  9422 velocities
  read_data CPU = 0.021 seconds
group water type 2
2126 atoms in group water
group graphite type 1
7296 atoms in group graphite


# Define potential
#
pair_style          sw
pair_coeff * * MLC_e.sw C mW

# Add velocity/set timestep
#

fix		1 graphite setforce 0.0 0.0 0.0
velocity 	graphite set 0.0 0.0 0.0
velocity            water create ${START_TEMP} ${SEED} rot yes dist gaussian
velocity            water create 235 ${SEED} rot yes dist gaussian
velocity            water create 235 24701 rot yes dist gaussian
timestep            5.0

# Define output
#
compute 1 water msd
compute 2 water temp


thermo	            100
thermo_style custom step c_2 press vol etotal ke pe c_1[4] density

# Neighbor lists
#
neigh_modify        delay 0 every 1 check yes


# Set fixes
#
fix                 2 water momentum 10 linear 1 1 1 rescale
fix                 3 all nve
fix                 4 water temp/csvr ${START_TEMP} ${START_TEMP} 500.0 928347
fix                 4 water temp/csvr 235 ${START_TEMP} 500.0 928347
fix                 4 water temp/csvr 235 235 500.0 928347

# Run 0.05 ns equilibration
#
dump                1 all custom 100 ${DIR}/eq.${NAME}.dump id type x y z vx vy vz
dump                1 all custom 100 run_5/eq.${NAME}.dump id type x y z vx vy vz
dump                1 all custom 100 run_5/eq.ibeam_cooling_5.dump id type x y z vx vy vz
run                 10000
Neighbor list info ...
  update every 1 steps, delay 0 steps, check yes
  max neighbors/atom: 2000, page size: 100000
  master list distance cutoff = 6.6747184
  ghost atom cutoff = 6.6747184
  binsize = 3.3373592, bins = 24 25 11
  1 neighbor lists, perpetual/occasional/extra = 1 0 0
  (1) pair sw, perpetual
      attributes: full, newton on
      pair build: full/bin/atomonly
      stencil: full/bin/3d
      bin: standard
Per MPI rank memory allocation (min/avg/max) = 3.605 | 4.456 | 4.732 Mbytes
Step c_2 Press Volume TotEng KinEng PotEng c_1[4] Density 
       0          235   -349.74665    216156.16   -20108.674     1488.542   -21597.216            0   0.96737059 
     100    239.54563   -245.15576    216156.16    -20125.33     1517.335   -21642.666   0.86337401   0.96737059 
     200    232.85676   -443.35661    216156.16   -20160.294    1474.9663    -21635.26    1.3460029   0.96737059 
     300    234.52881   -511.81924    216156.16   -20171.129    1485.5574   -21656.686    1.7301886   0.96737059 
     400    232.40818   -359.61193    216156.16   -20179.514    1472.1248   -21651.639    2.0947092   0.96737059 
     500    241.41502   -371.86911    216156.16   -20172.748    1529.1762   -21701.924    2.5620056   0.96737059 
     600    235.37774   -436.46841    216156.16   -20122.256    1490.9347    -21613.19    2.9942156   0.96737059 
     700    235.23694    -354.3168    216156.16   -20147.438    1490.0429   -21637.481     3.454779   0.96737059 
     800    234.11147   -348.31532    216156.16   -20141.865    1482.9139   -21624.779    3.8158035   0.96737059 
     900    237.97564   -341.15006    216156.16   -20167.831    1507.3904   -21675.221    4.2022106   0.96737059 
    1000    234.58687   -469.22172    216156.16   -20225.919    1485.9252   -21711.844    4.6781555   0.96737059 
    1100    233.21343   -314.76721    216156.16   -20195.175    1477.2255     -21672.4    5.0469446   0.96737059 
    1200    236.98702   -215.37709    216156.16   -20213.819    1501.1282   -21714.947    5.3504567   0.96737059 
    1300    239.65219   -315.88652    216156.16   -20168.185      1518.01   -21686.195    5.6591369   0.96737059 
    1400    233.04665   -510.20308    216156.16   -20208.731    1476.1691     -21684.9    6.0271166   0.96737059 
    1500    234.61576   -275.06367    216156.16   -20233.474    1486.1082   -21719.582    6.4258862   0.96737059 
    1600    232.49407   -481.04251    216156.16   -20213.559    1472.6689   -21686.228    6.7505285   0.96737059 
    1700    235.17333   -449.57517    216156.16   -20212.359      1489.64   -21701.999     6.980945   0.96737059 
    1800    235.53047   -443.11542    216156.16   -20197.291    1491.9021   -21689.193     7.196145   0.96737059 
    1900    245.82439    -312.2528    216156.16   -20164.502    1557.1061   -21721.609    7.3663189   0.96737059 
    2000    239.97058   -466.02041    216156.16   -20148.054    1520.0268   -21668.081    7.6991115   0.96737059 
    2100    238.04304   -515.51868    216156.16   -20239.448    1507.8173   -21747.265    8.1032763   0.96737059 
    2200    241.97629   -178.36312    216156.16   -20221.598    1532.7314   -21754.329    8.3411613   0.96737059 
    2300     243.2843   -326.92438    216156.16   -20208.592    1541.0166   -21749.609    8.6446342   0.96737059 
    2400    239.74353   -473.01867    216156.16   -20209.646    1518.5886   -21728.234    9.2191765   0.96737059 
    2500    233.06242   -455.59909    216156.16   -20224.146     1476.269   -21700.415    9.6011563   0.96737059 
    2600    234.54561   -429.65189    216156.16   -20242.624    1485.6638   -21728.288    9.6076897   0.96737059 
    2700    238.03738   -181.99546    216156.16   -20236.214    1507.7815   -21743.995    9.6945699   0.96737059 
    2800    238.66921   -443.48482    216156.16   -20170.022    1511.7836   -21681.805    9.9479071   0.96737059 
    2900    242.39961   -432.70334    216156.16   -20173.752    1535.4128   -21709.164    10.126049   0.96737059 
    3000    241.89907   -281.96999    216156.16   -20168.257    1532.2422   -21700.499    10.379049   0.96737059 
    3100    237.32151     -465.799    216156.16   -20156.488     1503.247   -21659.735    10.881306   0.96737059 
    3200    236.05129   -252.96227    216156.16   -20226.566    1495.2011   -21721.767    11.447968   0.96737059 
    3300    230.06238   -441.85712    216156.16   -20312.581     1457.266   -21769.847    12.053797   0.96737059 
    3400    231.97116   -268.03724    216156.16   -20250.279    1469.3566   -21719.635    12.292397   0.96737059 
    3500    238.87328   -357.43769    216156.16   -20246.682    1513.0762   -21759.758    12.221356   0.96737059 
    3600    234.41822   -557.53567    216156.16   -20236.044    1484.8569     -21720.9    12.463439   0.96737059 
    3700    240.72008   -278.96367    216156.16   -20204.799    1524.7743   -21729.573    12.564869   0.96737059 
    3800    236.52536   -423.47751    216156.16   -20191.268     1498.204   -21689.472    12.761437   0.96737059 
    3900    234.45416   -486.64784    216156.16    -20191.82    1485.0846   -21676.904    13.128435   0.96737059 
    4000    227.97653   -539.44621    216156.16   -20213.194    1444.0538   -21657.248     13.37694   0.96737059 
    4100    239.86256   -554.56938    216156.16   -20203.553    1519.3425   -21722.896    13.403217   0.96737059 
    4200    237.98905   -404.43265    216156.16   -20193.133    1507.4753   -21700.608    13.596891   0.96737059 
    4300    233.36402    -529.9486    216156.16   -20244.991    1478.1794   -21723.171     13.66907   0.96737059 
    4400    238.23615   -371.22513    216156.16   -20210.037    1509.0405   -21719.078    13.841595   0.96737059 
    4500    236.31046   -402.90485    216156.16   -20246.276    1496.8428   -21743.119     14.06862   0.96737059 
    4600    226.20545    -406.6588    216156.16   -20279.265    1432.8354   -21712.101    14.313952   0.96737059 
    4700    237.25264     -333.883    216156.16   -20219.166    1502.8108   -21721.976    14.379109   0.96737059 
    4800    240.71623   -341.84704    216156.16   -20192.633    1524.7499   -21717.383     14.40716   0.96737059 
    4900     243.7177   -240.11353    216156.16   -20155.823    1543.7618   -21699.585    14.450143   0.96737059 
    5000    233.10094   -344.91598    216156.16   -20196.356    1476.5129   -21672.869      14.9905   0.96737059 
    5100     237.5945   -442.48613    216156.16   -20157.366    1504.9761   -21662.342    15.081786   0.96737059 
    5200    226.27709   -324.26182    216156.16    -20174.19    1433.2892   -21607.479    15.549559   0.96737059 
    5300    236.73721   -236.55781    216156.16   -20228.507    1499.5459   -21728.053    15.874671   0.96737059 
    5400     236.7274   -247.46229    216156.16   -20223.824    1499.4838   -21723.308    16.029629   0.96737059 
    5500    234.95185   -334.27064    216156.16   -20220.318     1488.237   -21708.555    16.081093   0.96737059 
    5600    232.40675   -325.98537    216156.16   -20236.373    1472.1158   -21708.489    16.391489   0.96737059 
    5700    231.15371    -367.2035    216156.16   -20216.798    1464.1787   -21680.976    16.783628   0.96737059 
    5800    236.33015   -331.00721    216156.16   -20204.869    1496.9675   -21701.836    16.972746   0.96737059 
    5900    234.97292   -297.60003    216156.16   -20243.878    1488.3705   -21732.249    17.431878   0.96737059 
    6000     230.6302   -369.01873    216156.16    -20260.22    1460.8628   -21721.082    17.779966   0.96737059 
    6100     233.3466   -301.94341    216156.16   -20282.296     1478.069   -21760.365      18.2598   0.96737059 
    6200    236.77347   -454.43679    216156.16   -20279.658    1499.7756   -21779.433     18.71723   0.96737059 
    6300     232.4777    -258.0794    216156.16   -20226.379    1472.5652   -21698.944    18.690679   0.96737059 
    6400    229.38687   -402.75044    216156.16   -20262.129    1452.9872   -21715.116    19.030453   0.96737059 
    6500    231.46015   -345.85428    216156.16   -20279.527    1466.1198   -21745.647    19.489568   0.96737059 
    6600    237.37097   -291.36054    216156.16   -20303.646    1503.5603   -21807.206    19.787725   0.96737059 
    6700     229.2379   -413.05709    216156.16   -20336.906    1452.0436   -21788.949    20.109771   0.96737059 
    6800     230.8128    -340.8738    216156.16   -20329.003    1462.0194   -21791.023    20.027312   0.96737059 
    6900    234.65158   -365.73002    216156.16   -20292.294     1486.335   -21778.629    20.445814   0.96737059 
    7000    234.09883     -259.616    216156.16   -20285.977    1482.8338    -21768.81    20.632247   0.96737059 
    7100    235.32435   -546.22101    216156.16   -20287.223    1490.5965    -21777.82    20.903201   0.96737059 
    7200    227.08704   -360.24377    216156.16   -20342.069    1438.4196   -21780.489    21.184093   0.96737059 
    7300    224.30734   -411.88016    216156.16   -20369.846    1420.8123   -21790.659    21.294577   0.96737059 
    7400    233.97482   -335.52567    216156.16   -20334.979    1482.0483   -21817.027     21.50497   0.96737059 
    7500     231.9126   -246.85587    216156.16   -20294.815    1468.9858   -21763.801    21.825947   0.96737059 
    7600    238.65822   -290.35642    216156.16   -20252.676     1511.714    -21764.39    22.010831   0.96737059 
    7700    233.41429   -262.21006    216156.16   -20286.312    1478.4978    -21764.81    22.247392   0.96737059 
    7800    227.37367   -373.16131    216156.16   -20336.427    1440.2351   -21776.662     22.46652   0.96737059 
    7900    237.69824    -233.7744    216156.16   -20301.873    1505.6332   -21807.506    22.650672   0.96737059 
    8000    235.06735   -473.30425    216156.16   -20258.253    1488.9686   -21747.222     22.75458   0.96737059 
    8100    230.09067    -404.4386    216156.16   -20235.111    1457.4452   -21692.557    22.959227   0.96737059 
    8200    233.51842    -427.7152    216156.16   -20235.789    1479.1573   -21714.947    23.271482   0.96737059 
    8300     237.6745   -407.44288    216156.16   -20212.477    1505.4829    -21717.96    23.527959   0.96737059 
    8400     236.0529   -453.36971    216156.16   -20183.245    1495.2113   -21678.457    23.860825   0.96737059 
    8500    233.69161   -338.17023    216156.16    -20220.83    1480.2544   -21701.085    23.871069   0.96737059 
    8600    231.85839   -560.92941    216156.16    -20215.54    1468.6424   -21684.182    23.821522   0.96737059 
    8700    236.15933   -293.80386    216156.16   -20230.723    1495.8855   -21726.608    23.952294   0.96737059 
    8800    232.03573   -312.80903    216156.16   -20230.369    1469.7657   -21700.135    24.195094   0.96737059 
    8900    231.37955   -456.74361    216156.16   -20237.394    1465.6093   -21703.003    24.643874   0.96737059 
    9000    238.80921   -262.36249    216156.16   -20211.958    1512.6704   -21724.628    25.047037   0.96737059 
    9100    234.40538   -452.85879    216156.16   -20226.776    1484.7755   -21711.551    25.510832   0.96737059 
    9200     243.3724   -380.56268    216156.16   -20191.735    1541.5747    -21733.31    25.677743   0.96737059 
    9300    236.13721   -401.70135    216156.16   -20258.537    1495.7454   -21754.283    26.075253   0.96737059 
    9400     231.7511   -292.20733    216156.16   -20245.235    1467.9628   -21713.197    26.367418   0.96737059 
    9500    232.15592   -516.32247    216156.16   -20274.439     1470.527   -21744.966    26.431274   0.96737059 
    9600     233.7191   -400.49231    216156.16   -20269.573    1480.4285   -21750.002    26.700307   0.96737059 
    9700    240.26733   -299.37385    216156.16   -20235.019    1521.9065   -21756.925    27.102816   0.96737059 
    9800    234.05017   -428.07115    216156.16    -20206.01    1482.5256   -21688.535    27.652096   0.96737059 
    9900    239.70707   -508.38907    216156.16   -20227.013    1518.3576   -21745.371    28.345177   0.96737059 
   10000     240.0924   -384.31059    216156.16   -20227.341    1520.7984   -21748.139     28.77606   0.96737059 
Loop time of 6.45805 on 128 procs for 10000 steps with 9422 atoms

Performance: 668.933 ns/day, 0.036 hours/ns, 1548.455 timesteps/s
96.5% CPU use with 128 MPI tasks x no OpenMP threads

MPI task timing breakdown:
Section |  min time  |  avg time  |  max time  |%varavg| %total
---------------------------------------------------------------
Pair    | 0.00068903 | 1.9449     | 4.8477     | 124.8 | 30.12
Neigh   | 0.0029635  | 0.13712    | 0.31166    |  28.8 |  2.12
Comm    | 0.16908    | 1.716      | 4.6919     |  88.7 | 26.57
Output  | 0.1499     | 0.15       | 0.15083    |   0.0 |  2.32
Modify  | 0.29996    | 2.434      | 6.0633     | 143.3 | 37.69
Other   |            | 0.07603    |            |       |  1.18

Nlocal:        73.6094 ave         150 max           0 min
Histogram: 32 5 8 15 4 0 5 17 25 17
Nghost:        619.336 ave         878 max         417 min
Histogram: 18 17 20 9 15 1 16 8 8 16
Neighs:         0.00000 ave           0 max           0 min
Histogram: 128 0 0 0 0 0 0 0 0 0
FullNghs:      7487.34 ave       16905 max           0 min
Histogram: 44 20 0 0 0 0 5 22 23 14

Total # of neighbors = 958380
Ave neighs/atom = 101.71726
Neighbor list builds = 568
Dangerous builds = 0
write_data 	    ${DIR}/data.${NAME}_eq
write_data 	    run_5/data.${NAME}_eq
write_data 	    run_5/data.ibeam_cooling_5_eq
System init for write_data ...

undump              1
unfix               4



################################################
#######         Run Simulation         #########
################################################

reset_timestep      0
timestep	    10.0
log                 ${DIR}/log.run_${NAME}
log                 run_5/log.run_${NAME}
log                 run_5/log.run_ibeam_cooling_5
