
### Dimensions ###


### IMPORT ATOMS ###
read_data ../Box_Setup/data.Ibeam_235K
  orthogonal box = (0 0 0) to (78.752 72.9753 40.0024)
  6 by 5 by 4 MPI processor grid
  reading atoms ...
  9010 atoms
  reading velocities ...
  9010 velocities
group water type 2
2386 atoms in group water
group graphite type 1
6624 atoms in group graphite


# Define potential
#
pair_style          sw
pair_coeff * * MLC_e.sw C mW

# Add velocity/set timestep
#

fix		1 graphite setforce 0.0 0.0 0.0
velocity 	graphite set 0.0 0.0 0.0
velocity            water create ${START_TEMP} ${SEED} rot yes dist gaussian
velocity            water create 235 ${SEED} rot yes dist gaussian
velocity            water create 235 10618 rot yes dist gaussian
timestep            5.0

# Define output
#
compute 1 water msd
compute 2 water temp


thermo	            100
thermo_style custom step c_2 press vol etotal ke pe c_1[4] density

# Neighbor lists
#
neigh_modify        delay 0 every 1 check yes


# Set fixes
#
fix                 2 water momentum 10 linear 1 1 1 rescale
fix                 3 all nve
fix                 4 water temp/csvr ${START_TEMP} ${START_TEMP} 500.0 928347
fix                 4 water temp/csvr 235 ${START_TEMP} 500.0 928347
fix                 4 water temp/csvr 235 235 500.0 928347

# Run 0.05 ns equilibration
#
dump                1 all custom 100 ${DIR}/eq.${NAME}.dump id type x y z vx vy vz
dump                1 all custom 100 run_20/eq.${NAME}.dump id type x y z vx vy vz
dump                1 all custom 100 run_20/eq.ibeam_cooling_20.dump id type x y z vx vy vz
run                 10000
Neighbor list info ...
  update every 1 steps, delay 0 steps, check yes
  max neighbors/atom: 2000, page size: 100000
  master list distance cutoff = 6.67472
  ghost atom cutoff = 6.67472
  binsize = 3.33736, bins = 24 22 12
  1 neighbor lists, perpetual/occasional/extra = 1 0 0
  (1) pair sw, perpetual
      attributes: full, newton on
      pair build: full/bin/atomonly
      stencil: full/bin/3d
      bin: standard
Per MPI rank memory allocation (min/avg/max) = 0.4724 | 3.952 | 4.75 Mbytes
Step c_2 Press Volume TotEng KinEng PotEng c_1[4] Density 
       0          235   -397.42353       229892   -22660.138    1670.6695   -24330.807            0   0.88510766 
     100    236.25604   -357.60325       229892   -22652.338     1679.599   -24331.937   0.73390906   0.88510766 
     200    232.42291   -355.18702       229892   -22674.353    1652.3484   -24326.701    1.1315739   0.88510766 
     300    229.04787   -460.39066       229892   -22662.028    1628.3544   -24290.383    1.4433475   0.88510766 
     400    232.27939   -403.37479       229892   -22653.247    1651.3281   -24304.575    1.6547652   0.88510766 
     500    232.18429   -439.44274       229892   -22624.253     1650.652   -24274.905    1.8745658   0.88510766 
     600    243.20293   -458.95935       229892   -22557.835    1728.9861   -24286.821    2.3563614   0.88510766 
     700    231.81262   -400.73988       229892    -22568.97    1648.0097    -24216.98    2.8067117   0.88510766 
     800     238.5325   -246.06164       229892   -22530.562    1695.7829   -24226.345    3.1509629   0.88510766 
     900    232.53916   -431.09387       229892   -22543.455    1653.1748    -24196.63    3.5463593   0.88510766 
    1000    230.92657   -439.31081       229892   -22558.425    1641.7105   -24200.135     3.859371   0.88510766 
    1100     233.4609   -304.47247       229892   -22534.634    1659.7277   -24194.362    4.1533643   0.88510766 
    1200    236.20148   -343.08928       229892     -22542.4    1679.2111   -24221.611    4.4867432   0.88510766 
    1300    240.67502   -404.91471       229892   -22505.589    1711.0145   -24216.604    4.8701174   0.88510766 
    1400    233.75596    -476.3535       229892   -22527.825    1661.8253    -24189.65    5.3597754   0.88510766 
    1500    233.51586   -374.94594       229892   -22553.403    1660.1184   -24213.522    5.7791785   0.88510766 
    1600    235.67578   -225.88755       229892   -22530.929    1675.4738   -24206.403    6.2840112   0.88510766 
    1700    234.14354   -368.23071       229892   -22549.072    1664.5807   -24213.653    6.6493686   0.88510766 
    1800     236.2838   -430.95904       229892   -22519.239    1679.7964   -24199.035    6.9683734   0.88510766 
    1900      237.793   -368.80643       229892   -22487.333    1690.5256   -24177.859    7.3289577   0.88510766 
    2000    246.49685   -284.33385       229892   -22469.033    1752.4033   -24221.436    7.7566036   0.88510766 
    2100    241.52863   -165.55466       229892   -22563.722    1717.0831   -24280.805    8.2170951   0.88510766 
    2200    239.27711   -429.34054       229892   -22531.118    1701.0764   -24232.194    8.7200393   0.88510766 
    2300    236.89914   -329.35221       229892   -22514.597    1684.1709   -24198.767    9.2153118   0.88510766 
    2400    236.06907   -238.39907       229892   -22502.219    1678.2697   -24180.489    9.6463617   0.88510766 
    2500    232.68546   -438.12106       229892   -22530.186    1654.2149   -24184.401     10.20619   0.88510766 
    2600    235.25021   -422.03773       229892   -22547.573    1672.4483   -24220.021     10.48782   0.88510766 
    2700    234.20157   -456.27491       229892    -22543.18    1664.9933   -24208.173    10.940648   0.88510766 
    2800     237.6948   -433.89567       229892   -22506.773    1689.8275     -24196.6    11.322066   0.88510766 
    2900     238.7707   -334.05301       229892   -22522.804    1697.4763    -24220.28    11.789118   0.88510766 
    3000    243.90877   -303.77675       229892   -22531.143    1734.0041   -24265.147    12.005516   0.88510766 
    3100    236.11307   -241.90576       229892   -22529.963    1678.5826   -24208.546    12.347808   0.88510766 
    3200    232.47351   -487.27376       229892   -22585.241    1652.7081   -24237.949    12.552993   0.88510766 
    3300    230.02729   -286.36223       229892   -22665.393    1635.3173    -24300.71    13.033754   0.88510766 
    3400    232.52846   -241.67057       229892   -22610.973    1653.0988   -24264.072    13.378239   0.88510766 
    3500    227.60234   -381.10207       229892   -22592.074    1618.0778   -24210.152    13.653978   0.88510766 
    3600     235.8255   -293.18676       229892   -22580.574    1676.5382   -24257.112    13.951961   0.88510766 
    3700    238.24791   -302.79638       229892   -22549.227    1693.7597   -24242.986    14.103233   0.88510766 
    3800    242.21472   -361.16234       229892   -22542.466    1721.9606   -24264.426    14.341642   0.88510766 
    3900    239.43922   -421.93568       229892   -22551.269    1702.2289   -24253.498    14.609408   0.88510766 
    4000    235.29633   -249.74879       229892   -22604.322    1672.7762   -24277.099    14.831892   0.88510766 
    4100    238.57302   -468.32169       229892   -22593.422    1696.0709   -24289.493    15.310603   0.88510766 
    4200    238.57508   -354.10689       229892   -22570.687    1696.0856   -24266.773    15.444453   0.88510766 
    4300    228.99277   -203.21357       229892   -22640.212    1627.9627   -24268.174    15.732791   0.88510766 
    4400    233.21997   -232.63419       229892   -22601.997    1658.0149   -24260.012    16.100702   0.88510766 
    4500    234.69998   -424.76362       229892   -22626.885    1668.5366   -24295.421    16.346688   0.88510766 
    4600    234.92802   -203.01907       229892   -22683.849    1670.1578   -24354.006    16.655139   0.88510766 
    4700    230.96583   -312.09987       229892    -22615.63    1641.9897    -24257.62    16.922415   0.88510766 
    4800     238.7678   -440.48969       229892   -22566.471    1697.4557   -24263.926    17.077982   0.88510766 
    4900     239.5629   -291.35983       229892   -22524.814    1703.1082   -24227.922    17.407459   0.88510766 
    5000    235.01038   -378.00357       229892   -22589.867    1670.7433    -24260.61    17.902343   0.88510766 
    5100      242.384   -452.61717       229892   -22551.585    1723.1641   -24274.749    18.322769   0.88510766 
    5200    239.75998   -292.73947       229892   -22588.503    1704.5093   -24293.013     18.65865   0.88510766 
    5300    229.61469   -420.46383       229892   -22655.517    1632.3841   -24287.901    19.069518   0.88510766 
    5400    231.12159   -392.76366       229892   -22648.591     1643.097   -24291.688    19.344908   0.88510766 
    5500    236.07464   -331.50996       229892   -22643.312    1678.3094   -24321.622    19.704487   0.88510766 
    5600    232.81344   -572.10983       229892   -22660.656    1655.1247   -24315.781    20.120154   0.88510766 
    5700    236.21768   -422.06887       229892   -22631.197    1679.3263   -24310.524    20.455998   0.88510766 
    5800    232.98116   -232.74487       229892   -22618.943    1656.3171   -24275.261    20.770708   0.88510766 
    5900    229.97282   -267.48163       229892   -22631.762    1634.9301   -24266.692    20.964285   0.88510766 
    6000    233.34922   -295.18732       229892   -22630.243    1658.9338   -24289.177    21.067056   0.88510766 
    6100    231.30618   -291.28112       229892   -22640.493    1644.4093   -24284.902    20.756016   0.88510766 
    6200    231.93943   -336.91682       229892   -22653.028    1648.9112   -24301.939     21.21911   0.88510766 
    6300    242.09928   -362.76068       229892   -22592.629      1721.14   -24313.769    21.514967   0.88510766 
    6400    228.47156   -253.56369       229892   -22638.685    1624.2573   -24262.942    21.796854   0.88510766 
    6500    235.20307   -284.23639       229892   -22651.845    1672.1132   -24323.958    22.240401   0.88510766 
    6600    231.82572   -291.36717       229892   -22650.657    1648.1028    -24298.76    22.595114   0.88510766 
    6700    232.51981   -458.44318       229892   -22677.641    1653.0372   -24330.678    22.680765   0.88510766 
    6800    230.68676   -392.19218       229892   -22653.353    1640.0057   -24293.359    22.964924   0.88510766 
    6900    233.34807    -325.9872       229892   -22615.959    1658.9256   -24274.885    23.077983   0.88510766 
    7000    233.75102   -262.88229       229892   -22630.507    1661.7902   -24292.297    23.455649   0.88510766 
    7100    235.51546   -355.19216       229892   -22633.153    1674.3341   -24307.487    24.058919   0.88510766 
    7200    229.19576   -304.09582       229892   -22688.278    1629.4058   -24317.684    24.289763   0.88510766 
    7300    227.87364   -324.74391       229892   -22720.179    1620.0066   -24340.186    24.844575   0.88510766 
    7400    229.36488   -170.41441       229892   -22675.626    1630.6081   -24306.234      25.0647   0.88510766 
    7500    240.05113   -353.45254       229892   -22647.843    1706.5791   -24354.422    25.350026   0.88510766 
    7600    233.97454   -341.98305       229892   -22616.154    1663.3793   -24279.533    25.544423   0.88510766 
    7700    233.40295   -333.55596       229892   -22636.654    1659.3157    -24295.97    25.716875   0.88510766 
    7800    228.43365   -405.91371       229892    -22692.06    1623.9878   -24316.047    25.834605   0.88510766 
    7900    235.51226   -223.60902       229892   -22664.506    1674.3113   -24338.817    25.863371   0.88510766 
    8000    235.04107   -418.12484       229892   -22604.164    1670.9615   -24275.126     26.14556   0.88510766 
    8100    238.62182    -429.2964       229892   -22587.373    1696.4179   -24283.791    26.098223   0.88510766 
    8200    236.65068   -250.02586       229892   -22597.552    1682.4046   -24279.957    26.091001   0.88510766 
    8300    236.40719   -290.63917       229892   -22543.715    1680.6736   -24224.388    26.298293   0.88510766 
    8400    239.06598   -558.26258       229892   -22537.763    1699.5755   -24237.339    26.202478   0.88510766 
    8500    235.77918   -335.34177       229892   -22576.712    1676.2089   -24252.921    26.384916   0.88510766 
    8600    238.70993   -247.73051       229892   -22589.674    1697.0443   -24286.718    26.751047   0.88510766 
    8700    234.40994   -159.28145       229892    -22613.16    1666.4746   -24279.635    27.220813   0.88510766 
    8800    233.78483   -488.36952       229892   -22607.952    1662.0306   -24269.982    27.714667   0.88510766 
    8900    230.70557   -300.71568       229892   -22630.856    1640.1394   -24270.996    27.690192   0.88510766 
    9000    235.73434   -163.17237       229892   -22598.006    1675.8901   -24273.896    27.920061   0.88510766 
    9100    229.56682   -401.18692       229892   -22626.571    1632.0438   -24258.615    28.442336   0.88510766 
    9200     234.6776   -252.86468       229892   -22579.736    1668.3775   -24248.113    28.852458   0.88510766 
    9300    232.32507   -213.34247       229892   -22654.685    1651.6528   -24306.338    29.284789   0.88510766 
    9400    239.79322   -250.37069       229892   -22623.129    1704.7456   -24327.875     29.58246   0.88510766 
    9500    226.14915   -400.68697       229892   -22673.402    1607.7467   -24281.149    29.930781   0.88510766 
    9600    235.65001   -309.28008       229892   -22662.149    1675.2906   -24337.439     30.38607   0.88510766 
    9700    236.51396   -199.47086       229892   -22620.256    1681.4326   -24301.689    30.652812   0.88510766 
    9800    235.88243   -354.76022       229892   -22581.688    1676.9429   -24258.631    30.674594   0.88510766 
    9900    241.87473   -429.63482       229892   -22603.724    1719.5436   -24323.268    30.999958   0.88510766 
   10000    230.16213   -374.55961       229892   -22596.154    1636.2759    -24232.43    31.324978   0.88510766 
Loop time of 18.7171 on 120 procs for 10000 steps with 9010 atoms

Performance: 230.805 ns/day, 0.104 hours/ns, 534.271 timesteps/s
98.0% CPU use with 120 MPI tasks x no OpenMP threads

MPI task timing breakdown:
Section |  min time  |  avg time  |  max time  |%varavg| %total
---------------------------------------------------------------
Pair    | 0.00046921 | 4.3511     | 15.771     | 246.3 | 23.25
Neigh   | 0.0004003  | 0.13855    | 0.52355    |  45.8 |  0.74
Comm    | 0.019007   | 7.6522     | 17.121     | 216.8 | 40.88
Output  | 0.17687    | 0.17702    | 0.18392    |   0.2 |  0.95
Modify  | 0.48789    | 6.2672     | 18.387     | 290.0 | 33.48
Other   |            | 0.131      |            |       |  0.70

Nlocal:    75.0833 ave 232 max 0 min
Histogram: 55 5 27 3 0 0 0 0 4 26
Nghost:    604.033 ave 1008 max 0 min
Histogram: 10 7 3 1 9 20 30 10 20 10
Neighs:    0 ave 0 max 0 min
Histogram: 120 0 0 0 0 0 0 0 0 0
FullNghs:  7464.15 ave 29064 max 0 min
Histogram: 70 20 0 0 0 0 0 2 14 14

Total # of neighbors = 895698
Ave neighs/atom = 99.4115
Neighbor list builds = 570
Dangerous builds = 0
write_data 	    ${DIR}/data.${NAME}_eq
write_data 	    run_20/data.${NAME}_eq
write_data 	    run_20/data.ibeam_cooling_20_eq

undump              1
unfix               4



################################################
#######         Run Simulation         #########
################################################

reset_timestep      0
timestep	    10.0
log                 ${DIR}/log.run_${NAME}
log                 run_20/log.run_${NAME}
log                 run_20/log.run_ibeam_cooling_20
