
# Set production fixes - Nose/Hoover
#
fix                 4 water temp/csvr ${START_TEMP} ${END_TEMP} 500.0 928347
fix                 4 water temp/csvr 235 ${END_TEMP} 500.0 928347
fix                 4 water temp/csvr 235 225 500.0 928347


## divide "droplet" into core and surface
#region		core_reg cylinder z 135 135 44.6 20 INF units box
#region		surface_reg cylinder z 135 135 44.6 20 INF units box side out
#group		core dynamic all region core_reg
#group		surface dynamic all region surface_reg

## compute pressure core
#compute        peratom_core core stress/atom NULL
#compute        p_core core reduce sum c_peratom_core[1] c_peratom_core[2] c_peratom_core[3]
#variable       press_core equal -(c_p_core[1]+c_p_core[2]+c_p_core[3])/(3*1249982.5)


## compute pressure surface
#compute        peratom_surf surface stress/atom NULL
#compute        p_surf surface reduce sum c_peratom_surf[1] c_peratom_surf[2] #c_peratom_surf[3]
#variable       press_surf equal -(c_p_surf[1]+c_p_surf[2]+c_p_surf[3])/(3*42395)

## compute total pressure of drop
compute        peratom water stress/atom NULL
compute        p water reduce sum c_peratom[1] c_peratom[2] c_peratom[3]
variable       press equal -(c_p[1]+c_p[2]+c_p[3])/(3*58187)


# compute order parameter
compute        3 all orientorder/atom nnn NULL cutoff 3.5

# compute center of mass of bridge
compute 	4 water com

# Run simulation
thermo_style        custom step c_2 press vol etotal ke pe v_press c_1[4] c_4[*]
thermo              200
dump		     1 water custom 400 ${DIR}/prod.${NAME}.dump id type x y z vx vy vz c_3[*] c_peratom[*]
dump		     1 water custom 400 run_20/prod.${NAME}.dump id type x y z vx vy vz c_3[*] c_peratom[*]
dump		     1 water custom 400 run_20/prod.ibeam_cooling_20.dump id type x y z vx vy vz c_3[*] c_peratom[*]
run                 ${STEPS}
run                 4000000
Neighbor list info ...
  update every 1 steps, delay 0 steps, check yes
  max neighbors/atom: 2000, page size: 100000
  master list distance cutoff = 6.67472
  ghost atom cutoff = 6.67472
  binsize = 3.33736, bins = 24 22 12
  2 neighbor lists, perpetual/occasional/extra = 1 1 0
  (1) pair sw, perpetual
      attributes: full, newton on
      pair build: full/bin/atomonly
      stencil: full/bin/3d
      bin: standard
  (2) compute orientorder/atom, occasional, copy from (1)
      attributes: full, newton on
      pair build: copy
      stencil: none
      bin: none
Per MPI rank memory allocation (min/avg/max) = 0.8661 | 6.23 | 7.207 Mbytes
Step c_2 Press Volume TotEng KinEng PotEng v_press c_1[4] c_4[1] c_4[2] c_4[3] 
       0    230.16213   -374.55961       229892   -22596.154    1636.2759    -24232.43   -944.53515    31.324978    39.442616    35.562645    26.674766 
     200    231.41189   -407.85172       229892   -22606.558    1645.1608   -24251.719   -1098.1639    32.612254    39.443619    35.561899    26.688136 
     400    238.64456   -342.15064       229892   -22585.983    1696.5795   -24282.563    -791.6494    33.846887    39.444402    35.557211     26.69911 
     600     237.1359   -233.72585       229892   -22483.234    1685.8541   -24169.088    -392.0364     35.18717    39.445242    35.555597    26.694995 
     800    237.18825   -465.06054       229892   -22493.933    1686.2263   -24180.159   -1285.3773    36.569017    39.445459     35.55569    26.699557 
    1000    228.25107   -430.65253       229892   -22516.192    1622.6898   -24138.882   -1150.0711    37.285404    39.446928    35.554671    26.689872 
    1200    236.43646   -345.09729       229892   -22482.254    1680.8816   -24163.136   -794.92785    38.521894    39.445208    35.552781    26.690476 
    1400    234.58917   -526.05868       229892   -22491.665    1667.7488   -24159.414   -1502.5502    40.732689    39.445401    35.552357    26.694111 
    1600    235.27279   -256.23239       229892    -22495.85    1672.6089   -24168.459   -470.71151    42.459274    39.444353    35.552749    26.698714 
    1800    239.89775   -411.81957       229892   -22511.479    1705.4887   -24216.968   -1080.5055    43.124279    39.447086    35.553084    26.695284 
    2000    238.24938   -321.82077       229892   -22472.946    1693.7701   -24166.716   -720.32615    44.334568    39.449099    35.551844      26.7212 
    2200     236.0299   -539.18129       229892   -22569.316    1677.9913   -24247.307   -1560.1573    45.051522    39.448258    35.550287    26.715176 
    2400    236.26466   -478.23835       229892    -22518.51    1679.6603    -24198.17   -1275.2708    46.095016    39.446542    35.549665    26.713695 
    2600    239.93985   -324.92918       229892   -22583.305     1705.788   -24289.093   -723.66895    47.558034    39.444904    35.548507    26.722672 
    2800    237.22009   -225.66273       229892   -22510.403    1686.4527   -24196.856   -330.38147     47.73944    39.445915    35.546553    26.697691 
    3000    242.94806   -278.69876       229892   -22515.615    1727.1741   -24242.789   -539.54983    49.152375    39.447073    35.546701    26.691388 
    3200    232.44273   -436.31318       229892   -22568.194    1652.4893   -24220.683   -1180.5274    50.694275    39.447403    35.546545    26.693111 
    3400    233.45363   -400.80813       229892   -22556.898     1659.676   -24216.574   -1007.7946    51.617567    39.448639    35.546167    26.693383 
    3600    228.42822   -342.60009       229892   -22553.363    1623.9492   -24177.313    -810.0982    52.935503    39.448502    35.544196    26.688961 
    3800    234.06904    -444.7006       229892   -22541.601    1664.0511   -24205.652   -1223.5213     54.55648    39.451979    35.542081    26.684563 
    4000     238.1251   -385.07125       229892   -22599.844    1692.8866   -24292.731     -973.425    56.201455     39.45317    35.538511    26.686882 
    4200    232.84631   -476.47302       229892   -22565.577    1655.3584   -24220.935   -1333.1955    57.693355    39.454342    35.538665    26.707613 
    4400    236.86372    -487.3685       229892   -22632.855    1683.9191   -24316.774   -1377.9898    58.595181     39.45488    35.536356    26.708161 
    4600    231.63401   -409.84149       229892   -22725.365    1646.7399   -24372.105   -1050.3555    60.542318    39.456293    35.537796    26.704467 
    4800    235.07014   -470.20864       229892   -22564.255    1671.1681   -24235.423   -1279.6576    61.236985     39.45563    35.537945     26.70873 
    5000    228.89157   -416.24652       229892   -22580.599    1627.2433   -24207.842   -1106.4092    62.243098    39.455884    35.538974    26.720038 
    5200    227.14514   -166.37922       229892   -22556.878    1614.8275   -24171.705   -115.88796    63.628692      39.4554    35.540369    26.729638 
    5400    235.13589    -333.6078       229892   -22567.516    1671.6356   -24239.152   -783.88988    64.763347    39.454523    35.540423    26.728862 
    5600    238.36354   -304.57414       229892   -22566.024    1694.5817   -24260.606   -657.90631    65.921967    39.454344    35.541926    26.742938 
    5800    237.82712   -223.32183       229892    -22526.74    1690.7682   -24217.509    -288.4516    67.270931    39.453464    35.543395    26.748721 
    6000    236.70303   -248.12622       229892   -22564.445    1682.7767   -24247.222   -455.00142    68.713453    39.455428    35.542642    26.742104 
    6200    229.95383   -315.47735       229892   -22595.323    1634.7951   -24230.118   -697.06615    69.878481    39.456222     35.54446    26.728558 
    6400    233.99916   -297.23976       229892   -22575.223    1663.5543   -24238.777   -644.27401    70.782904    39.454662    35.545044     26.73345 
    6600    233.10272    -306.6062       229892    -22558.82    1657.1813   -24216.001   -658.90545    72.309573    39.455324    35.545963    26.726712 
    6800    234.33096   -451.91985       229892   -22550.542    1665.9132   -24216.455   -1227.3423    73.370669    39.457148    35.545324    26.732615 
    7000    235.84219   -311.40783       229892   -22494.899    1676.6568   -24171.556   -673.12115    76.043227    39.455982    35.546501    26.734225 
    7200     233.9629    -366.5059       229892   -22621.962    1663.2965   -24285.258   -898.44071    77.307146     39.45725    35.545568    26.744439 
    7400    235.00538   -208.47513       229892   -22581.661    1670.7078   -24252.369   -251.08384    78.462249    39.456617    35.545079    26.753505 
    7600    234.77395   -210.44723       229892   -22490.207    1669.0625   -24159.269   -241.70497    78.261367    39.456534    35.545145    26.771539 
    7800    229.66711   -186.30581       229892   -22574.348    1632.7568   -24207.105   -198.24397    79.437543    39.457151    35.543555    26.787069 
    8000    239.13823   -254.88572       229892   -22459.932    1700.0892   -24160.021   -457.48398    80.626134    39.459099    35.541989    26.772113 
    8200     232.6556   -519.18103       229892   -22496.863    1654.0026   -24150.865    -1490.081    82.151838    39.457941    35.545983    26.761771 
    8400    236.39135   -353.08122       229892   -22466.575    1680.5609   -24147.136   -815.16725    84.612077    39.457305      35.5468    26.771142 
    8600    242.09003   -463.00928       229892   -22523.408    1721.0742   -24244.483   -1265.8054    86.020326    39.455895    35.546444    26.798282 
    8800    231.83576   -305.86536       229892   -22513.651    1648.1742   -24161.826   -673.98977    86.922883    39.455671     35.54457    26.791014 
    9000    236.81902   -403.03913       229892   -22548.372    1683.6013   -24231.973   -1068.6016    88.831026     39.45559    35.544807    26.802518 
    9200    233.62156   -511.62993       229892   -22503.258    1660.8698   -24164.127   -1445.1163    90.892404     39.45908    35.545723    26.807398 
    9400    240.34144   -568.77548       229892   -22529.722     1708.643   -24238.365    -1735.396     91.60562    39.459896    35.546656    26.803764 
    9600    232.87977   -507.91147       229892   -22606.461    1655.5963   -24262.057   -1446.1009    92.449923    39.461529    35.545384    26.805205 
    9800    238.39966   -321.98874       229892   -22546.175    1694.8385   -24241.013   -683.96716    93.605713    39.461468    35.542654    26.812965 
   10000    234.26294   -305.22388       229892   -22601.871    1665.4295   -24267.301   -674.85207    94.348976    39.460229    35.540972    26.797968 
   10200    238.81584   -297.56601       229892   -22511.827    1697.7972   -24209.624   -588.21615    95.886188    39.459309    35.537831     26.79525 
   10400    241.44581   -249.19913       229892    -22529.54    1716.4942   -24246.034    -491.5669    95.904723    39.458377    35.538221    26.785464 
   10600     230.6705   -321.53496       229892   -22570.942    1639.8901   -24210.832   -721.64423    97.225633      39.4593    35.538658    26.780623 
   10800     234.3701    -350.3351       229892   -22609.371    1666.1914   -24275.562   -866.90858    97.573158    39.460734    35.538185    26.771938 
   11000    232.03607   -408.51559       229892   -22620.444    1649.5982   -24270.042   -1054.2352    98.137189    39.462277    35.536114    26.771294 
   11200    235.05615   -447.03143       229892   -22606.001    1671.0687    -24277.07   -1224.6558     99.89531    39.463284    35.536966    26.787612 
   11400    229.93507   -205.39724       229892   -22604.462    1634.6618   -24239.124   -278.96174    101.42058     39.46318    35.537452     26.78467 
   11600    238.10689   -437.39666       229892   -22509.165    1692.7571   -24201.922   -1174.9901    103.28459    39.461727    35.537242    26.774157 
   11800    231.75141   -209.90536       229892   -22492.995    1647.5745    -24140.57   -275.12347    104.82211    39.462984    35.534833    26.782702 
   12000    235.31418   -235.17919       229892   -22493.409    1672.9031   -24166.312   -420.20793    106.22912    39.462326    35.535911    26.786886 
   12200    235.81743   -313.08599       229892   -22482.641    1676.4808   -24159.121    -726.5154    108.79963    39.460164    35.536236    26.786452 
   12400     235.5282   -563.17922       229892   -22498.118    1674.4246   -24172.542   -1658.8204    110.58114    39.461094    35.536085    26.784612 
   12600    242.60239   -181.86401       229892   -22431.244    1724.7166   -24155.961   -170.24783    111.44195    39.462273    35.536775    26.799641 
   12800    237.42908    -314.1818       229892   -22469.169    1687.9384   -24157.107   -717.84129    111.89826    39.464448    35.538834    26.784841 
   13000    231.02003   -482.41264       229892   -22507.557     1642.375   -24149.932   -1302.7541    113.97533    39.465679    35.538755    26.785669 
   13200     230.4988   -372.52603       229892   -22565.466    1638.6694   -24204.136   -952.63005    115.06952    39.465247    35.537942    26.786277 
   13400    226.32083   -309.13518       229892   -22651.641    1608.9673   -24260.609   -690.58803     116.4321    39.465915    35.538072    26.776729 
   13600     229.7375   -239.05432       229892   -22561.648    1633.2572   -24194.905   -451.68616    118.19855    39.465396    35.536557    26.765169 
   13800    236.93092   -232.09777       229892   -22501.291    1684.3969   -24185.688   -376.89182    120.05145    39.464168     35.53624    26.758988 
   14000    236.94997   -272.77829       229892    -22433.42    1684.5323   -24117.952   -531.49497    120.77141    39.461953    35.534419    26.751975 
   14200    238.16718   -520.35485       229892   -22504.175    1693.1858    -24197.36   -1487.0728    122.42636    39.462004    35.533302    26.764599 
   14400    232.46922   -350.25995       229892   -22575.001    1652.6776   -24227.679   -837.90299    123.46718    39.462547    35.535544    26.761421 
   14600    233.47897   -232.10305       229892   -22564.703    1659.8562   -24224.559   -380.30011    123.97921    39.462589    35.533862    26.748749 
   14800    235.79498   -335.95369       229892   -22515.319    1676.3212   -24191.641   -763.37909    124.70789    39.463939    35.530893    26.741286 
   15000    237.61882   -548.60722       229892   -22578.454    1689.2873   -24267.742   -1616.1259    125.51272    39.464167    35.529584    26.734437 
   15200    240.64372   -352.15694       229892   -22534.023     1710.792   -24244.815   -835.02011    126.92695     39.46476    35.528877    26.728775 
   15400    229.95769   -544.56477       229892   -22560.319    1634.8226   -24195.141   -1574.3603    127.20983    39.466511    35.528184    26.711035 
   15600    242.29319   -326.27204       229892   -22448.805    1722.5185   -24171.323   -723.76278    128.46533    39.465243    35.528666    26.713249 
   15800     237.1614   -210.70254       229892   -22497.753    1686.0354   -24183.789   -273.23119    128.74638    39.464406    35.527972    26.709821 
   16000    236.38903   -563.49694       229892   -22505.409    1680.5444   -24185.954   -1637.8725    131.74389    39.464958    35.527111    26.708627 
   16200    240.34193   -347.38487       229892   -22476.337    1708.6466   -24184.983   -818.32017    132.39314    39.464773    35.527268     26.71367 
   16400    232.45585   -429.60427       229892   -22493.766    1652.5825   -24146.349   -1122.2007    134.18728    39.464658    35.526909    26.723594 
   16600    241.35114   -437.08315       229892   -22460.074    1715.8212   -24175.895   -1224.5788    134.40366    39.465282    35.528801    26.720274 
   16800    234.43414   -417.69007       229892   -22522.805    1666.6467   -24189.451   -1131.8107    136.06585    39.465077    35.528112    26.729388 
   17000    232.11894   -444.76889       229892   -22577.766    1650.1874   -24227.954   -1186.4462    136.76328    39.464323    35.528863    26.725554 
   17200    237.29905   -338.15035       229892   -22585.891     1687.014   -24272.905   -794.86676    137.56681    39.462286    35.528305     26.70201 
   17400    228.24494   -310.64837       229892     -22680.3    1622.6462   -24302.946     -688.434    139.72124    39.464558    35.528437    26.700873 
   17600     236.0247   -435.56865       229892   -22590.153    1677.9544   -24268.107   -1185.1803    139.88472    39.465785    35.529622    26.693013 
   17800    229.79076   -413.61485       229892   -22581.056    1633.6358   -24214.692   -1052.9202    140.35466     39.46688    35.530127    26.691496 
   18000    236.84665   -352.65227       229892   -22551.925    1683.7978   -24235.722   -840.98159    142.09924    39.468632    35.529668    26.693661 
   18200    235.70063   -335.75276       229892   -22588.452    1675.6505   -24264.102   -762.39143    143.75493    39.468287    35.527258    26.709463 
   18400    230.83515   -510.77046       229892   -22567.468    1641.0606   -24208.528   -1433.8013    144.58646    39.468501    35.525526    26.707537 
   18600    237.48477   -420.14379       229892   -22571.392    1688.3343   -24259.726    -1131.839    143.93659    39.468622    35.523472    26.706434 
   18800    235.09605   -279.83094       229892   -22623.971    1671.3523   -24295.323   -603.90206    145.79408    39.469142    35.522623    26.697407 
   19000    231.86343   -319.01443       229892   -22548.134    1648.3709   -24196.505   -737.20885    146.69413    39.468783    35.520413    26.690564 
   19200    232.58986   -339.59594       229892   -22559.296    1653.5353   -24212.831   -768.87139    148.73247    39.468415    35.519777    26.680809 
   19400    238.00341   -451.49715       229892   -22463.476    1692.0214   -24155.497   -1215.2134    149.59266    39.466575    35.520626    26.675959 
   19600    234.69127   -272.76192       229892   -22515.279    1668.4747   -24183.754   -519.62359    151.31419     39.46545    35.519619    26.673299 
   19800     241.1783   -403.13626       229892   -22503.922    1714.5925   -24218.514   -1027.7458    152.39356     39.46422    35.517416     26.65554 
   20000    235.04413    -374.6317       229892   -22560.353    1670.9833   -24231.336   -918.43966    154.24247     39.46513    35.514666    26.650564 
   20200    229.38876   -287.56337       229892   -22644.128    1630.7779   -24274.906   -589.02477    154.40983     39.46496    35.515025    26.660973 
   20400    239.36174   -327.16575       229892   -22548.095    1701.6781   -24249.773   -744.31803    155.44511    39.463819    35.516168    26.656394 
   20600    239.18013   -302.89649       229892    -22618.67    1700.3871   -24319.057   -624.57055    156.61861    39.462926    35.514891    26.645311 
   20800    237.13102    -267.7752       229892    -22551.52    1685.8194   -24237.339    -551.1864    158.30134    39.462818    35.514948    26.639192 
   21000     237.6169   -280.04162       229892   -22569.987    1689.2736   -24259.261   -557.59064    159.05139    39.461655    35.514407     26.64816 
   21200    233.02094   -468.46308       229892     -22553.8    1656.5999     -24210.4   -1306.6943    160.81162    39.461339    35.516329    26.642912 
   21400     234.0982   -289.72078       229892   -22539.094    1664.2584   -24203.353   -628.14676    161.49195    39.458977    35.516841    26.651837 
   21600     238.9212    -412.0417       229892   -22449.021    1698.5462   -24147.567   -1080.4027    162.93368    39.457662    35.515148    26.647102 
   21800    235.28108   -360.40517       229892    -22597.27    1672.6678   -24269.938   -867.96614    162.75929    39.456554     35.51338     26.64088 
   22000    229.99269   -289.35965       229892   -22663.567    1635.0714   -24298.639   -577.38271    163.03158    39.456515    35.515745     26.65509 
   22200     231.9058   -411.53929       229892   -22697.288    1648.6721    -24345.96   -1062.9745    164.49783    39.455947    35.515979     26.65425 
   22400    235.63936    -347.8231       229892   -22512.664    1675.2149   -24187.879   -774.66261    166.05683    39.456011    35.515315    26.660387 
   22600    234.08932   -327.40078       229892   -22570.208    1664.1953   -24234.403   -733.44824    166.96933    39.456791    35.516214     26.65124 
   22800    241.82097    -332.4769       229892   -22556.709    1719.1614    -24275.87   -749.21096    167.27579    39.456638    35.515531    26.662408 
   23000    228.25542   -331.16894       229892   -22583.358    1622.7207   -24206.079   -723.00772    167.88588    39.458076    35.517312    26.672408 
   23200    240.34897   -298.03746       229892   -22550.441    1708.6966   -24259.137   -622.95231    167.95594     39.45814    35.517848    26.674918 
   23400    234.87583   -239.16035       229892   -22536.969    1669.7868   -24206.756   -404.52736     168.8481    39.460625    35.520377    26.684264 
   23600    240.14664   -395.37426       229892   -22453.773    1707.2582   -24161.031   -1050.4447    169.22329    39.461691    35.519959    26.685948 
   23800    235.86286   -368.73925       229892   -22490.839    1676.8038   -24167.642   -923.23755    171.25632    39.462082    35.519375    26.688576 
   24000    237.61295   -230.56111       229892    -22552.22    1689.2456   -24241.465   -344.89435    172.30836    39.461023    35.517859    26.693826 
   24200    233.06089   -521.14149       229892   -22556.394    1656.8839   -24213.278   -1513.6509    174.70312    39.459813    35.517907    26.683705 
   24400    239.01553   -278.46152       229892   -22613.836    1699.2169   -24313.053    -524.2461    176.11042    39.458359    35.517531    26.695989 
   24600    229.15166   -340.61153       229892   -22618.299    1629.0923   -24247.391   -775.57666    176.48616    39.454937    35.516097    26.691099 
   24800    238.68364   -485.63491       229892   -22606.444    1696.8573   -24303.302   -1354.6547    176.99065    39.456151    35.516033    26.705605 
   25000    231.42361   -309.55582       229892   -22635.172    1645.2441   -24280.416   -608.34406    178.29066    39.456028    35.514252    26.713432 
   25200    225.82618   -381.09077       229892   -22747.592    1605.4507   -24353.042   -954.94622    180.68093    39.455495    35.513608    26.683465 
   25400    234.12345   -373.39079       229892   -22588.905    1664.4379   -24253.343   -931.01456    180.63084    39.455358    35.514767    26.668929 
   25600     240.0506    -345.8553       229892   -22479.431    1706.5754   -24186.006   -828.48505    182.36121     39.45585    35.515362    26.679738 
   25800    241.40828   -375.68787       229892   -22538.577    1716.2275   -24254.805     -955.983    183.36403    39.454481    35.512693    26.664564 
   26000    240.19972   -407.33646       229892   -22592.201    1707.6355   -24299.836   -1059.6831    184.20733    39.455027    35.513283    26.653599 
   26200    238.26999   -191.59151       229892   -22599.609    1693.9166   -24293.526   -169.26214    185.08364    39.456299    35.514164    26.652676 
   26400    235.94957    -410.3539       229892   -22623.617    1677.4202   -24301.037   -1095.0078    186.23544    39.458478    35.515235    26.659212 
   26600    234.17069   -411.92376       229892   -22550.331    1664.7737   -24215.105   -1071.3614    185.74388    39.460977      35.5158    26.661832 
   26800    236.48576   -471.61669       229892   -22556.778    1681.2321    -24238.01   -1284.1533    187.78707    39.462019    35.518426    26.682518 
   27000    235.78237   -352.01067       229892   -22459.771    1676.2315   -24136.003   -835.51431    188.73699    39.461754    35.516726    26.680542 
   27200    237.43919   -414.53719       229892   -22530.152    1688.0103   -24218.162   -1081.4434    190.69147    39.460964    35.515777    26.657608 
   27400    236.50325   -239.87835       229892   -22485.713    1681.3565   -24167.069   -386.68292      191.481    39.462166    35.514893    26.665018 
   27600    230.53606   -434.05673       229892   -22637.791    1638.9343   -24276.725   -1150.7348    193.24166    39.464576    35.513891    26.662563 
   27800    238.74165   -346.53917       229892   -22496.449    1697.2698   -24193.719   -797.84294    192.79549    39.464065     35.51269    26.660405 
   28000    225.15561   -391.37291       229892   -22585.262    1600.6834   -24185.946   -1012.7716    194.39515    39.466207    35.511033    26.658015 
   28200    232.91535   -379.21869       229892   -22532.674    1655.8492   -24188.523   -954.71409    197.86433    39.467835    35.511169    26.644754 
   28400    233.19056   -380.95045       229892   -22559.606    1657.8058   -24217.412   -951.08555    198.83712    39.469704    35.511056    26.635781 
   28600     230.6527   -469.23316       229892   -22552.964    1639.7635   -24192.727    -1293.403    200.15179    39.470519    35.511956     26.63598 
   28800    234.44957   -268.53614       229892   -22570.912    1666.7564   -24237.669   -582.67898    199.38643    39.468722    35.512328    26.628459 
   29000    235.48436   -264.85713       229892   -22552.923     1674.113   -24227.036   -492.81142     200.0683    39.469896    35.510822    26.638728 
   29200    237.59612   -332.00289       229892   -22497.015    1689.1259   -24186.141   -795.23873    202.18002    39.470477    35.511556    26.658849 
   29400    236.37383   -395.75796       229892   -22513.604    1680.4364    -24194.04   -1018.5255    203.54303    39.472523     35.51248    26.661542 
   29600    236.14325   -317.76187       229892   -22504.252    1678.7971   -24183.049   -711.15146    204.91047    39.471928    35.515541    26.646202 
   29800    233.49668   -251.86738       229892   -22625.667     1659.982   -24285.649   -474.17786    205.64244    39.472814    35.516928     26.65808 
   30000    228.74036   -299.15441       229892   -22711.318    1626.1683   -24337.487   -616.26824    205.34062    39.473493    35.516968    26.673173 
   30200    237.42063   -508.72913       229892   -22607.011    1687.8783   -24294.889   -1448.0219    205.92774    39.473841     35.51624    26.686059 
   30400    232.11956   -391.39439       229892   -22621.088    1650.1918   -24271.279   -1014.8701    207.86236    39.473935     35.51652    26.667905 
   30600    229.65477   -203.73064       229892   -22647.286     1632.669   -24279.955   -258.41472    209.15411    39.475481    35.518701    26.675911 
   30800    231.83191   -508.84439       229892   -22611.591    1648.1468   -24259.738   -1451.7061    208.76746    39.475615    35.519622     26.69034 
   31000    238.81892   -245.92979       229892   -22584.618    1697.8191   -24282.437   -381.80301    210.46027    39.474085    35.519068    26.681046 
   31200    236.15113   -189.96625       229892    -22572.37    1678.8532   -24251.223   -220.96932    211.97832    39.473546    35.520361    26.667404 
   31400    239.33089   -348.50303       229892   -22521.899    1701.4588   -24223.358   -788.50574    213.67767    39.473294    35.517565    26.658278 
   31600    227.28086   -283.24932       229892   -22583.605    1615.7924   -24199.398   -573.38582    215.31483    39.474663    35.514797    26.663723 
   31800     239.4237   -497.26009       229892    -22518.08    1702.1186   -24220.199   -1376.3978    216.35214    39.473716    35.513966    26.673128 
   32000    239.45572   -319.01865       229892   -22610.657    1702.3463   -24313.004   -699.10299     216.1158    39.475196    35.513172    26.656953 
   32200    236.85672    -496.7078       229892   -22617.973    1683.8694   -24301.842   -1394.7672    218.38613     39.47364    35.515056    26.656771 
   32400    232.20085   -348.02267       229892   -22627.973    1650.7697   -24278.743   -807.70508    220.41125    39.472224    35.517428    26.672579 
   32600    233.61651   -331.71554       229892    -22550.33     1660.834   -24211.164   -750.67802     221.6073    39.470697    35.516903    26.672994 
   32800    237.96212   -408.63338       229892   -22541.549    1691.7279   -24233.277   -1048.7555     221.2782    39.470726     35.51702    26.675783 
   33000    239.45554   -289.06995       229892   -22535.335     1702.345    -24237.68   -596.89759    223.15656    39.470769    35.517716    26.683951 
   33200    228.82366    -279.8303       229892    -22532.55    1626.7605   -24159.311   -564.84087    223.93917    39.472289    35.517023    26.681359 
   33400    228.07898   -471.68438       229892   -22596.871    1621.4664   -24218.337   -1302.6295    224.96333    39.472136    35.514707    26.668124 
   33600    235.51561   -450.25408       229892   -22603.104    1674.3351   -24277.439   -1213.1454    226.66563     39.47387     35.51282    26.646428 
   33800      241.421   -391.23771       229892   -22474.109    1716.3179   -24190.427   -1008.0004    227.54908    39.473076    35.510689    26.627293 
   34000    234.56499   -629.29497       229892   -22548.827    1667.5769   -24216.404   -1887.6276    228.64203    39.472693    35.509649    26.628298 
   34200    241.46596   -396.02989       229892   -22561.752    1716.6375   -24278.389   -1001.4432    230.60827    39.474548    35.509863    26.640347 
   34400    232.83638   -251.02631       229892   -22585.249    1655.2878   -24240.537   -448.46673    230.48071    39.474496    35.509612    26.657265 
   34600    239.48159   -433.30469       229892   -22457.674    1702.5302   -24160.205   -1152.8185    232.87562    39.473825    35.510221    26.646913 
   34800    233.88218    -381.2771       229892   -22536.398    1662.7227    -24199.12   -951.04333    233.79055    39.473895    35.511787    26.651371 
   35000    235.51803   -334.55162       229892    -22582.66    1674.3523   -24257.012   -771.67958    234.76672    39.471428    35.512593    26.656595 
   35200     240.5353   -225.11409       229892    -22497.87    1710.0213   -24207.891   -340.77036    235.83828    39.470334     35.51044    26.646503 
   35400    236.29817   -628.79784       229892   -22490.691    1679.8985   -24170.589   -1917.9766    238.36584    39.470922    35.510502    26.628478 
   35600    239.29214   -494.56113       229892   -22507.175    1701.1833   -24208.358   -1384.2486    239.10032    39.470158    35.510023    26.640889 
   35800    234.69926   -364.12995       229892   -22389.724    1668.5315   -24058.256   -887.26861    240.67881     39.47072    35.512808    26.637797 
   36000    229.02817   -140.29131       229892   -22537.311    1628.2144   -24165.526     4.355681    239.98603    39.470856    35.511881     26.64986 
   36200    233.76631   -379.98795       229892   -22572.251    1661.8989    -24234.15   -961.83534    241.34036    39.472857    35.510965    26.660967 
   36400    235.88112   -350.84867       229892    -22520.48    1676.9336   -24197.414   -841.76819    244.44284    39.473133    35.511381    26.663557 
   36600    235.63823   -454.02665       229892   -22512.249    1675.2069   -24187.456   -1241.5209    246.22492    39.473316    35.511152    26.655663 
   36800    235.85464   -301.53847       229892    -22578.58    1676.7453   -24255.325   -612.66007    245.44258    39.474476    35.511917    26.651349 
   37000     226.5889   -434.84431       229892   -22581.755    1610.8731   -24192.628   -1160.2366    246.62539    39.473533    35.511771    26.659974 
   37200    234.84899   -476.57133       229892   -22601.074    1669.5959    -24270.67   -1286.6113    248.24217    39.473421    35.511561    26.666957 
   37400    232.33655   -455.43998       229892   -22610.348    1651.7344   -24262.083   -1227.4397    249.56738    39.474685    35.512828    26.681814 
   37600    231.46714    -332.0534       229892   -22630.262    1645.5536   -24275.815   -720.37509    250.92617    39.474356    35.515252    26.692238 
   37800    230.24536   -409.19563       229892   -22666.606    1636.8677   -24303.474   -1052.9897    252.10641    39.471918    35.513685    26.694443 
   38000    238.77282   -270.51284       229892    -22563.82    1697.4913   -24261.312   -498.98592     253.6396    39.472252    35.513465    26.722194 
   38200    236.15015   -377.73324       229892   -22599.733    1678.8462   -24278.579   -895.88558    253.90905    39.472054    35.514644    26.718327 
   38400    239.25479   -402.62035       229892   -22549.024    1700.9178   -24249.941   -1019.5413    253.43488    39.471415    35.514107    26.727569 
   38600    236.46871   -163.64012       229892   -22587.688    1681.1109   -24268.799   -99.025357    254.45416    39.470293    35.514002    26.705489 
   38800    238.71145   -369.28188       229892   -22559.071    1697.0551   -24256.126   -874.04738    257.08991    39.468993    35.514626    26.674666 
   39000    237.53805   -330.59147       229892    -22528.56    1688.7131   -24217.273   -746.12773    257.79142    39.467951    35.516681    26.664029 
   39200     232.8805   -261.00851       229892   -22602.776    1655.6015   -24258.378   -469.04016    259.75286    39.466944    35.517572    26.663157 
   39400     229.1969   -412.21193       229892   -22575.494     1629.414   -24204.908   -1034.4665    262.98816     39.46507    35.518493    26.658434 
   39600    238.20564    -261.1825       229892   -22491.123    1693.4591   -24184.582   -501.91984    262.79965    39.464383    35.518302    26.654368 
   39800    231.15785   -326.26937       229892   -22549.581    1643.3548   -24192.936   -717.27665    262.93108    39.466696    35.519906    26.647517 
   40000    236.53737   -345.93125       229892   -22540.456     1681.599   -24222.055   -825.61136    263.77368    39.466284    35.522725    26.656638 
   40200    231.39242   -330.75617       229892   -22548.799    1645.0224   -24193.822   -714.18276    262.81853    39.467438    35.524547    26.673629 
   40400    229.82111   -328.58753       229892   -22596.944    1633.8516   -24230.795   -715.65428     263.4094    39.465894    35.525425    26.675508 
   40600    240.79411   -286.94493       229892   -22516.207    1711.8612   -24228.068   -530.85634    267.12947     39.46594    35.527225    26.671535 
   40800    230.92524   -303.68235       229892   -22649.647    1641.7011   -24291.348   -593.30314    265.97965     39.46791    35.528154    26.676761 
   41000     237.0329   -340.66497       229892   -22600.514    1685.1219   -24285.636   -816.58491    265.02131    39.467588    35.529819    26.685916 
   41200    239.28455   -265.93212       229892    -22531.54    1701.1293    -24232.67   -445.36461    265.81435    39.466873    35.531574    26.690349 
   41400    234.09526   -195.14158       229892   -22589.683    1664.2375   -24253.921   -193.97545    267.94158    39.465848    35.531476    26.677543 
   41600    233.93206   -385.52078       229892   -22587.806    1663.0773   -24250.883   -928.86594    269.37106    39.465563    35.534166    26.661872 
   41800    234.07704    -381.8966       229892   -22565.485     1664.108   -24229.593   -983.41708      270.431    39.465111     35.53271    26.658188 
   42000    229.82856   -397.90839       229892   -22602.041    1633.9046   -24235.945   -995.30547     271.4603    39.464455    35.531358     26.64491 
   42200    232.04193   -427.06843       229892   -22682.283    1649.6399   -24331.923   -1154.4149    270.33868    39.465075    35.532186    26.664672 
   42400    237.18222   -254.09148       229892   -22636.025    1686.1834   -24322.209   -401.48225    272.63235    39.466625    35.532543     26.66622 
   42600    230.86952   -501.64564       229892   -22696.607     1641.305   -24337.912   -1435.8047     274.0612    39.468178    35.532334    26.683706 
   42800    238.30452   -368.30551       229892   -22608.891    1694.1621   -24303.053   -850.37721     274.5267    39.469543     35.53384    26.676336 
   43000     236.3387   -284.95827       229892   -22617.133    1680.1866    -24297.32   -545.82857     276.5768    39.470478    35.531769    26.667917 
   43200    234.85052    -402.7066       229892   -22659.809    1669.6068   -24329.416   -1013.3668    277.69673    39.469682    35.529697     26.66801 
   43400    236.37077   -385.46312       229892   -22619.496    1680.4146   -24299.911   -942.46169    279.18347     39.47135    35.528113    26.652082 
   43600    232.77122   -342.43303       229892   -22640.392    1654.8246   -24295.217   -760.37525    279.29402     39.47265     35.52794    26.661598 
   43800     231.4352   -320.93111       229892    -22650.38    1645.3265   -24295.707   -704.26593    278.91075    39.472134      35.5276    26.661664 
   44000    229.15375   -516.68568       229892   -22655.866    1629.1072   -24284.973   -1506.9911    279.54414    39.473025    35.527648     26.66035 
   44200    238.24656   -162.05034       229892   -22610.609    1693.7501   -24304.359   -64.191557    281.48491    39.472022    35.525824    26.657463 
   44400    236.98435   -337.67279       229892    -22668.69    1684.7767   -24353.466   -793.93409    283.20027    39.474089    35.524328     26.65166 
   44600    232.56384   -463.48883       229892   -22687.574    1653.3503   -24340.924   -1301.7968    285.50094    39.473367    35.523799    26.658495 
   44800    232.49067   -411.01158       229892   -22693.668    1652.8301   -24346.499   -1032.5694    285.25727    39.472116     35.52213    26.676225 
   45000    231.59582   -544.52324       229892   -22647.622    1646.4684   -24294.091   -1578.1794    286.44715    39.474093      35.5218    26.682276 
   45200    238.31451   -305.90998       229892   -22589.351    1694.2331   -24283.584   -608.55466    287.66135    39.475175    35.522006    26.677777 
   45400    228.01134   -400.16242       229892   -22669.594    1620.9855    -24290.58   -1005.8842    289.63763    39.477202    35.522648    26.673448 
   45600    240.27458   -280.72852       229892   -22557.209    1708.1677   -24265.377   -578.13198    292.13496    39.476734    35.522837    26.672549 
   45800     237.2005   -182.27841       229892    -22581.57    1686.3134   -24267.883    -162.3576    292.65669    39.475771    35.522185    26.668168 
   46000    241.56127    -345.9987       229892   -22573.858    1717.3151   -24291.173   -799.80177    292.89611    39.474467    35.518555    26.668722 
   46200    242.44427    -223.8804       229892   -22555.744    1723.5926   -24279.337   -294.71987    291.93476    39.474536    35.518638    26.677606 
   46400    230.02425   -313.65168       229892   -22594.848    1635.2958   -24230.144   -657.80805    291.63781    39.476172    35.516569    26.684555 
   46600    236.64332    -335.4331       229892   -22559.944    1682.3523   -24242.296    -777.6446    294.48822    39.476014      35.5117    26.698405 
   46800    234.96944   -642.22094       229892   -22547.801    1670.4523   -24218.253   -1928.2805    294.04726    39.477331    35.512462    26.700304 
   47000    232.04607   -476.30201       229892   -22541.708    1649.6694   -24191.377   -1323.0686     294.2729    39.476245    35.512212    26.694302 
   47200    230.89922   -293.59983       229892   -22676.059    1641.5161   -24317.575   -572.16804    293.84202    39.476239    35.512467    26.728279 
   47400    238.34736   -416.55561       229892   -22595.078    1694.4667   -24289.545     -1079.99    293.50935    39.475598    35.512702    26.728509 
   47600    236.32538   -431.29543       229892   -22609.904     1680.092   -24289.996   -1118.9999    296.61162    39.473594    35.514025    26.733179 
   47800    224.56374   -348.44153       229892   -22615.876    1596.4757   -24212.352   -848.48669     300.3486    39.469249    35.516163    26.734256 
   48000    233.29934   -342.29729       229892    -22605.64    1658.5792   -24264.219   -792.46955    301.89397    39.467365    35.515845    26.723877 
   48200    233.13226   -360.66192       229892   -22594.223    1657.3913   -24251.614   -844.28544    301.55249    39.468013    35.514868    26.735353 
   48400    236.96499   -578.81268       229892   -22602.053    1684.6391   -24286.693   -1751.9619    303.08542    39.468952    35.515786    26.745033 
   48600    236.65992   -321.81639       229892   -22708.205    1682.4703   -24390.675   -684.42915    305.13628    39.470918    35.516302    26.756099 
   48800     227.2912   -487.59307       229892    -22643.89    1615.8659   -24259.755   -1353.5053    306.00375    39.471742    35.516766    26.752934 
   49000    230.50682   -338.77277       229892   -22622.254    1638.7265   -24260.981   -800.95645    305.37008    39.470579    35.515178    26.760281 
   49200    228.51028   -135.13584       229892   -22555.545    1624.5326   -24180.078   -2.9290864     305.8301     39.47108    35.514134    26.741811 
   49400    237.07046   -443.20641       229892   -22615.702    1685.3889   -24301.091   -1165.7086     306.3249    39.469473    35.512884    26.723321 
   49600    232.05524   -339.98142       229892   -22599.857    1649.7346   -24249.591   -748.89078    307.99303    39.467975    35.511247     26.70832 
   49800     235.9057   -335.28435       229892    -22585.44    1677.1083   -24262.548   -794.73226    309.30644    39.468349    35.509152    26.716661 
   50000    232.72205   -339.48136       229892   -22580.157     1654.475   -24234.632   -748.36329    309.59026    39.468765    35.506988    26.727297 
   50200    236.80385   -271.68395       229892   -22494.036    1683.4935    -24177.53   -518.04544    308.89844    39.470234    35.508083    26.721016 
   50400    236.37789   -369.45244       229892   -22541.386    1680.4652   -24221.851   -851.80933     308.8543     39.47186    35.507351    26.729998 
   50600    237.93211   -401.60043       229892   -22482.342    1691.5145   -24173.856   -980.94715    308.93118    39.471575     35.50631    26.737873 
   50800    230.26849   -304.07589       229892   -22634.547    1637.0321   -24271.579    -639.3425    310.60575    39.470423    35.506912    26.731153 
   51000    233.14579   -520.18113       229892   -22591.249    1657.4875   -24248.737   -1486.3419    311.82587      39.4702    35.508871    26.735938 
   51200     233.6069   -445.76609       229892   -22636.428    1660.7657   -24297.194   -1222.4018    314.06183     39.47035    35.510823    26.740982 
   51400    236.19202   -506.31071       229892   -22606.443    1679.1439   -24285.586   -1431.1254    314.66549    39.474213    35.512897    26.753114 
   51600    233.33183   -269.05566       229892   -22626.462    1658.8101   -24285.272   -484.27302    317.15095    39.475253    35.511586    26.762233 
   51800    234.29393   -432.09165       229892    -22571.72    1665.6499    -24237.37   -1105.1893    322.30566    39.476986    35.510083    26.767331 
   52000    232.71725   -299.10199       229892   -22635.919    1654.4409    -24290.36     -623.474    321.81529    39.476894    35.510007    26.776529 
   52200    229.10323   -323.70693       229892   -22637.084     1628.748   -24265.832   -705.61236    323.62785    39.477649    35.511024    26.753595 
   52400    224.27702   -499.33931       229892   -22663.023    1594.4374   -24257.461   -1359.7731    324.51718    39.478604    35.514134    26.748391 
   52600     240.7712    -308.7138       229892   -22563.304    1711.6983   -24275.002   -635.97239    325.28619    39.482042     35.51406    26.750021 
   52800    236.59196   -388.82701       229892   -22533.572    1681.9871   -24215.559   -914.03141    327.95131    39.483257    35.515302    26.776668 
   53000    238.70965   -425.89848       229892   -22520.879    1697.0423   -24217.922   -1076.7505    329.68065    39.482342     35.51501     26.78887 
   53200    239.31724   -302.34515       229892   -22649.258    1701.3618   -24350.619   -600.95225    330.84749    39.480065    35.512424    26.772102 
   53400    237.51607   -160.81055       229892   -22616.013    1688.5568    -24304.57   -97.856071     331.5548    39.480547    35.510621    26.769837 
   53600    229.29133   -207.74912       229892   -22694.929    1630.0853   -24325.014   -252.99395    333.77169     39.48116    35.510397    26.767106 
   53800    234.41653   -353.88835       229892   -22649.499    1666.5215    -24316.02   -847.22744    333.79728    39.483129    35.511574    26.792349 
   54000    233.19137   -267.23938       229892   -22632.594    1657.8116   -24290.405   -437.17572    333.85454    39.485146    35.514951     26.80151 
   54200     235.4119   -322.22738       229892   -22574.225    1673.5978   -24247.823   -679.63058     335.9708    39.486097    35.516791    26.792065 
   54400    236.25483   -268.11087       229892   -22532.327    1679.5904   -24211.917   -468.04055    338.58703    39.488477    35.518583    26.789267 
   54600    231.54162    -431.0533       229892   -22525.859    1646.0831   -24171.942   -1133.6453    337.18284    39.487883    35.519244    26.784885 
   54800    234.94307   -450.54417       229892   -22500.213    1670.2648   -24170.478   -1188.8811    339.21853    39.488438    35.521057     26.77419 
   55000    237.56932   -243.10659       229892   -22495.686    1688.9354   -24184.621   -383.69938    341.02603    39.488624    35.521364    26.774038 
   55200    229.72462    -225.2863       229892   -22638.488    1633.1656   -24271.654    -344.8614    340.49279    39.490003    35.519972    26.764084 
   55400    237.09857   -102.17027       229892   -22610.122    1685.5887   -24295.711    147.87643    343.73448    39.491615    35.522512     26.76141 
   55600    239.71526   -328.95733       229892   -22609.045    1704.1914   -24313.237    -725.7477     344.4196    39.490758    35.522542    26.759816 
   55800    239.78004   -445.72619       229892   -22467.068    1704.6519    -24171.72   -1185.2442    343.13093    39.490218    35.521681    26.769968 
   56000    239.05539   -341.29509       229892   -22540.238    1699.5002   -24239.739   -793.43605    345.21591    39.490291    35.521767    26.773955 
   56200    231.70383   -419.54171       229892   -22572.009    1647.2363   -24219.246   -1094.6209    347.12633     39.49133    35.522984    26.759976 
   56400    229.97752   -284.86708       229892   -22605.155    1634.9635   -24240.119   -570.01405      349.043    39.490592    35.522641    26.742449 
   56600    231.81053   -339.81923       229892   -22683.996    1647.9948   -24331.991   -773.24604    352.21989    39.490525    35.522298    26.740685 
   56800    235.22947   -186.16205       229892   -22641.141    1672.3008   -24313.442   -188.06004     352.6058    39.491343    35.520907    26.760938 
   57000    237.64524   -212.56412       229892   -22686.497    1689.4752   -24375.972   -279.24921    353.64758    39.491039    35.523462    26.777411 
   57200    234.77924   -363.13406       229892   -22562.807    1669.1001   -24231.907   -817.40885    356.76188    39.491097    35.522889    26.791571 
   57400     233.3731   -598.68775       229892   -22584.558    1659.1035   -24243.661   -1764.8551    357.14249    39.489088    35.523388    26.819482 
   57600    235.23301   -350.65711       229892    -22628.73     1672.326   -24301.056   -816.28259     356.5151    39.487877    35.523357    26.805921 
   57800    233.58846   -359.16102       229892   -22563.341    1660.6345   -24223.975   -885.75015     357.9013     39.48754    35.523423    26.794671 
   58000    232.38051   -425.74196       229892   -22617.807     1652.047   -24269.854   -1133.0928    360.80277    39.488325    35.524522    26.806037 
   58200    232.96021    -207.1365       229892   -22604.121    1656.1681    -24260.29   -257.22196     363.4226    39.488751    35.525397    26.800311 
   58400    231.50537   -440.42501       229892   -22608.619    1645.8254   -24254.445   -1161.0266    362.96495    39.487981    35.524447    26.809474 
   58600    231.83338   -327.98662       229892    -22617.15    1648.1572   -24265.307   -730.00342     365.1518    39.488571    35.525253     26.80619 
   58800    236.07884    -319.3773       229892   -22556.506    1678.3392   -24234.845   -644.91792    364.28225    39.490796    35.525993    26.819683 
   59000     237.3991   -395.39134       229892   -22517.438    1687.7253   -24205.163   -1002.4061    365.36527    39.493631    35.525751    26.808639 
   59200    231.85371   -262.68067       229892   -22573.062    1648.3018   -24221.364   -486.66247     365.3035    39.492174    35.526723    26.789949 
   59400    228.72841    -259.7361       229892   -22574.581    1626.0833   -24200.665   -461.30836     365.6547    39.491052    35.527235    26.792504 
   59600    234.57407   -179.51129       229892    -22604.07    1667.6415   -24271.711    -147.6895    365.59062    39.491353    35.527707    26.771043 
   59800    236.36437   -339.52351       229892   -22573.044    1680.3692   -24253.413    -758.4416    362.97565     39.48999    35.529546    26.782717 
   60000    241.41409   -266.94839       229892   -22557.278    1716.2688   -24273.547   -489.21903    365.15439    39.491109     35.53183    26.778728 
   60200    238.69786   -418.99022       229892   -22571.286    1696.9585   -24268.244   -1070.4709    365.98728    39.493789    35.531737    26.771922 
   60400    230.25045   -624.51707       229892    -22543.06    1636.9039   -24179.964   -1905.5426    367.10796    39.496221    35.531592    26.774621 
   60600     235.1232   -293.02619       229892   -22535.096    1671.5453   -24206.641   -568.16774    367.82697      39.4974    35.530938    26.760401 
   60800    238.78474   -377.63853       229892   -22448.871    1697.5761   -24146.447   -908.19724    372.18593    39.500574    35.530259    26.756751 
   61000    237.98878   -336.80393       229892    -22556.23    1691.9175   -24248.148   -795.59472    373.52327    39.502482    35.531538    26.771987 
   61200    238.55206   -318.37861       229892   -22542.726    1695.9219   -24238.648   -707.00796    375.03438    39.503244    35.530782     26.78376 
   61400    235.58826   -344.85269       229892   -22548.386    1674.8516   -24223.238   -823.85338    375.91126    39.501706    35.531405    26.763621 
   61600     236.2082    -419.5196       229892   -22551.499    1679.2589   -24230.758   -1067.9058      378.278    39.502977    35.534081    26.784892 
   61800    230.83089   -299.01599       229892   -22591.591    1641.0303   -24232.622   -589.54489    380.20916    39.503863    35.535772     26.78673 
   62000    235.78204   -407.22622       229892   -22532.955    1676.2292   -24209.184   -1014.5592    382.24248    39.504752    35.534786    26.780751 
   62200    237.53191   -393.93711       229892   -22575.788    1688.6695   -24264.458   -974.88532    383.47489     39.50361      35.5352    26.767025 
   62400    232.86891   -403.26646       229892   -22584.992    1655.5191   -24240.511   -999.63107    383.41795    39.500274    35.536223    26.754568 
   62600    232.24388   -383.27909       229892   -22604.727    1651.0757   -24255.802   -929.25972    384.66664    39.499556    35.534314    26.768286 
   62800    230.49092   -320.43435       229892   -22678.266    1638.6134   -24316.879    -694.4852     385.7143    39.499153    35.533473    26.764857 
   63000     235.1133   -360.42923       229892   -22578.123     1671.475   -24249.598   -870.30044    387.82591    39.497786    35.533872    26.751803 
   63200    235.60707   -465.00552       229892   -22621.418    1674.9853   -24296.403   -1247.1829    387.43513    39.496371    35.531881    26.775227 
   63400    229.56424    -287.4351       229892   -22615.165    1632.0255   -24247.191   -548.72769    387.97931    39.493806    35.529278    26.760318 
   63600    231.15281   -249.84656       229892    -22624.79    1643.3189   -24268.109   -432.23203    389.85102    39.494505     35.52848    26.747597 
   63800    232.14795   -439.38002       229892   -22637.388    1650.3936   -24287.782   -1171.3889    390.25994    39.495257    35.530319    26.748153 
   64000    232.55412   -342.01453       229892   -22574.943    1653.2812   -24228.225   -792.80989    390.91839    39.495741    35.531862    26.736876 
   64200    233.49972   -426.88931       229892   -22576.713    1660.0037   -24236.717   -1108.4664    389.80124    39.494382    35.532769    26.738537 
   64400    233.18399   -315.57805       229892   -22585.115    1657.7591   -24242.874   -684.98051    388.75847    39.497057    35.531316     26.75811 
   64600    234.09201   -536.92773       229892    -22602.23    1664.2144   -24266.445   -1510.6197    388.58445    39.498944    35.527927    26.778569 
   64800    232.36982   -353.76599       229892    -22619.42    1651.9709   -24271.391   -809.08831    387.66202    39.498195    35.525243    26.772652 
   65000     239.3265   -207.89134       229892   -22539.194    1701.4276   -24240.622    -272.9891    391.48084    39.496559    35.521987    26.780173 
   65200    227.41029   -320.95254       229892   -22613.038    1616.7125   -24229.751   -694.02655    392.53973    39.494015    35.521415    26.776187 
   65400    232.73766   -315.26335       229892   -22659.035     1654.586   -24313.621     -670.441     394.2356    39.493506    35.523382    26.792758 
   65600    237.64665   -347.78934       229892   -22600.472    1689.4852   -24289.957   -824.69586    397.79745    39.494278    35.526773    26.804579 
   65800    232.07761   -374.79498       229892   -22629.542    1649.8935   -24279.435   -913.87319    399.66291      39.4949    35.525876    26.785092 
   66000    237.73936   -508.59133       229892   -22589.516    1690.1443    -24279.66   -1414.3986    402.96115    39.495409    35.525442    26.778558 
   66200    237.98167   -518.21931       229892   -22613.361    1691.8669   -24305.228   -1479.1919    403.68105    39.495746    35.527745    26.772562 
   66400    233.92643   -273.60885       229892    -22581.47    1663.0373   -24244.507   -519.87171    403.62196    39.494497    35.530045    26.778022 
   66600    230.54578   -383.75937       229892   -22635.699    1639.0034   -24274.702   -952.20567       403.39    39.495493    35.528714    26.802639 
   66800    234.97172   -316.82255       229892   -22644.167    1670.4685   -24314.635   -687.42762    402.75754    39.495736    35.528737    26.823273 
   67000    230.23991   -394.51946       229892   -22714.706    1636.8289   -24351.535   -937.73213    404.03072    39.497625    35.528764    26.827188 
   67200    229.08798   -487.18257       229892   -22624.512    1628.6396   -24253.152   -1383.5983    403.96843     39.49759    35.529561    26.831273 
   67400    234.51302   -470.44698       229892   -22571.584    1667.2075   -24238.791   -1283.8615    403.40022    39.497258    35.529929    26.834438 
   67600    237.48039   -389.92926       229892   -22532.811    1688.3032   -24221.114    -974.0083    401.65328    39.497287     35.52971    26.824993 
   67800     231.4186   -325.04765       229892   -22541.633    1645.2085   -24186.841   -700.14282    402.87415    39.495271    35.529112    26.811696 
   68000    232.75537   -398.91426       229892   -22604.504    1654.7119   -24259.216   -999.04593     404.8683    39.492994    35.527059    26.799029 
   68200    231.67868    -358.0462       229892   -22577.551    1647.0575   -24224.608   -847.66437    406.79115    39.491547    35.526788    26.801433 
   68400    239.56191   -302.49729       229892     -22539.2    1703.1012   -24242.301   -596.96362    408.19916    39.493744    35.528624    26.805235 
   68600    230.09408   -178.62215       229892   -22572.599    1635.7922   -24208.391   -166.29485    409.13158     39.49379    35.530844    26.814722 
   68800    242.80675   -376.73435       229892   -22493.354    1726.1695   -24219.524    -897.9608    408.78635    39.495292    35.532741    26.813442 
   69000    234.72211   -266.76688       229892   -22529.376     1668.694    -24198.07   -482.34477    407.88568     39.49427    35.533462    26.817344 
   69200    233.58674   -423.84542       229892   -22637.272    1660.6223   -24297.895   -1112.8581    410.93017    39.492508    35.534207      26.8097 
   69400    230.47311   -261.60002       229892   -22670.987    1638.4868   -24309.474   -481.77211    412.24257    39.491549    35.534156    26.811214 
   69600    240.02582   -265.80845       229892   -22525.669    1706.3992   -24232.069   -476.99443    410.50151    39.493951    35.536071    26.803075 
   69800    236.92043   -251.95641       229892   -22571.112    1684.3223   -24255.434   -464.66333    413.92863    39.493964     35.53681    26.799928 
   70000    234.60389   -424.23475       229892   -22621.059    1667.8535   -24288.913   -1120.4992    414.13296    39.494316     35.53813    26.792613 
   70200    242.64926   -418.33337       229892   -22513.324    1725.0498   -24238.374   -1096.6987    414.83394    39.495349    35.537919    26.791519 
   70400    236.73803   -333.67196       229892   -22543.252    1683.0255   -24226.278   -744.58471    416.76441    39.493593    35.540507    26.812098 
   70600    232.98715   -316.24645       229892   -22624.107    1656.3597   -24280.466   -717.62432    415.00246    39.494623    35.541663    26.824149 
   70800    237.09706   -246.19686       229892   -22624.429     1685.578   -24310.007    -416.8004    414.17088    39.493504    35.540234    26.827185 
   71000    231.58038   -520.73876       229892   -22659.113    1646.3587   -24305.471   -1540.8541    414.38823    39.489572    35.538609    26.838109 
   71200    232.44428   -402.32101       229892   -22632.988    1652.5003   -24285.489   -1055.2106    416.40912    39.487818    35.537214    26.842773 
   71400    236.95434   -346.42893       229892   -22671.892    1684.5634   -24356.456   -804.55934    416.00531     39.48851    35.535744    26.844241 
   71600    241.55077   -239.28102       229892   -22583.936    1717.2405   -24301.176   -378.64842    413.95941    39.490017    35.537708    26.835416 
   71800    230.92385   -338.01079       229892   -22667.078    1641.6912   -24308.769   -829.00613    416.10202    39.488995    35.536122    26.828078 
   72000    235.70644   -399.25992       229892   -22686.178    1675.6917    -24361.87   -1042.0585    416.48639    39.487316    35.536701    26.834172 
   72200    241.18328   -383.67422       229892   -22530.379    1714.6279   -24245.007   -953.24362    415.57357    39.486013    35.536541    26.840408 
   72400    232.43478     -255.851       229892    -22559.51    1652.4328   -24211.943   -504.57214    417.70289     39.48567    35.537636    26.841496 
   72600    236.56783   -392.14361       229892   -22563.771    1681.8156   -24245.587   -982.35248    416.71486    39.487846     35.53789    26.827037 
   72800    232.76945     -488.438       229892   -22577.261     1654.812   -24232.073   -1351.1686    416.55162    39.488525    35.536846    26.845442 
   73000    240.68696   -471.96775       229892   -22576.677    1711.0994   -24287.777   -1304.5398    417.71507    39.488191    35.537138    26.843509 
   73200     237.2433   -234.95973       229892   -22526.075    1686.6176   -24212.693   -406.27401    420.54358     39.48742     35.53548    26.847871 
   73400    237.67363   -170.14377       229892   -22512.678    1689.6769   -24202.355   -145.09653    422.80514    39.487596     35.53501     26.84583 
   73600    235.85091   -343.45143       229892   -22561.269    1676.7188   -24237.988   -837.43257    425.74267    39.488818    35.535702    26.852285 
   73800    231.59107   -422.15885       229892   -22617.717    1646.4347   -24264.151   -1131.3016    426.63106     39.48966    35.537507    26.833668 
   74000    232.93495   -260.08992       229892   -22588.335    1655.9886   -24244.324   -533.26979    427.33735    39.487683    35.538208    26.816436 
   74200    234.57363   -155.39194       229892   -22476.739    1667.6384   -24144.377   -87.445029    427.67261    39.488614    35.540869    26.814235 
   74400    235.90569   -328.18677       229892   -22493.535    1677.1083   -24170.643   -742.41668     430.5418    39.488652    35.540091    26.820114 
   74600    236.38326   -319.60237       229892   -22552.178    1680.5034   -24232.681   -716.16041    431.15293    39.486952    35.540695     26.81219 
   74800      237.208   -284.43647       229892   -22577.206    1686.3667   -24263.573   -599.34015    430.64315    39.486188    35.541194    26.799052 
   75000    233.41058    -503.8488       229892   -22593.002      1659.37   -24252.372   -1451.6768    432.82849    39.486297    35.540023     26.78218 
   75200    235.18215   -297.07349       229892   -22510.485    1671.9645    -24182.45   -600.93404    432.33267     39.48633    35.538629    26.764365 
   75400    229.63709   -229.02919       229892   -22609.455    1632.5434   -24241.998   -363.47556    435.15802    39.485627    35.538263    26.761301 
   75600    230.63949   -344.52937       229892   -22535.222    1639.6696   -24174.892   -826.16624     437.2467    39.483542    35.537837    26.745411 
   75800    234.72786   -505.27486       229892   -22487.686    1668.7348   -24156.421    -1441.562    435.91825    39.482937    35.535906    26.761356 
   76000    238.71414    -250.8953       229892    -22503.93    1697.0742   -24201.004   -444.83619    434.21918    39.482997    35.535357    26.756727 
   76200    225.41378     -471.589       229892    -22608.58    1602.5189   -24211.099   -1270.6648    436.33913    39.482396    35.536354    26.746146 
   76400    234.27049   -333.29785       229892   -22582.456    1665.4832   -24247.939   -769.61554    438.36532    39.481754    35.535724    26.750249 
   76600    234.33604   -285.46982       229892   -22558.308    1665.9493   -24224.257   -552.58375    441.96594    39.481038    35.536366    26.730899 
   76800    235.74493    -442.3561       229892   -22574.595    1675.9654    -24250.56    -1221.978    441.03928    39.484112    35.537576    26.704268 
   77000    239.43473    -374.6151       229892   -22608.949     1702.197   -24311.146   -951.33433    441.42414    39.482067    35.538735    26.715671 
   77200    236.79352   -351.68809       229892   -22569.091    1683.4201   -24252.511   -811.66492    442.68923     39.48109    35.536918     26.70658 
   77400    234.95193   -327.62377       229892   -22571.772    1670.3278     -24242.1   -707.81145    441.52564     39.48196    35.535347     26.70825 
   77600    232.22737   -482.68531       229892    -22598.48    1650.9582   -24249.438   -1341.7522    445.34365    39.479529    35.533553    26.698496 
   77800    231.97587   -376.51857       229892   -22619.664    1649.1703   -24268.835   -946.42897    448.21183    39.478533    35.535778    26.684201 
   78000    234.17887   -259.46503       229892    -22593.62    1664.8319   -24258.452   -493.78656    449.58771     39.48059    35.538717    26.684669 
   78200    234.00836   -449.48732       229892   -22618.132    1663.6197   -24281.752   -1210.7521    449.68075    39.481244    35.537793    26.689609 
   78400    237.33894   -356.51499       229892   -22594.709    1687.2976   -24282.007   -868.72693    450.34966    39.482093    35.538229    26.673226 
   78600    236.22391   -316.31889       229892   -22618.871    1679.3706   -24298.242   -672.87786    450.78752    39.481055    35.536859    26.678624 
   78800    232.98778   -426.13218       229892   -22572.543    1656.3642   -24228.907   -1124.9105    451.42153    39.480619    35.538552    26.674042 
   79000    235.37241   -419.00965       229892   -22534.991    1673.3171   -24208.309   -1065.9712    452.21213    39.478646    35.537182    26.675394 
   79200    244.02969   -336.67652       229892   -22523.258    1734.8637   -24258.122   -786.38509     453.5423    39.478481    35.535629    26.658612 
   79400    241.71592   -274.45444       229892   -22540.107    1718.4145   -24258.522   -533.53599    454.54525    39.476618    35.534161    26.658306 
   79600    235.14149   -224.35555       229892   -22659.836    1671.6754   -24331.511   -307.04471    454.55608    39.475691    35.533816     26.63593 
   79800    233.77284   -305.14456       229892   -22626.395    1661.9454   -24288.341   -649.02146    454.65142    39.476626    35.533161    26.644521 
   80000    229.22019   -362.09967       229892   -22656.759    1629.5795   -24286.338   -857.82117    455.05421    39.474685    35.535449    26.671662 
   80200    229.32334   -308.35732       229892   -22652.027    1630.3128    -24282.34   -660.38934     455.8033    39.472753    35.534887    26.663614 
   80400    230.33357   -251.76997       229892   -22669.998    1637.4948   -24307.493   -401.09551    456.24323      39.4739    35.534512    26.636527 
   80600    235.35567    -317.2196       229892   -22682.568    1673.1981   -24355.766   -716.83006    457.67167    39.475418    35.533258    26.634156 
   80800    238.70037    -204.6299       229892   -22677.731    1696.9763   -24374.707    -260.9288    457.52101    39.473654    35.533407    26.634046 
   81000    234.20899   -259.41088       229892   -22677.684    1665.0461    -24342.73   -498.45026    457.68201    39.471933    35.532387    26.624813 
   81200    232.44271   -145.86021       229892   -22639.216    1652.4891   -24291.705    3.8328745     457.3257    39.473282    35.531332    26.630656 
   81400    240.03361   -524.02665       229892   -22628.442    1706.4546   -24334.896   -1528.9308    456.66089    39.473101     35.53144    26.632636 
   81600    229.17038   -427.94863       229892   -22671.938    1629.2254   -24301.163   -1131.0766    455.42011    39.474462    35.533055    26.621469 
   81800    225.45635   -342.35668       229892   -22650.372    1602.8215   -24253.194   -829.61905    454.81075    39.474552    35.530987    26.632306 
   82000    230.21771   -248.51681       229892   -22567.246    1636.6711   -24203.917   -446.52071    455.05393    39.473207    35.530323    26.623003 
   82200     236.3207   -204.13517       229892   -22499.194    1680.0586   -24179.253   -247.47349    455.91014    39.474116    35.529804    26.619946 
   82400    229.31108   -194.31188       229892   -22532.762    1630.2256   -24162.988   -231.07717    457.21287    39.474666    35.529505    26.635379 
   82600    246.02913   -150.22164       229892       -22490    1749.0782   -24239.078   -54.042109    458.12576    39.473534    35.529706    26.641321 
   82800    230.79462   -297.37578       229892   -22633.337    1640.7725   -24274.109   -627.76926    458.02864    39.473996    35.529766     26.64725 
   83000    238.20947   -356.87277       229892   -22544.519    1693.4864   -24238.005   -880.80279    462.35093    39.472689     35.53213    26.638754 
   83200    231.55257   -260.77474       229892   -22537.497    1646.1609   -24183.658   -514.84616    463.04928     39.47479     35.53324    26.645159 
   83400    236.67391   -319.01978       229892   -22491.004    1682.5697   -24173.574   -720.91261    465.12559    39.473476    35.530935    26.644189 
   83600    228.66368   -165.06867       229892   -22609.554    1625.6231   -24235.177   -114.60583    464.56425    39.474186    35.532345    26.640728 
   83800    235.81274   -156.60706       229892   -22570.354    1676.4474   -24246.801   -43.965955    465.93134    39.474148    35.532901    26.653645 
   84000    235.72491   -418.63341       229892   -22552.553    1675.8231   -24228.377   -1102.3258    467.58675    39.472495    35.531466    26.648558 
   84200    238.18255   -346.42222       229892   -22559.334     1693.295   -24252.629   -838.94453    465.20931    39.473397     35.53137    26.646234 
   84400    233.24425   -264.62791       229892   -22593.688    1658.1875   -24251.876    -490.7279    465.13042     39.47362    35.530995    26.653077 
   84600    239.13118   -468.50775       229892   -22569.079    1700.0391   -24269.118   -1283.0156    464.60646    39.471871    35.529279    26.646384 
   84800    230.40568   -455.33812       229892   -22574.718    1638.0074   -24212.725     -1268.87    465.18177    39.472468    35.527875    26.632087 
   85000    235.82524   -417.59572       229892    -22540.18    1676.5364   -24216.716    -1096.215    465.38772    39.473398    35.527506    26.623586 
   85200    236.02409   -367.93817       229892   -22522.814      1677.95   -24200.764   -931.03625    465.15872    39.473677    35.527312    26.620624 
   85400    226.50982   -123.70087       229892   -22622.664    1610.3109   -24232.974    87.701458    463.86017    39.474656    35.527639     26.63152 
   85600    230.94685   -609.47433       229892   -22584.334    1641.8547   -24226.189   -1864.8882    465.65916    39.474959    35.528282    26.644249 
   85800    232.98953   -385.81219       229892   -22581.663    1656.3766   -24238.039   -928.30309    465.43656    39.471446     35.52544    26.645746 
   86000    234.25284     -365.534       229892   -22552.098    1665.3578   -24217.456   -844.43004    467.75828    39.469655    35.525167    26.657301 
   86200    232.35343   -320.05475       229892   -22517.827    1651.8544   -24169.681   -671.41638    468.06523    39.466948     35.52593    26.657433 
   86400    230.86248   -290.22165       229892   -22597.356    1641.2549   -24238.611   -603.89169    469.92384    39.467752    35.527459    26.652809 
   86600    240.09484   -347.07378       229892   -22542.509    1706.8899   -24249.399   -800.85793    469.92115    39.467036    35.527274    26.649332 
   86800    232.92813   -357.60156       229892   -22601.436    1655.9401   -24257.376   -859.08748    471.73997    39.471048    35.525168     26.64754 
   87000    233.68789   -240.14592       229892    -22562.93    1661.3414   -24224.271   -397.77528    473.05274    39.472584     35.52277    26.653655 
   87200     235.6399   -320.28868       229892   -22529.217    1675.2187   -24204.436   -711.73806    471.89199    39.475168    35.520309    26.650351 
   87400    233.34055     -250.695       229892   -22625.173    1658.8721   -24284.045   -441.41527     472.8457    39.477585    35.519748    26.672758 
   87600    239.12065    -367.2074       229892    -22539.83    1699.9642   -24239.794   -914.71352    473.23408    39.476453     35.51876    26.691821 
   87800    233.04015   -342.19344       229892   -22612.023    1656.7365    -24268.76   -793.33523    471.40162    39.474693    35.519704    26.706939 
   88000     238.2033   -496.66897       229892   -22589.815    1693.4425   -24283.258   -1396.4349    472.28775    39.474557    35.517129    26.709959 
   88200    233.17915   -309.02796       229892   -22593.687    1657.7247   -24251.412   -718.66845    473.60655    39.474255    35.515483    26.712216 
   88400     237.0711   -249.05243       229892   -22528.575    1685.3934   -24213.968   -445.68402    475.14158    39.474299    35.516747    26.707342 
   88600    235.03075   -430.78228       229892   -22579.325    1670.8881   -24250.213   -1123.5593    475.46849    39.474389    35.517885     26.71519 
   88800     229.1114   -423.95064       229892   -22634.055    1628.8061   -24262.861   -1139.8918    478.06533    39.473097    35.516601    26.717354 
   89000    233.50199   -377.98998       229892   -22562.513    1660.0198   -24222.532   -982.62074    477.59563    39.472982    35.514396    26.712896 
   89200    235.08309   -352.25305       229892   -22591.433    1671.2602   -24262.693   -855.30735    477.33277    39.473834     35.51437    26.726828 
   89400    235.28518   -401.87848       229892   -22542.596    1672.6969   -24215.293   -995.89824    478.60677     39.47397    35.514623    26.712712 
   89600    228.38684   -234.85763       229892   -22712.026     1623.655   -24335.681   -433.39963    477.98397    39.473953     35.51265    26.708494 
   89800     233.4186   -311.35467       229892   -22616.021     1659.427   -24275.448   -686.91361    477.79547    39.474358    35.512957    26.721093 
   90000    229.27197   -438.99881       229892   -22649.918    1629.9476   -24279.866   -1198.5326    480.07468    39.473582    35.510542    26.720595 
   90200    230.76096   -259.19188       229892   -22648.845    1640.5332   -24289.378   -469.56855    479.48401    39.473518    35.509203    26.737721 
   90400    239.29286   -252.16813       229892   -22625.116    1701.1885   -24326.304   -454.36609    479.19665    39.470861    35.508156    26.726487 
   90600    234.59663   -191.10541       229892   -22622.685    1667.8019   -24290.487   -187.62163    480.59398    39.470865    35.507048     26.72514 
   90800     235.7858   -242.82554       229892   -22639.788     1676.256   -24316.044   -396.61328    480.15722     39.47078    35.505066    26.719396 
   91000    231.79595   -456.76049       229892   -22656.345    1647.8912   -24304.236   -1264.6099    482.31227    39.472506    35.505061    26.737581 
   91200    227.85191   -264.62161       229892   -22697.473    1619.8521   -24317.325   -487.51448    484.62433    39.472972     35.50336    26.745912 
   91400    240.07594   -191.38517       229892   -22627.819    1706.7556   -24334.574    -209.2025    482.82543    39.474313    35.504366    26.743287 
   91600    236.04899   -433.95597       229892   -22540.801     1678.127   -24218.928   -1127.3032    487.05924    39.473703    35.507187    26.740112 
   91800    239.32867   -303.92752       229892   -22568.311    1701.4431   -24269.754   -622.13135    485.64395     39.47328    35.507295     26.75017 
   92000    235.78068   -288.23032       229892    -22548.46    1676.2196    -24224.68   -574.62712    487.95957    39.476348    35.506352    26.742649 
   92200    232.69898   -490.00383       229892   -22549.397     1654.311   -24203.708   -1352.4603    489.24565    39.476832    35.505075    26.738146 
   92400    240.18577   -276.90178       229892   -22529.267    1707.5364   -24236.803   -528.24309    488.13709    39.476149    35.505601    26.740031 
   92600    240.70385   -271.92244       229892   -22499.288    1711.2195   -24210.508   -513.00886    489.26357    39.475818    35.506368    26.729179 
   92800    228.76823   -282.07025       229892   -22584.367    1626.3664   -24210.733   -578.08028    490.08025    39.475529    35.506943    26.732463 
   93000    230.65572    -414.3259       229892   -22605.474     1639.785   -24245.259   -1086.9355    490.63906    39.475432    35.508914      26.7305 
   93200    229.51284   -416.20702       229892   -22546.152      1631.66   -24177.812   -1081.8614    491.99331     39.47702    35.508078    26.712796 
   93400    229.59226   -196.49103       229892   -22627.653    1632.2246   -24259.878   -246.59557    492.15473    39.476618    35.507197    26.701187 
   93600    234.89886   -312.97284       229892   -22595.076    1669.9505   -24265.027   -679.91133    493.90103    39.476972    35.505869    26.676708 
   93800    228.09424   -446.26903       229892   -22655.121    1621.5749   -24276.696   -1223.0719     497.2009    39.474743     35.50489    26.667241 
   94000    231.99725   -290.89206       229892   -22661.338    1649.3222   -24310.661   -607.19482    500.89058    39.473601    35.503876    26.657064 
   94200    240.48304   -297.88806       229892   -22582.093    1709.6497   -24291.743    -653.5816    502.70397     39.47207    35.504823    26.670474 
   94400    232.50256   -358.85368       229892   -22650.004    1652.9146   -24302.919   -857.12943    503.85352    39.470836    35.506332    26.665001 
   94600    233.08201   -351.66669       229892   -22661.509    1657.0341   -24318.543   -897.52232    503.27186    39.470202    35.509617    26.657201 
   94800    233.42478   -432.86996       229892   -22632.323    1659.4709   -24291.794   -1150.4584    504.56078    39.469654    35.511536    26.660068 
   95000    233.66498   -258.55202       229892   -22653.768    1661.1785   -24314.946   -493.87297    504.99899    39.468097    35.513471    26.642591 
   95200    230.02157   -462.24666       229892   -22610.955    1635.2767   -24246.232   -1236.1094    505.96967    39.467903    35.513733    26.636643 
   95400    235.61902    -277.8977       229892   -22599.674    1675.0703   -24274.744   -556.17001    504.60018    39.468208    35.513379    26.611523 
   95600    228.00582   -282.79534       229892    -22570.79    1620.9462   -24191.736   -569.61605    506.04508     39.46746    35.511869    26.610788 
   95800    235.30201   -212.07459       229892   -22554.673    1672.8165    -24227.49   -296.77115    506.02027     39.46856    35.511081    26.610566 
   96000    236.93545   -382.29994       229892   -22518.401    1684.4291   -24202.831   -982.91102    506.73993    39.467522    35.508717    26.620944 
   96200    241.20251   -367.27663       229892   -22476.591    1714.7646   -24191.356   -915.33257    507.55807    39.465654     35.50737    26.619109 
   96400    234.49134    -313.1926       229892   -22563.321    1667.0534   -24230.374   -730.26849    508.32541     39.46667    35.505438    26.619255 
   96600     231.2313   -358.83356       229892   -22599.764    1643.8769   -24243.641   -825.42847    509.97899    39.468702    35.505001    26.621513 
   96800    234.83285   -414.98222       229892   -22577.443    1669.4812   -24246.924   -1058.2784    508.57835    39.469808     35.50496    26.607238 
   97000    233.28089   -270.65267       229892   -22582.023     1658.448   -24240.471   -505.24867    509.77367    39.469972    35.502517    26.597325 
   97200    235.02726   -284.88341       229892   -22609.121    1670.8633   -24279.984   -585.06439    509.34442    39.468902    35.502507    26.587345 
   97400    236.95494   -377.75546       229892   -22574.517    1684.5676   -24259.085   -945.44665    511.46367    39.467119    35.502853    26.589857 
   97600     239.9336   -335.73917       229892   -22536.899    1705.7436   -24242.643    -795.3674    512.80903    39.466735    35.503683    26.576287 
   97800    239.81116   -321.23413       229892   -22540.249    1704.8732   -24245.122   -734.77582    512.93145    39.467867     35.50404    26.580851 
   98000    232.11746   -393.75811       229892   -22624.102    1650.1769   -24274.278   -974.06568    513.84466    39.470429    35.504402    26.587892 
   98200    229.03044   -403.45311       229892   -22640.821    1628.2305   -24269.051   -1031.1464    515.89955    39.470966    35.503293    26.595732 
   98400     229.7476   -378.14936       229892   -22542.132     1633.329   -24175.461   -944.77096    516.40032    39.470677    35.501742    26.572429 
   98600       237.55   -316.27348       229892   -22585.233     1688.798   -24274.031   -668.08041    516.33282    39.468936    35.500598     26.58338 
   98800    232.79363   -352.21737       229892   -22512.332    1654.9839   -24167.316     -872.555    517.65961    39.469238    35.501366    26.603369 
   99000    225.35973   -424.83632       229892   -22541.968    1602.1346   -24144.102   -1157.0739    515.84652    39.469347    35.500005    26.626752 
   99200    236.69249   -292.85426       229892    -22533.74    1682.7018   -24216.442   -592.31573    517.83916    39.469142    35.498012    26.646627 
   99400     237.7424   -240.81057       229892   -22514.631    1690.1659   -24204.797   -440.31454    518.54099    39.469223    35.497875    26.636826 
   99600    236.17393   -226.17431       229892   -22487.774    1679.0152   -24166.789   -367.05062    519.22148    39.469766    35.496223    26.618943 
   99800     237.8032   -512.50442       229892   -22527.618    1690.5981   -24218.216   -1470.8807    522.16065    39.469706    35.495828    26.625957 
  100000    238.33467   -328.26035       229892   -22559.645    1694.3764   -24254.021   -761.16673    524.05737    39.469173    35.495082    26.640188 
  100200    228.58964   -328.80592       229892   -22585.442    1625.0968   -24210.539    -747.4187    526.48926    39.469853    35.493455    26.631021 
  100400    235.88334   -408.76039       229892   -22501.646    1676.9494   -24178.595   -1034.6312    526.29897    39.468737    35.494828    26.617927 
  100600    233.87757    -489.0778       229892    -22541.95    1662.6899    -24204.64   -1374.5779    525.77557    39.469108    35.495574    26.613612 
  100800     235.3481   -226.50828       229892    -22616.36    1673.1442   -24289.504   -356.53453    525.63484    39.468538    35.493801    26.617226 
[...]
 3975800    230.51925   -412.19769       229892   -24536.302    1638.8148   -26175.117   -1090.5407     6286.371    38.986493     34.63581    26.974657 
 3976000    225.27922   -274.43097       229892   -24590.115    1601.5623   -26191.677   -547.21447    6284.8666    38.987341    34.634667    26.975144 
 3976200    224.17134   -323.03058       229892   -24593.054    1593.6861    -26186.74   -705.32087    6286.5273    38.987549    34.635445    26.984405 
 3976400    219.73891   -423.84634       229892   -24618.173    1562.1749   -26180.348   -1114.9521    6285.7477    38.987899    34.636552    26.985705 
 3976600    216.27026   -409.78832       229892    -24612.61    1537.5155   -26150.125    -1084.115    6288.6843    38.988074    34.636325    26.981627 
 3976800    223.69296   -357.00475       229892   -24546.611    1590.2852   -26136.897   -851.48571    6286.2162    38.986911    34.639154    26.981545 
 3977000    222.20849   -346.79702       229892   -24658.046    1579.7317   -26237.777   -782.19036    6286.8124    38.986256    34.637859    26.978147 
 3977200    226.28521   -349.05939       229892   -24565.452     1608.714   -26174.166   -797.53221     6285.324     38.98871    34.641521     26.98475 
 3977400    221.27448   -503.52104       229892   -24593.576    1573.0916   -26166.668   -1454.3348    6285.8472    38.985749    34.641002    26.983767 
 3977600    226.57009   -295.06647       229892    -24620.86    1610.7393     -26231.6   -617.35302    6285.9473    38.986227    34.639977    26.973621 
 3977800      227.691   -360.21841       229892   -24591.771    1618.7081   -26210.479   -841.22457    6287.2004    38.986794    34.640162    26.990078 
 3978000    219.52292    -448.8915       229892   -24641.723    1560.6393   -26202.363   -1230.3584    6285.9841    38.988402    34.639921    26.991393 
 3978200     233.6037   -381.25368       229892   -24578.708    1660.7429   -26239.451   -944.89981    6286.2206    38.990041    34.639671    26.997162 
 3978400    218.70716    -341.6788       229892   -24629.223    1554.8399   -26184.063   -808.79502    6285.3475    38.990109    34.640877    27.010333 
 3978600    223.92691   -463.91724       229892   -24610.943    1591.9484   -26202.891   -1278.8262    6285.9692    38.992906    34.639237    27.008984 
 3978800    230.89262   -370.04925       229892   -24565.836    1641.4692   -26207.305   -913.39687    6285.6879    38.990894    34.640351    27.004223 
 3979000    226.19337   -371.87127       229892   -24597.031    1608.0612   -26205.092   -893.57963    6285.3661     38.99274    34.640241    26.992642 
 3979200    219.59477   -282.51445       229892   -24631.024    1561.1502   -26192.174    -588.9807    6286.4336    38.992798    34.640758    26.998434 
 3979400    225.29487   -422.16102       229892   -24590.345    1601.6735   -26192.019   -1110.9271    6284.5654    38.991631    34.639141    26.999286 
 3979600    230.73361   -331.05162       229892    -24596.23    1640.3388   -26236.569    -776.4907    6285.3851    38.990286    34.638212    26.993333 
 3979800    221.92978    -350.0004       229892   -24597.016    1577.7503   -26174.766   -846.18137    6286.3651    38.992655    34.638543     26.97961 
 3980000    222.21004   -374.93371       229892   -24609.376    1579.7427   -26189.119   -968.61837     6286.906    38.991816    34.637903    26.996649 
 3980200    228.23581   -319.71501       229892   -24586.571    1622.5813   -26209.152   -705.21124    6286.1757    38.990479    34.637221    26.988853 
 3980400    219.27096   -378.33326       229892    -24600.75    1558.8481   -26159.598   -931.10039    6286.5623    38.990766    34.636226    26.988959 
 3980600    226.04804   -390.90409       229892   -24538.808    1607.0279   -26145.836   -1009.8917    6286.0222     38.98955    34.637335    26.986962 
 3980800     225.7986   -369.06237       229892   -24549.566    1605.2546    -26154.82   -891.85754    6287.5184    38.991812    34.636717    26.997518 
 3981000    226.83464   -339.96447       229892   -24565.786    1612.6201   -26178.406   -796.35477    6286.7197    38.987531    34.637774    27.000618 
 3981200    228.57841   -373.02336       229892    -24557.78    1625.0169   -26182.797   -906.77373    6286.3033    38.987261    34.636982    27.006811 
 3981400    225.98232   -402.30289       229892   -24547.997    1606.5607   -26154.557   -1069.5731    6287.8427    38.987148    34.633767     26.99671 
 3981600    221.34962   -322.55025       229892   -24603.115    1573.6258   -26176.741   -750.23046    6287.3778    38.987779    34.633848    27.011675 
 3981800    223.42738   -405.07897       229892   -24570.529    1588.3971   -26158.926   -1048.4656    6286.2691    38.984756    34.633866    27.021479 
 3982000    224.56563   -415.26877       229892   -24618.915    1596.4892   -26215.404   -1118.8793    6287.3934    38.983576    34.634243    27.023702 
 3982200     221.2602   -405.48328       229892   -24631.974    1572.9901   -26204.964    -1056.045     6289.844    38.980877    34.632885    27.026727 
 3982400    224.00566   -246.05604       229892   -24570.727    1592.5082   -26163.235   -457.35232    6286.4366    38.981215    34.631956    27.022144 
 3982600    225.71335   -353.12925       229892    -24603.82    1604.6485   -26208.469   -851.27828    6286.5358    38.983085    34.634089    27.020343 
 3982800    225.09215   -450.89853       229892   -24545.689    1600.2323   -26145.921   -1245.7261    6287.3385    38.982659    34.633663     27.01428 
 3983000    230.05873   -335.31756       229892    -24535.25    1635.5408   -26170.791   -755.37181    6285.5827    38.982306    34.633582    27.004612 
 3983200    225.98432   -283.28167       229892   -24577.488    1606.5749   -26184.063   -553.57238    6287.2145    38.980566    34.633254     27.00351 
 3983400    230.97685   -463.66951       229892   -24526.742     1642.068    -26168.81   -1287.0187     6289.333    38.982684    34.634987     27.00612 
 3983600    227.36317    -433.5522       229892   -24574.163    1616.3775   -26190.541    -1185.109    6288.6405    38.981583    34.635517     26.99791 
 3983800    225.68514   -309.16194       229892   -24554.741     1604.448   -26159.189   -693.63036     6286.563    38.984801    34.639439    27.000659 
 3984000    224.88427   -435.18954       229892   -24588.295    1598.7544    -26187.05   -1209.6604    6287.4193    38.986235    34.638179    26.994382 
 3984200    221.77865   -460.38076       229892    -24562.13    1576.6758   -26138.806    -1292.771    6288.2908    38.987735    34.642051    27.003621 
 3984400     223.9527   -362.70822       229892   -24589.251    1592.1317   -26181.383   -901.76223    6287.3469    38.990069    34.642728    26.997766 
 3984600    224.02065   -361.11683       229892   -24582.811    1592.6148   -26175.425   -874.98053    6287.6199     38.99251    34.641812    27.000254 
 3984800    229.99388   -455.23105       229892   -24563.671    1635.0799   -26198.751   -1271.4637    6286.9237    38.990087    34.641901    26.997041 
 3985000    226.32851   -394.90715       229892   -24595.117    1609.0219   -26204.139   -1017.1354    6286.9802    38.992412    34.643148    27.003092 
 3985200    223.83768   -344.55912       229892   -24569.439     1591.314   -26160.753   -799.47193    6285.8434    38.993964    34.643919    27.006367 
 3985400    221.50109   -369.48468       229892   -24586.969    1574.7026   -26161.671   -924.32552    6285.1199    38.994927    34.645872    26.999627 
 3985600    227.31782   -444.15773       229892   -24539.338    1616.0551   -26155.393   -1255.4129    6287.7736    38.998143    34.645495    27.010598 
 3985800    224.27081   -476.68559       229892   -24554.751    1594.3932   -26149.144   -1322.5549    6288.4414    38.998693    34.646145    27.010067 
 3986000    229.75241   -425.14719       229892   -24448.318    1633.3632   -26081.681   -1144.2459    6287.5155    39.000161    34.644467    27.006097 
 3986200    229.58287   -371.70229       229892   -24487.845    1632.1579   -26120.003   -913.26176    6286.4001    38.999074    34.645065    27.004414 
 3986400    222.69632   -402.73026       229892   -24599.511    1583.1998    -26182.71    -1050.915    6287.0923    39.001202    34.645167    26.995983 
 3986600    225.94324   -437.23272       229892   -24592.641    1606.2829   -26198.924   -1180.6728    6286.3696    39.002573    34.644802    26.998043 
 3986800    223.86161   -362.40309       229892   -24579.146    1591.4841   -26170.631    -895.2444     6284.576    39.000336    34.642148    26.990981 
 3987000    232.23747   -329.10396       229892   -24564.423    1651.0301   -26215.453   -739.43628    6285.6892     39.00094    34.641905    26.998849 
 3987200    220.79109   -364.77206       229892   -24672.007    1569.6551   -26241.663   -858.61608    6287.1771    38.999964    34.641123    27.010305 
 3987400    224.42241   -346.16342       229892   -24604.683     1595.471   -26200.154   -784.45022    6286.1196    38.997477    34.640709    27.007903 
 3987600    227.03058   -379.36711       229892   -24552.851    1614.0131   -26166.864   -975.77223    6285.8045    38.998944    34.639077    27.007383 
 3987800    227.12984   -343.53491       229892    -24593.66    1614.7187   -26208.378   -873.99548    6286.9486    38.996446    34.640998    27.017486 
 3988000    229.37855   -456.07797       229892   -24558.631    1630.7054   -26189.337   -1224.2833    6287.4976     38.99537    34.639724    27.014652 
 3988200    225.94291   -482.40855       229892   -24552.654    1606.2806   -26158.935   -1357.9404     6286.246    38.996376    34.639315     27.00858 
 3988400     225.5941     -342.214       229892   -24574.043    1603.8008   -26177.843   -813.97062    6286.9631    38.997552    34.639454    27.017577 
 3988600    226.74221   -353.18162       229892   -24609.009    1611.9629   -26220.972   -850.13723    6286.4993    38.994156    34.638057    27.015854 
 3988800    221.57615   -378.74305       229892   -24591.257    1575.2363   -26166.493   -968.84298    6286.7308    38.994115     34.63811    27.017667 
 3989000    228.60336    -291.0674       229892   -24535.304    1625.1943   -26160.499   -607.20743    6286.7732    38.995588    34.634205    26.993182 
 3989200    219.78658   -304.88971       229892   -24590.374    1562.5138   -26152.888   -657.84414    6284.8033    38.996253    34.634512    26.990966 
 3989400    225.59447   -489.36209       229892   -24607.245    1603.8034   -26211.048   -1321.3449    6285.5548    38.997627    34.632497    26.993815 
 3989600    233.72269   -382.59133       229892   -24525.732    1661.5888   -26187.321   -981.09145    6283.7377    38.999087    34.634241    26.992611 
 3989800     227.5355   -359.65561       229892   -24568.374    1617.6026   -26185.976   -835.99636    6288.7866    39.001889    34.633449    26.983051 
 3990000    223.13752    -447.9592       229892   -24609.811    1586.3364   -26196.148   -1239.7709    6288.0959    39.001337     34.63488    26.984526 
 3990200    218.76933   -563.23645       229892   -24629.512    1555.2819   -26184.794   -1675.9569    6288.6413    39.002029    34.635927    26.978809 
 3990400    224.39643   -346.68046       229892   -24583.718    1595.2863   -26179.005   -828.64498    6286.9681    39.000343    34.635367    26.987478 
 3990600    220.44909   -336.47986       229892   -24602.318    1567.2237   -26169.542   -779.52972    6286.7344    39.001159    34.637074     26.98406 
 3990800     230.5094   -479.15521       229892   -24559.371    1638.7448   -26198.116   -1318.4691    6286.8012    39.000953    34.638185    26.978651 
 3991000    224.96685   -361.65393       229892   -24577.594    1599.3415   -26176.936   -870.08988    6285.7187    39.001089    34.640126    26.986037 
 3991200    231.86193   -284.58378       229892   -24541.139    1648.3603   -26189.499   -569.09989    6283.4845    39.001131    34.640138    26.996028 
 3991400    233.04762   -379.35996       229892   -24529.858    1656.7896   -26186.648   -942.19519    6285.7378    39.001018    34.640856    26.987135 
 3991600    222.45002   -423.43905       229892   -24576.536    1581.4488   -26157.985   -1136.0893    6286.2357    39.000459    34.641053    26.996546 
 3991800    222.63624   -408.46983       229892   -24652.802    1582.7727   -26235.575   -1081.6256    6285.4838    39.002883    34.645503    26.993691 
 3992000    225.09742   -426.02666       229892   -24577.383    1600.2698   -26177.652   -1119.7595    6286.0316    39.004182     34.64554    26.985093 
 3992200    222.24788   -417.82955       229892   -24582.124    1580.0118   -26162.136   -1098.6512    6285.6281    39.005569    34.648281    27.000701 
 3992400    228.13577   -385.42772       229892   -24587.722    1621.8701   -26209.592   -960.89346     6284.431    39.004575    34.650363    26.999877 
 3992600     223.1332   -382.11478       229892   -24583.332    1586.3057   -26169.637   -949.53386     6285.957    39.002583    34.654136    26.998668 
 3992800    222.03206   -530.22796       229892   -24576.103    1578.4774    -26154.58   -1568.6377    6285.3554    39.004863    34.656077    27.006565 
 3993000    220.28482   -306.80236       229892   -24675.335    1566.0559   -26241.391   -643.34138    6284.3911    39.003256    34.658508    27.007714 
 3993200    225.99395   -277.82228       229892   -24558.474    1606.6434   -26165.117   -547.37891    6285.5292    38.999904     34.66092    27.000309 
 3993400     227.4043   -417.32933       229892   -24542.018    1616.6699   -26158.688   -1113.2615    6286.0006    39.001937    34.662911    26.987675 
 3993600    223.20186   -478.76461       229892   -24573.075    1586.7938   -26159.869   -1321.0689    6286.1984    39.001225    34.664652    26.980033 
 3993800     226.7451   -416.11831       229892    -24566.28    1611.9835   -26178.263   -1140.3954     6286.282    39.000387    34.664453    26.989036 
 3994000    225.43451   -351.18612       229892     -24589.1    1602.6662   -26191.766   -831.05426    6285.5561     39.00137    34.667344    26.996496 
 3994200    219.14442   -391.03436       229892   -24630.452    1557.9485   -26188.401   -993.21531    6286.4239    38.999057    34.669566    27.003034 
 3994400    224.53558   -397.52503       229892   -24589.484    1596.2756    -26185.76   -1022.5411    6285.9871    38.998486    34.670774    27.005222 
 3994600    225.92906   -370.20988       229892   -24634.446    1606.1821   -26240.628   -892.03981     6285.255    38.997771     34.67371    27.006586 
 3994800    228.26915   -481.77422       229892    -24573.23    1622.8183   -26196.048    -1369.516    6287.4662    38.996709    34.673612     27.01404 
 3995000    230.60711   -437.91701       229892   -24534.462    1639.4395   -26173.901    -1146.257    6285.6601    38.996881    34.676459    27.005158 
 3995200    221.19535   -448.12082       229892   -24645.377    1572.5291   -26217.906   -1223.1164    6287.6303    38.994331    34.679505    26.998765 
 3995400    225.89302   -258.63516       229892   -24555.572    1605.9259   -26161.498   -491.31497    6285.2113    38.994646    34.681075    27.003764 
 3995600    225.97694    -454.7738       229892   -24507.695    1606.5225   -26114.218   -1251.0168    6286.9296    38.995269    34.681849    27.011265 
 3995800    225.29135   -437.83688       229892   -24520.484    1601.6485   -26122.132   -1134.1321    6286.3344    38.993486    34.683197    27.001336 
 3996000    231.78765   -355.84447       229892   -24456.554    1647.8321   -26104.387   -844.34802    6286.9462    38.991582    34.684715    27.003699 
 3996200    229.63479   -185.23444       229892   -24519.187     1632.527   -26151.714   -168.95226    6285.4827    38.991364     34.68536    26.989615 
 3996400    224.97361   -329.77932       229892   -24600.097    1599.3896   -26199.487   -767.82228    6286.7762    38.989413    34.688974    26.993391 
 3996600    228.01064    -432.6467       229892   -24555.785    1620.9805   -26176.766   -1151.7753    6286.1511    38.989338    34.689979    26.987642 
 3996800    225.36187   -384.96653       229892   -24617.631    1602.1498   -26219.781   -969.56289     6286.523     38.99129     34.69181    26.995588 
 3997000    229.46371   -374.44753       229892   -24487.671    1631.3107   -26118.982   -932.36436     6285.712    38.989229     34.69226    27.004061 
 3997200    227.01766   -461.58118       229892    -24563.72    1613.9212   -26177.642   -1245.9709    6286.9122    38.987693    34.695977    27.006798 
 3997400    217.62476   -565.75122       229892   -24617.114    1547.1449   -26164.259   -1652.3298    6286.3102     38.98683    34.698382    26.999531 
 3997600    224.17392   -308.97276       229892   -24586.408    1593.7044   -26180.112   -683.99833    6285.1321    38.988685    34.701086     26.98734 
 3997800    219.56645   -358.18675       229892   -24696.039    1560.9488   -26256.988   -884.42265    6283.8106    38.988031    34.703797    26.980719 
 3998000    224.09078   -429.62854       229892   -24608.637    1593.1133    -26201.75   -1191.1633      6286.45    38.990477    34.705224    26.999575 
 3998200    221.77737   -471.71443       229892   -24620.224    1576.6668   -26196.891   -1329.7156     6286.511    38.991996    34.704601    27.002998 
 3998400    229.10568   -256.09358       229892   -24510.784    1628.7654   -26139.549   -446.70616    6285.8383    38.992568    34.705788    27.019238 
 3998600    226.68338   -411.17391       229892   -24613.446    1611.5447   -26224.991   -1056.5327    6285.9808    38.992217    34.707043    27.019468 
 3998800    221.41691   -468.77377       229892   -24568.251    1574.1042   -26142.355   -1274.7438    6287.4449    38.996081    34.708667    27.019552 
 3999000    228.07498   -280.95845       229892   -24517.252    1621.4379    -26138.69    -588.8331    6287.2233    38.996825    34.710329    27.011506 
 3999200    222.27384   -356.22013       229892   -24584.875    1580.1963   -26165.071   -870.52476     6284.907    38.997193    34.713845    27.005367 
 3999400    223.94382   -428.62799       229892   -24614.534    1592.0685   -26206.603   -1147.9526    6287.5086    38.997605    34.713988    27.009987 
 3999600     222.4541   -420.65173       229892   -24612.366    1581.4778   -26193.844   -1088.5723    6286.7215    39.000627    34.713637    26.999487 
 3999800    221.21597   -309.12931       229892   -24541.153    1572.6756   -26113.828   -682.40612    6287.7581     39.00254    34.713398    27.007067 
 4000000    235.26255   -326.03093       229892   -24518.524    1672.5361    -26191.06   -738.01335     6285.262    39.002032    34.715535     27.01882 
Loop time of 7087.85 on 120 procs for 4000000 steps with 9010 atoms

Performance: 487.595 ns/day, 0.049 hours/ns, 564.346 timesteps/s
98.1% CPU use with 120 MPI tasks x no OpenMP threads

MPI task timing breakdown:
Section |  min time  |  avg time  |  max time  |%varavg| %total
---------------------------------------------------------------
Pair    | 0.19618    | 1666.4     | 5730.8     |4622.9 | 23.51
Neigh   | 0.31112    | 104.12     | 397.24     |1251.3 |  1.47
Comm    | 26.382     | 2866.2     | 6143.6     |3967.2 | 40.44
Output  | 79.766     | 79.841     | 81.345     |   1.6 |  1.13
Modify  | 179.47     | 2328.3     | 6935.8     |5465.3 | 32.85
Other   |            | 43.04      |            |       |  0.61

Nlocal:    75.0833 ave 232 max 0 min
Histogram: 51 9 29 1 0 0 0 0 4 26
Nghost:    604.142 ave 991 max 0 min
Histogram: 10 3 7 1 9 19 23 18 19 11
Neighs:    0 ave 0 max 0 min
Histogram: 120 0 0 0 0 0 0 0 0 0
FullNghs:  7407.32 ave 28891 max 0 min
Histogram: 71 19 0 0 0 0 0 2 14 14

Total # of neighbors = 888878
Ave neighs/atom = 98.6546
Neighbor list builds = 433982
Dangerous builds = 0
write_data 		${DIR}/data.${NAME}_run
write_data 		run_20/data.${NAME}_run
write_data 		run_20/data.ibeam_cooling_20_run
Total wall time: 1:58:26
