

### IMPORT ATOMS ###
read_data ../Box_Setup/data.Ibeam_240K
  orthogonal box = (0 0 0) to (157.504 42.9242 26.8557)
  16 by 4 by 2 MPI processor grid
  reading atoms ...
  9253 atoms
  reading velocities ...
  9253 velocities
group water type 2
1381 atoms in group water
group graphite type 1
7872 atoms in group graphite


# Define potential
#
pair_style          sw
pair_coeff * * MLC_e.sw C mW

# Add velocity/set timestep
#

fix		1 graphite setforce 0.0 0.0 0.0
velocity 	graphite set 0.0 0.0 0.0
velocity            water create ${START_TEMP} ${SEED} rot yes dist gaussian
velocity            water create 240 ${SEED} rot yes dist gaussian
velocity            water create 240 29265 rot yes dist gaussian
timestep            5.0

# Define output
#
compute 1 water msd
compute 2 water temp


thermo	            100
thermo_style custom step c_2 press vol etotal ke pe c_1[4] density

# Neighbor lists
#
neigh_modify        delay 0 every 1 check yes


# Set fixes
#
fix                 2 water momentum 10 linear 1 1 1 rescale
fix                 3 all nve
fix                 4 water temp/csvr ${START_TEMP} ${START_TEMP} 500.0 928347
fix                 4 water temp/csvr 240 ${START_TEMP} 500.0 928347
fix                 4 water temp/csvr 240 240 500.0 928347

# Run 0.05 ns equilibration
#
dump                1 all custom 100 ${DIR}/eq.${NAME}.dump id type x y z vx vy vz
dump                1 all custom 100 run_12/eq.${NAME}.dump id type x y z vx vy vz
dump                1 all custom 100 run_12/eq.ibeam_cooling_12.dump id type x y z vx vy vz
run                 10000
Neighbor list info ...
  update every 1 steps, delay 0 steps, check yes
  max neighbors/atom: 2000, page size: 100000
  master list distance cutoff = 6.67472
  ghost atom cutoff = 6.67472
  binsize = 3.33736, bins = 48 13 9
  1 neighbor lists, perpetual/occasional/extra = 1 0 0
  (1) pair sw, perpetual
      attributes: full, newton on
      pair build: full/bin/atomonly
      stencil: full/bin/3d
      bin: standard
Per MPI rank memory allocation (min/avg/max) = 3.359 | 4.246 | 4.732 Mbytes
Step c_2 Press Volume TotEng KinEng PotEng c_1[4] Density 
       0          240   -344.39513    181563.75    -13284.54    987.24429   -14271.784            0    1.0922001 
     100    247.37863   -421.88763    181563.75   -13246.384    1017.5964    -14263.98   0.86118855    1.0922001 
     200     243.1423   -498.34633    181563.75   -13284.337    1000.1702   -14284.507    1.3979803    1.0922001 
     300    244.03173   -311.07949    181563.75    -13279.73    1003.8289   -14283.558    1.7446192    1.0922001 
     400    240.60051   -304.47738    181563.75   -13289.552    989.71451   -14279.266    2.1688308    1.0922001 
     500    236.24207   -328.19638    181563.75   -13287.916    971.78597   -14259.702    2.5852264    1.0922001 
     600    232.84182   -387.08651    181563.75   -13364.734    957.79897   -14322.533    3.0636135    1.0922001 
     700    234.16169   -374.00836    181563.75   -13351.583    963.22829   -14314.812     3.457987    1.0922001 
     800     227.4015   -407.86697    181563.75    -13382.55    935.42014    -14317.97     3.984715    1.0922001 
     900    235.71177   -316.26648    181563.75   -13348.408    969.60459   -14318.012    4.4082186    1.0922001 
    1000    237.98633   -277.42706    181563.75   -13302.147    978.96104   -14281.108    4.6039381    1.0922001 
    1100    238.04909   -323.06682    181563.75   -13320.255    979.21919   -14299.475    5.0011054    1.0922001 
    1200     236.5508   -345.13792    181563.75   -13353.738    973.05596   -14326.794    5.4189425    1.0922001 
    1300    232.27407    -280.6565    181563.75   -13315.608    955.46355   -14271.072    5.6910218    1.0922001 
    1400    238.38749   -268.16613    181563.75    -13257.69    980.61118   -14238.301    6.3179824    1.0922001 
    1500    247.37239   -326.00955    181563.75   -13275.211    1017.5707   -14292.782    6.7202209    1.0922001 
    1600    239.31081   -367.85088    181563.75   -13255.001    984.40929    -14239.41    7.2073401    1.0922001 
    1700    244.94845   -380.23539    181563.75       -13287    1007.5998     -14294.6    7.6721365    1.0922001 
    1800    242.16259   -501.45814    181563.75   -13297.651    996.14013   -14293.791    8.0607275    1.0922001 
    1900    245.32451   -288.85635    181563.75   -13238.843    1009.1468   -14247.989    8.5441556    1.0922001 
    2000    247.39887   -426.06592    181563.75   -13226.627    1017.6797   -14244.307    8.8158663    1.0922001 
    2100    246.99993   -230.76156    181563.75    -13229.99    1016.0386   -14246.028     9.291525    1.0922001 
    2200    240.65988    -297.3806    181563.75   -13229.814     989.9587   -14219.773    9.5079344    1.0922001 
    2300    244.79429   -406.80148    181563.75   -13278.639    1006.9657   -14285.605    10.035835    1.0922001 
    2400    234.43206   -392.01014    181563.75    -13278.26    964.34049     -14242.6    10.390144    1.0922001 
    2500     244.2937   -333.45561    181563.75   -13270.115    1004.9065   -14275.022    10.589268    1.0922001 
    2600    237.42607   -357.68209    181563.75    -13298.82    976.65637   -14275.477    11.075031    1.0922001 
    2700    241.02718   -320.15815    181563.75   -13281.555    991.46961   -14273.025    11.865495    1.0922001 
    2800    252.00855   -479.17174    181563.75   -13290.595    1036.6417   -14327.237    12.210869    1.0922001 
    2900    241.29821   -287.33101    181563.75   -13345.192     992.5845   -14337.776    12.778075    1.0922001 
    3000     239.4148   -224.82433    181563.75   -13368.046    984.83706   -14352.883    13.065181    1.0922001 
    3100    231.53284   -288.21467    181563.75   -13370.164    952.41446   -14322.579    13.459557    1.0922001 
    3200    234.36635   -408.75404    181563.75   -13387.518    964.07016   -14351.588     13.86005    1.0922001 
    3300    234.47991   -319.95817    181563.75   -13343.575     964.5373   -14308.112    14.239367    1.0922001 
    3400    247.49645   -397.12569    181563.75   -13347.584    1018.0811   -14365.665    14.609389    1.0922001 
    3500    234.93079    -414.0364    181563.75   -13345.395    966.39201   -14311.787    14.737336    1.0922001 
    3600    244.91819   -328.39217    181563.75   -13334.749    1007.4754   -14342.225    14.894963    1.0922001 
    3700    232.98126   -352.79195    181563.75   -13370.718    958.37257    -14329.09    15.329923    1.0922001 
    3800    238.80361   -442.30091    181563.75   -13351.754    982.32291   -14334.077     15.58474    1.0922001 
    3900    239.95696   -335.62832    181563.75   -13365.467    987.06723   -14352.534    15.819634    1.0922001 
    4000    240.17315   -302.84557    181563.75    -13375.85    987.95655   -14363.806    16.005458    1.0922001 
    4100    239.23654   -398.87264    181563.75   -13352.992     984.1038   -14337.096    16.158048    1.0922001 
    4200     241.1496   -337.95236    181563.75   -13322.549    991.97318   -14314.522    16.209333    1.0922001 
    4300     252.4165   -209.37545    181563.75   -13265.698    1038.3198   -14304.018    16.447705    1.0922001 
    4400    249.41261    -260.5474    181563.75   -13274.931    1025.9632   -14300.894    16.624067    1.0922001 
    4500    245.54267    -327.6082    181563.75   -13324.969    1010.0442   -14335.013    16.832755    1.0922001 
    4600    236.36565   -451.69006    181563.75   -13336.781    972.29431   -14309.075    17.720676    1.0922001 
    4700    243.62443   -509.55214    181563.75   -13333.362    1002.1534   -14335.515    18.203398    1.0922001 
    4800    248.08748   -385.87671    181563.75   -13327.379    1020.5123   -14347.891    18.590776    1.0922001 
    4900     234.9084    -407.7548    181563.75   -13359.382    966.29988   -14325.682    19.347058    1.0922001 
    5000    236.06323   -339.39632    181563.75   -13367.059    971.05032   -14338.109    19.788412    1.0922001 
    5100    238.37036   -319.62772    181563.75   -13372.275    980.54074   -14352.816     20.33684    1.0922001 
    5200    237.11775   -311.45048    181563.75   -13366.778    975.38809   -14342.166     20.98875    1.0922001 
    5300     237.9182   -485.25753    181563.75   -13408.387    978.68078   -14387.068     21.40248    1.0922001 
    5400    247.37288   -391.73237    181563.75   -13376.032    1017.5728   -14393.604    21.892237    1.0922001 
    5500     226.6261   -351.66996    181563.75   -13407.398    932.23053   -14339.629    22.231233    1.0922001 
    5600    229.45311   -119.86373    181563.75   -13414.677    943.85949   -14358.537    22.205059    1.0922001 
    5700    240.12538   -127.09683    181563.75   -13365.167    987.76003   -14352.927     22.18955    1.0922001 
    5800    243.06078   -347.38891    181563.75   -13306.885    999.83488    -14306.72    22.786617    1.0922001 
    5900     241.7795   -331.05422    181563.75   -13338.836    994.56431   -14333.401    23.526044    1.0922001 
    6000    237.44776   -281.07274    181563.75   -13400.962    976.74559   -14377.707    23.941703    1.0922001 
    6100    238.27448   -417.25525    181563.75   -13387.072    980.14632   -14367.218    23.899411    1.0922001 
    6200    230.85459   -391.03409    181563.75   -13358.554    949.62447   -14308.178    24.523848    1.0922001 
    6300    240.16798    -218.3186    181563.75    -13327.41    987.93526   -14315.345    24.957688    1.0922001 
    6400    237.66323   -448.96896    181563.75   -13329.192    977.63193   -14306.824    25.272318    1.0922001 
    6500     246.5222   -429.26994    181563.75   -13352.764    1014.0735   -14366.837    25.312492    1.0922001 
    6600    241.73631   -319.62283    181563.75   -13398.679    994.38664   -14393.066     25.92672    1.0922001 
    6700     237.0213   -259.71556    181563.75    -13412.45    974.99137   -14387.442    26.699463    1.0922001 
    6800    240.48327   -395.09174    181563.75   -13383.916    989.23222   -14373.148    27.219432    1.0922001 
    6900    225.37627   -559.19016    181563.75   -13414.248    927.08931   -14341.338    27.015888    1.0922001 
    7000    235.89156   -488.39733    181563.75   -13405.164    970.34416   -14375.508     26.73553    1.0922001 
    7100    244.06233   -457.46061    181563.75   -13334.861    1003.9548   -14338.816    26.980678    1.0922001 
    7200    230.74943   -429.29913    181563.75   -13343.942    949.19191   -14293.134    27.319836    1.0922001 
    7300    234.46415    -368.7207    181563.75   -13407.819    964.47245   -14372.292     27.16901    1.0922001 
    7400    237.19872   -429.68677    181563.75   -13417.941    975.72116   -14393.662     27.13491    1.0922001 
    7500    231.18753   -311.99756    181563.75   -13435.189    950.99403   -14386.183    27.413889    1.0922001 
    7600     231.1625   -395.94417    181563.75   -13448.044    950.89107   -14398.935    27.592401    1.0922001 
    7700    234.72879   -310.91655    181563.75   -13445.461    965.56109   -14411.022     27.96575    1.0922001 
    7800    236.17542   -442.12452    181563.75   -13405.691     971.5118   -14377.203    28.003276    1.0922001 
    7900    245.43438   -249.02011    181563.75   -13402.901    1009.5987   -14412.499     28.30282    1.0922001 
    8000    233.83216   -396.01774    181563.75   -13401.689    961.87278   -14363.561    28.376106    1.0922001 
    8100     241.7793   -402.11332    181563.75   -13412.483    994.56347   -14407.047    28.473458    1.0922001 
    8200    238.05986   -372.11947    181563.75   -13431.698    979.26351   -14410.961    28.426347    1.0922001 
    8300    241.02207   -352.16798    181563.75   -13439.305    991.44861   -14430.753    28.883741    1.0922001 
    8400    237.06228   -415.07414    181563.75   -13431.476    975.15993   -14406.636    29.324946    1.0922001 
    8500    234.88192   -232.75308    181563.75   -13410.278    966.19096   -14376.469    29.676339    1.0922001 
    8600    239.04817   -372.18948    181563.75   -13374.233    983.32891   -14357.562    30.003079    1.0922001 
    8700    228.26605   -362.31992    181563.75   -13437.454    938.97647    -14376.43    30.391581    1.0922001 
    8800    235.35519   -332.17631    181563.75    -13383.89     968.1378   -14352.028    30.731931    1.0922001 
    8900    239.30324   -209.61077    181563.75   -13394.747    984.37816   -14379.125    31.367733    1.0922001 
    9000    239.54969   -295.36076    181563.75   -13360.536    985.39195   -14345.928    31.924973    1.0922001 
    9100    245.99631   -503.13488    181563.75   -13365.893    1011.9102   -14377.803    32.335052    1.0922001 
    9200    232.01722   -279.42093    181563.75   -13400.016      954.407   -14354.423    32.588461    1.0922001 
    9300    240.15899   -498.34414    181563.75   -13411.576     987.8983   -14399.474    32.662309    1.0922001 
    9400    233.39311   -422.82775    181563.75   -13419.976    960.06671   -14380.043    33.095852    1.0922001 
    9500    234.11653   -318.28249    181563.75   -13399.662    963.04251   -14362.705    33.316919    1.0922001 
    9600    231.69424    -301.2923    181563.75     -13455.3    953.07839   -14408.378    33.316916    1.0922001 
    9700    232.91378   -431.40623    181563.75   -13393.635    958.09499    -14351.73    33.495079    1.0922001 
    9800    226.92564    -306.8345    181563.75   -13415.208    933.46268   -14348.671    33.964033    1.0922001 
    9900    236.26666   -476.49348    181563.75    -13369.26    971.88713   -14341.147    33.923045    1.0922001 
   10000    245.68109   -373.05707    181563.75   -13315.752    1010.6136   -14326.366     33.88129    1.0922001 
Loop time of 12.6178 on 128 procs for 10000 steps with 9253 atoms

Performance: 342.374 ns/day, 0.070 hours/ns, 792.533 timesteps/s
97.6% CPU use with 128 MPI tasks x no OpenMP threads

MPI task timing breakdown:
Section |  min time  |  avg time  |  max time  |%varavg| %total
---------------------------------------------------------------
Pair    | 0.00083947 | 3.4035     | 10.023     | 215.0 | 26.97
Neigh   | 0.0044904  | 0.12334    | 0.30928    |  28.3 |  0.98
Comm    | 0.17772    | 1.9212     | 8.358      | 155.9 | 15.23
Output  | 0.14878    | 0.14903    | 0.15596    |   0.2 |  1.18
Modify  | 0.31302    | 6.8667     | 12.155     | 195.8 | 54.42
Other   |            | 0.154      |            |       |  1.22

Nlocal:    72.2891 ave 150 max 0 min
Histogram: 40 0 7 17 0 0 0 14 38 12
Nghost:    704.617 ave 960 max 516 min
Histogram: 26 10 4 32 11 5 4 18 2 16
Neighs:    0 ave 0 max 0 min
Histogram: 128 0 0 0 0 0 0 0 0 0
FullNghs:  7799.62 ave 18373 max 0 min
Histogram: 46 18 0 0 0 0 2 30 23 9

Total # of neighbors = 998352
Ave neighs/atom = 107.895
Neighbor list builds = 552
Dangerous builds = 0
write_data 	    ${DIR}/data.${NAME}_eq
write_data 	    run_12/data.${NAME}_eq
write_data 	    run_12/data.ibeam_cooling_12_eq

undump              1
unfix               4



################################################
#######         Run Simulation         #########
################################################

reset_timestep      0
timestep	    10.0
log                 ${DIR}/log.run_${NAME}
log                 run_12/log.run_${NAME}
log                 run_12/log.run_ibeam_cooling_12
