
# Set production fixes - Nose/Hoover
#
fix                 4 water temp/csvr ${START_TEMP} ${END_TEMP} 500.0 928347
fix                 4 water temp/csvr 240 ${END_TEMP} 500.0 928347
fix                 4 water temp/csvr 240 227 500.0 928347


## divide "droplet" into core and surface
#region		core_reg cylinder z 135 135 44.6 20 INF units box
#region		surface_reg cylinder z 135 135 44.6 20 INF units box side out
#group		core dynamic all region core_reg
#group		surface dynamic all region surface_reg

## compute pressure core
#compute        peratom_core core stress/atom NULL
#compute        p_core core reduce sum c_peratom_core[1] c_peratom_core[2] c_peratom_core[3]
#variable       press_core equal -(c_p_core[1]+c_p_core[2]+c_p_core[3])/(3*1249982.5)


## compute pressure surface
#compute        peratom_surf surface stress/atom NULL
#compute        p_surf surface reduce sum c_peratom_surf[1] c_peratom_surf[2] #c_peratom_surf[3]
#variable       press_surf equal -(c_p_surf[1]+c_p_surf[2]+c_p_surf[3])/(3*33365)

## compute total pressure of drop
compute        peratom water stress/atom NULL
compute        p water reduce sum c_peratom[1] c_peratom[2] c_peratom[3]
variable       press equal -(c_p[1]+c_p[2]+c_p[3])/(3*50320)


# compute order parameter
compute        3 all orientorder/atom nnn NULL cutoff 3.5

# compute center of mass of bridge
compute 	4 water com

# Run simulation
thermo_style        custom step c_2 press vol etotal ke pe v_press c_1[4] c_4[*]
thermo              200
dump		     1 water custom 400 ${DIR}/prod.${NAME}.dump id type x y z vx vy vz c_3[*] c_peratom[*]
dump		     1 water custom 400 run_12/prod.${NAME}.dump id type x y z vx vy vz c_3[*] c_peratom[*]
dump		     1 water custom 400 run_12/prod.ibeam_cooling_12.dump id type x y z vx vy vz c_3[*] c_peratom[*]
run                 ${STEPS}
run                 5200000
Neighbor list info ...
  update every 1 steps, delay 0 steps, check yes
  max neighbors/atom: 2000, page size: 100000
  master list distance cutoff = 6.67472
  ghost atom cutoff = 6.67472
  binsize = 3.33736, bins = 48 13 9
  2 neighbor lists, perpetual/occasional/extra = 1 1 0
  (1) pair sw, perpetual
      attributes: full, newton on
      pair build: full/bin/atomonly
      stencil: full/bin/3d
      bin: standard
  (2) compute orientorder/atom, occasional, copy from (1)
      attributes: full, newton on
      pair build: copy
      stencil: none
      bin: none
Per MPI rank memory allocation (min/avg/max) = 6.133 | 6.584 | 7.261 Mbytes
Step c_2 Press Volume TotEng KinEng PotEng v_press c_1[4] c_4[1] c_4[2] c_4[3] 
       0    245.68109   -373.05707    181563.75   -13315.752    1010.6136   -14326.366   -771.47017     33.88129    78.720164     25.12769    16.313138 
     200    233.70929   -364.38186    181563.75   -13329.898    961.36735   -14291.266   -715.32306    34.976961    78.717747    25.131797    16.335835 
     400     233.4284   -312.69226    181563.75   -13307.833    960.21191   -14268.045   -536.10169    37.752178    78.718585    25.131405    16.356813 
     600    232.51433     -288.189    181563.75   -13371.248    956.45184     -14327.7   -501.63458    39.936999    78.720157    25.135497    16.372958 
     800    233.87936   -418.40626    181563.75   -13376.602    962.06693   -14338.669   -961.77079     42.53995    78.722044    25.141321    16.395046 
    1000    249.72715   -279.19592    181563.75   -13284.724    1027.2571   -14311.982   -412.38949    43.459529    78.724039    25.141445    16.389533 
    1200    239.96962   -362.84761    181563.75   -13376.257    987.11931   -14363.377   -719.11329    42.877295    78.722553    25.140265     16.37091 
    1400    247.32196   -289.72789    181563.75   -13258.541    1017.3633   -14275.904   -499.77917    42.717159    78.720655    25.138272    16.381049 
    1600    239.01744   -441.68911    181563.75   -13248.478     983.2025   -14231.681   -1008.4433    44.041182    78.717342    25.140351    16.391776 
    1800      242.649   -363.85537    181563.75   -13278.539    998.14101    -14276.68   -744.36316     45.37253    78.716837    25.136036     16.39405 
    2000    254.14991   -385.22299    181563.75   -13178.239    1045.4502   -14223.689   -841.16633    47.936456     78.71602    25.133992    16.382712 
    2200    242.49708   -335.86556    181563.75    -13195.01    997.51608   -14192.526   -616.58265    50.674753    78.715742     25.13197    16.341119 
    2400    249.95745   -340.96414    181563.75   -13229.681    1028.2044   -14257.885   -650.91779    53.245456    78.714363     25.13124    16.357197 
    2600    236.08686    -473.4673    181563.75   -13257.802    971.14752   -14228.949   -1144.6944    56.075968    78.713502    25.129223     16.34613 
    2800    244.70231   -257.36418    181563.75   -13219.415    1006.5873   -14226.002    -361.4821    58.332992     78.71563    25.127559    16.346975 
    3000    231.66298   -259.04467    181563.75   -13294.174    952.94983   -14247.124   -357.22593    61.131487    78.714684     25.12984    16.323247 
    3200    240.54639    -305.4883    181563.75   -13312.094    989.49189   -14301.585    -533.0713    65.074502    78.711833    25.128288    16.325651 
    3400    244.59334   -248.85675    181563.75   -13324.704    1006.1391   -14330.843   -339.04809    69.937141     78.71286    25.126316    16.321157 
    3600    237.51372   -206.36908    181563.75    -13282.98    977.01693   -14259.997   -222.10787    76.221828    78.711969    25.126602    16.334754 
    3800    238.65374   -385.77619    181563.75   -13292.619    981.70643   -14274.326   -837.21287    81.428454    78.710426    25.129254    16.332118 
    4000     241.1229   -250.63486    181563.75   -13285.529    991.86335   -14277.392   -315.50276    81.529518    78.709504    25.127068    16.338526 
    4200    242.50373   -187.88171    181563.75   -13200.756    997.54345   -14198.299    -100.1545    79.164171    78.712942    25.120972    16.355814 
    4400    251.71732   -409.26707    181563.75   -13169.827    1035.4437    -14205.27   -932.94943    78.722224    78.717231      25.1248    16.368927 
    4600    237.08262   -303.34241    181563.75    -13255.85    975.24361   -14231.094   -504.32024    78.841592    78.716567    25.126247    16.381941 
    4800    247.83771   -235.42733    181563.75   -13218.459    1019.4848   -14237.943   -306.22284     80.77244    78.719366    25.127311    16.375374 
    5000    234.73922   -371.49837    181563.75   -13274.289    965.60398   -14239.893   -768.45259    82.382507    78.718548    25.125963    16.357673 
    5200    239.57675   -297.95596    181563.75   -13261.915    985.50324   -14247.419   -522.17427    84.632036    78.715299    25.128028    16.364719 
    5400    242.66115   -480.39106    181563.75   -13235.526    998.19096   -14233.717   -1094.9399    87.905359     78.71616    25.128886    16.387954 
    5600    230.57548   -370.05042    181563.75   -13278.412    948.47637   -14226.888   -782.81921    88.768093    78.720663    25.131607    16.397085 
    5800    246.65271   -293.32703    181563.75   -13157.462    1014.6103   -14172.073   -480.11039    88.082131    78.721719     25.12841    16.387337 
    6000    237.73216   -260.26961    181563.75   -13349.885    977.91548   -14327.801    -377.4288    89.348248    78.720956    25.127965    16.397439 
    6200    241.73181   -404.11448    181563.75    -13283.37    994.36814   -14277.738   -934.60457    91.578212    78.722485    25.129589     16.39851 
    6400    234.00447   -139.18842    181563.75   -13275.352    962.58156   -14237.934    29.183072    92.922416    78.722029    25.130705     16.41063 
    6600    234.17857   -483.52909    181563.75   -13331.893    963.29774   -14295.191   -1143.7433    96.454125    78.726884    25.132532    16.388146 
    6800    242.29123   -285.81056    181563.75    -13325.76    996.66932    -14322.43   -427.22237    98.878602    78.728112    25.132613    16.386479 
    7000     228.5153   -345.56624    181563.75    -13331.63    940.00176   -14271.632   -644.71863    100.41542     78.72573    25.133998    16.374455 
    7200    245.99473   -343.81057    181563.75   -13254.047    1011.9037   -14265.951   -703.01302    102.58421    78.720859     25.13604    16.376687 
    7400    236.38134    -324.6868    181563.75   -13314.166    972.35888   -14286.525   -581.76998    104.30208    78.721779    25.133579    16.401775 
    7600    237.37895   -289.71666    181563.75   -13339.581    976.46255   -14316.044   -451.41507    103.68282    78.723518    25.133028    16.427483 
    7800    244.06672    -396.9834    181563.75   -13274.167    1003.9728    -14278.14   -885.18211    102.39216    78.723553    25.135357    16.427803 
    8000    246.64344   -354.03367    181563.75   -13278.213    1014.5722   -14292.785   -711.47766    99.999103     78.72161    25.141034    16.416154 
    8200    235.34208   -265.34688    181563.75   -13305.721    968.08385   -14273.805   -364.64092     100.7789    78.722157    25.144365    16.421364 
    8400    232.73565   -382.77478    181563.75    -13316.75    957.36224   -14274.112   -797.63961     101.1926    78.724882    25.145585    16.398741 
    8600    236.93727   -309.88797    181563.75   -13267.433     974.6457   -14242.079    -577.4785    103.23807    78.724995    25.150798    16.418199 
    8800    239.21706   -300.81313    181563.75   -13304.329    984.02366   -14288.353   -514.54795    107.29673     78.72752    25.152307    16.401235 
    9000    243.48648   -287.82892    181563.75   -13274.864     1001.586    -14276.45   -430.42879    109.92056    78.727121    25.154801    16.410813 
    9200     240.0053    -318.7157    181563.75   -13306.516    987.26608   -14293.782   -501.37173    111.23724    78.725952    25.158559    16.403299 
    9400    241.53986   -258.72122    181563.75   -13341.144    993.57852   -14334.723     -356.048    111.05153    78.723771    25.161728    16.387265 
    9600    232.90157    -230.9842    181563.75   -13387.957    958.04479   -14346.001   -311.26249     109.6267    78.724855    25.160226    16.394913 
    9800    234.21787   -448.84045    181563.75   -13337.915    963.45941   -14301.374   -1013.6485    112.09172    78.730119    25.162503    16.392012 
   10000    243.53163   -327.38937    181563.75   -13192.421    1001.7717   -14194.192   -583.95381     111.1194    78.728722    25.164197    16.382935 
   10200    241.12475   -260.76445    181563.75   -13214.047    991.87097   -14205.918   -335.31379    110.52049     78.73001    25.164737    16.379424 
   10400    243.02497   -439.60146    181563.75   -13252.306    999.68756   -14251.993   -1028.0528    112.79837    78.730291    25.165734    16.380066 
   10600    250.26035   -205.09135    181563.75   -13245.737    1029.4504   -14275.188   -186.94233    116.02025    78.732018    25.163425    16.392336 
   10800    239.71025   -395.52552    181563.75   -13285.643     986.0524   -14271.695   -877.83534    120.65667    78.729151    25.159992    16.363281 
   11000     241.2121   -421.87654    181563.75   -13315.498    992.23027   -14307.729    -914.3159    122.83229    78.730854    25.156613    16.360748 
   11200    238.42537   -318.21212    181563.75   -13298.739    980.76704   -14279.506   -578.70046    123.98847    78.731641    25.154616    16.350813 
   11400    241.45116   -267.75396    181563.75   -13290.937    993.21366   -14284.151    -382.6015    126.39908    78.729753    25.150321    16.363847 
   11600    233.83047   -422.26418    181563.75   -13298.219    961.86581   -14260.085   -967.82919    127.54623    78.733045    25.148285    16.358899 
   11800    236.12385    -404.2777    181563.75   -13294.617    971.29967   -14265.916   -876.20893    126.80906    78.731261    25.147325     16.37322 
   12000    240.37004   -287.20142    181563.75    -13257.34    988.76644   -14246.106   -453.30002    128.64093    78.731056    25.146994     16.36771 
   12200    238.41077   -528.61985    181563.75   -13260.321    980.70695   -14241.028   -1292.9414    128.18555    78.731516    25.148076     16.36248 
   12400      243.224   -398.46386    181563.75   -13214.043    1000.5063   -14214.549   -875.64441     128.6182    78.732906    25.149425    16.356751 
   12600    248.24109   -433.26271    181563.75   -13190.366    1021.1442    -14211.51   -985.33355    131.47367    78.734813    25.147945    16.337143 
   12800    242.50914   -402.88224    181563.75   -13295.042    997.56567   -14292.608   -915.81216    134.60427     78.73683    25.149814    16.373407 
   13000    237.68236   -239.16568    181563.75   -13342.457    977.71065   -14320.167   -291.64521    135.70078    78.740223    25.150568    16.377444 
   13200    234.87947   -271.24781    181563.75   -13255.259    966.18089   -14221.439   -440.07115    135.72406    78.738651    25.150395    16.365269 
   13400    242.19341   -316.45729    181563.75   -13207.878    996.26694   -14204.145   -559.07548     137.2814     78.73654    25.148709    16.345654 
   13600    245.21071   -227.44374    181563.75   -13275.613    1008.6786   -14284.292   -241.90717    138.75761    78.736271    25.149156    16.374397 
   13800     233.4069   -536.48936    181563.75   -13326.569    960.12346   -14286.693   -1316.7138    141.09884    78.736101    25.145555    16.369595 
   14000    239.73115   -368.78763    181563.75   -13286.638    986.13836   -14272.776   -759.86474    141.27355    78.738401    25.145596    16.395368 
   14200    243.09957   -318.07721    181563.75   -13344.006    999.99445       -14344    -566.9014    141.08018    78.742516    25.143866    16.379129 
   14400    224.20659   -329.69136    181563.75   -13386.476    922.27782   -14308.754   -650.39631    139.34286    78.742725    25.143027    16.364702 
   14600    236.53069   -333.84159    181563.75   -13347.738    972.97321   -14320.711   -633.23491    137.16153    78.742772    25.147069    16.383377 
   14800    237.24686   -432.86871    181563.75   -13310.781    975.91922     -14286.7   -1027.1777     135.8799    78.744524     25.14959     16.41301 
   15000    231.13332   -501.38261    181563.75   -13319.503    950.77105   -14270.274   -1240.4642    134.73834    78.742898    25.148694    16.397798 
   15200    232.54059   -326.58432    181563.75   -13385.896    956.55987   -14342.456    -614.2353    135.76917    78.741811    25.151902    16.370442 
   15400    232.74566   -302.53961    181563.75   -13337.682    957.40344   -14295.086   -536.47634    138.07435    78.739166    25.152533    16.400614 
   15600    237.84865   -177.19541    181563.75   -13405.671    978.39469   -14384.066   -75.842378    137.53128     78.74026    25.151383    16.390208 
   15800    248.50503   -486.60101    181563.75   -13325.355    1022.2299   -14347.585   -1156.8757    139.43494     78.74269    25.151615    16.388488 
   16000    237.64685   -279.07909    181563.75   -13363.892    977.56455   -14341.457   -447.77596    139.02277    78.746294    25.153598    16.428029 
   16200    243.00242   -372.37267    181563.75   -13275.855    999.59478    -14275.45   -748.44515     140.6768    78.750123    25.150147     16.47544 
   16400    242.32648   -465.04947    181563.75   -13249.164     996.8143   -14245.979   -1151.4552    142.03381    78.752556    25.146876    16.461676 
   16600    238.65062   -318.00679    181563.75   -13282.513    981.69357   -14264.207   -564.22862    143.07558    78.754457    25.147194    16.465333 
   16800    232.15296   -472.47775    181563.75   -13274.017    954.96536   -14228.983   -1093.6179    143.71274    78.754383    25.149738    16.476665 
   17000    237.79652   -350.07075    181563.75   -13303.895    978.18024   -14282.075   -646.62454     144.3491    78.751491    25.150319    16.458385 
   17200    238.01327   -232.05671    181563.75   -13312.732    979.07184   -14291.803   -256.94576    145.66432    78.747654     25.15406    16.467429 
   17400    240.34104   -368.07621    181563.75   -13286.111    988.64717   -14274.758   -750.45358    147.96253    78.744935    25.159808    16.462736 
   17600    247.99737   -296.12264    181563.75   -13212.011    1020.1416   -14232.152   -491.65138    150.25596    78.742269    25.164036    16.476316 
   17800    233.48213   -374.03561    181563.75    -13244.86    960.43292   -14205.292   -770.71367    153.61831    78.742206    25.162295    16.479507 
   18000    240.55366    -491.3387    181563.75   -13273.953    989.52176   -14263.475   -1190.2028    155.89319    78.741821    25.163112    16.477503 
   18200    240.20153   -376.43391    181563.75   -13293.256     988.0733   -14281.329    -760.7342    157.35188    78.742237     25.16461    16.453867 
   18400    241.95955   -404.90054    181563.75   -13268.198    995.30495   -14263.503   -883.68935    159.89091     78.74491     25.16201    16.470013 
   18600    240.14867   -559.67049    181563.75   -13236.646    987.85584   -14224.501   -1403.9722    162.84012    78.751745    25.161771    16.494119 
   18800    237.02823   -235.83167    181563.75   -13300.957    975.01984   -14275.977   -309.20692    162.21288    78.754737    25.161711    16.507433 
   19000    238.28626   -558.76357    181563.75   -13290.511    980.19478   -14270.706   -1429.0893    165.15399    78.747894    25.162766    16.460186 
   19200    235.87927   -462.11085    181563.75   -13281.031     970.2936   -14251.325    -1100.655    168.94836    78.746109    25.162934    16.456174 
   19400    237.54679   -306.49745    181563.75   -13269.704    977.15298   -14246.857   -477.47024    170.37144    78.742209    25.163965    16.488484 
   19600    230.08878   -326.74832    181563.75   -13336.047    946.47431   -14282.522    -573.3314     172.8303    78.743924    25.164706    16.521278 
   19800    232.00498   -289.52117    181563.75   -13297.115    954.35661   -14251.472   -459.87956     170.2438    78.744298    25.159311    16.527346 
   20000    239.97134   -264.53394    181563.75   -13329.378     987.1264   -14316.505   -381.75342    173.86096    78.741069    25.157262    16.522283 
   20200     241.1455   -669.05649    181563.75   -13322.988    991.95633   -14314.944   -1817.8272    176.00267    78.743634     25.15797    16.515451 
   20400    233.78086   -461.84472    181563.75   -13373.254    961.66174   -14334.916   -1055.5296     177.7869    78.744438    25.161576    16.497857 
   20600    241.36628   -304.18578    181563.75   -13303.172    992.86452   -14296.036   -491.85666    178.44132    78.744711    25.163708    16.499309 
   20800    241.76034   -234.25686    181563.75   -13336.099    994.48547   -14330.584   -272.12005    177.19574    78.740192     25.16661    16.470165 
   21000    241.82138   -322.67389    181563.75   -13299.327    994.73655   -14294.064   -595.09713    175.99492    78.736465    25.163552     16.48761 
   21200    237.91431    -396.4755    181563.75   -13296.183    978.66475   -14274.848   -850.09666    176.14949    78.738062    25.161241     16.47935 
   21400    241.22881   -362.16021    181563.75   -13355.746    992.29903   -14348.045   -720.73726    174.72277    78.736752    25.164204    16.495537 
   21600    243.37667   -233.88499    181563.75   -13290.075    1001.1343   -14291.209   -271.55634    174.79537    78.739847    25.164709    16.486325 
   21800    242.74604   -455.65133    181563.75    -13289.98    998.54017    -14288.52    -1055.155    175.63157    78.741299    25.167723    16.481133 
   22000    238.71156   -403.31167    181563.75   -13307.619    981.94428   -14289.563   -859.28321    177.21432    78.737734    25.168929    16.475625 
   22200     240.2719   -286.99199    181563.75   -13278.668    988.36277   -14267.031   -493.29958     175.9881    78.735649    25.166903    16.453639 
   22400    235.95677   -346.84976    181563.75   -13282.913    970.61241   -14253.525   -661.44815    176.86084    78.735464    25.169039    16.442009 
   22600    231.65829    -461.7403    181563.75   -13327.989    952.93051    -14280.92   -1050.8317    178.94129    78.738137    25.166489    16.456675 
   22800    235.92889    -327.8443    181563.75   -13283.257    970.49772   -14253.755    -626.4494    180.66323    78.738836     25.16313    16.443807 
   23000    237.08128   -440.47631    181563.75   -13329.094    975.23808   -14304.332   -1004.0968    182.39509    78.741263    25.162683    16.449094 
   23200    243.67807   -386.46366    181563.75   -13334.367    1002.3741   -14336.741   -795.81342    181.54836    78.742411    25.159916    16.451691 
   23400    241.73264   -334.42275    181563.75   -13309.567    994.37153   -14303.938   -640.47331    179.68509    78.746393    25.164685    16.446052 
   23600    236.05693   -294.82486    181563.75   -13373.262    971.02439   -14344.286   -488.69239    180.97504    78.746403    25.166469    16.453953 
   23800    240.97743   -419.56621    181563.75   -13369.639    991.26498   -14360.904   -901.60165    182.43601    78.747613    25.169135    16.477006 
   24000    241.88505   -293.96141    181563.75   -13299.532    994.99846    -14294.53    -455.5148    179.94158    78.748435     25.16925       16.498 
   24200    247.21722   -266.63264    181563.75   -13289.561    1016.9325   -14306.493   -407.88616    180.08011    78.747923    25.171634    16.481296 
   24400    249.26769   -412.58423    181563.75   -13276.004    1025.3671   -14301.371   -909.18349    178.78281    78.750587    25.173331     16.46295 
   24600    247.57706   -381.23801    181563.75   -13318.229    1018.4127   -14336.641   -873.96116    180.18924     78.75256    25.171879    16.481978 
   24800    241.59151   -359.64573    181563.75   -13298.429      993.791    -14292.22   -702.47272    180.71692    78.753023    25.169337    16.472091 
   25000    237.37415   -325.48476    181563.75   -13340.793    976.44281   -14317.236   -554.25417    182.02281    78.754705    25.169206    16.483681 
   25200    243.91938   -307.69252    181563.75   -13292.972    1003.3667   -14296.339   -517.88634    184.06946    78.755089    25.175756    16.480064 
   25400     247.5699   -426.04459    181563.75   -13330.575    1018.3832   -14348.958   -965.92271    185.58788    78.756831    25.179677    16.454191 
   25600    244.01826   -417.72472    181563.75   -13286.026    1003.7735   -14289.799   -901.93505    187.85542    78.759147    25.178451      16.4362 
   25800    244.74306   -310.54463    181563.75   -13342.195     1006.755    -14348.95   -539.32556     185.3493    78.757488    25.172966    16.390448 
   26000    233.92476   -352.28611    181563.75   -13366.736    962.25369    -14328.99   -678.97968    185.87072    78.754848    25.168573    16.374623 
   26200    232.07228   -426.08572    181563.75   -13332.387    954.63347    -14287.02   -944.25436    186.09733    78.757436     25.16803    16.359868 
   26400    233.39949   -310.15448    181563.75    -13399.72    960.09297   -14359.813   -546.21133    186.21341      78.7587    25.168095    16.379506 
   26600    239.88518   -380.32481    181563.75   -13356.376    986.77197   -14343.148    -799.9638     188.0156    78.757407    25.167773    16.353424 
   26800    245.70625   -344.08007    181563.75   -13275.326     1010.717   -14286.043   -642.59612    187.78326     78.75889    25.170597    16.362357 
   27000    241.97249   -492.22732    181563.75   -13315.495    995.35815   -14310.853   -1208.8675    187.65207     78.76188    25.169723    16.376192 
   27200    239.09479   -278.77647    181563.75   -13240.023    983.52068   -14223.543   -413.91045    188.28463     78.76573    25.168807    16.376641 
   27400    241.52118   -257.57456    181563.75   -13217.506     993.5017   -14211.008   -331.47083    187.97692    78.764862    25.172924    16.371142 
   27600    242.39343   -323.22805    181563.75   -13275.859     997.0897   -14272.949   -612.32656    188.14669    78.767224    25.170794      16.3654 
   27800    238.79395   -310.92879    181563.75   -13365.476     982.2832   -14347.759   -528.43073    191.12679    78.767071    25.173327    16.359226 
   28000    236.05911    -282.9373    181563.75   -13301.317    971.03336    -14272.35   -442.26501     190.8629    78.766269    25.174354     16.33009 
   28200    242.56639   -440.97738    181563.75    -13269.87    997.80117   -14267.671    -1010.508    193.53899    78.767741    25.172108    16.333896 
   28400    249.36722   -232.40814    181563.75   -13297.753    1025.7765    -14323.53   -238.30787    195.76097    78.766605    25.171379    16.315888 
   28600    239.09996   -326.65583    181563.75   -13310.216    983.54197   -14293.758   -610.96665     196.8153    78.761026    25.172568    16.326231 
   28800    231.77225   -384.14755    181563.75   -13355.033    953.39928   -14308.432   -789.43998     196.2874    78.757205    25.175592    16.345607 
   29000    230.99643   -255.44452    181563.75   -13315.808    950.20793   -14266.015   -324.16453    195.29716     78.75669     25.17495    16.366573 
   29200      233.306   -510.01059    181563.75   -13295.884    959.70838   -14255.592   -1241.9179    196.61381    78.760218    25.178099    16.350014 
   29400    237.62246    -400.5233    181563.75   -13285.992    977.46423   -14263.456   -833.77193    197.64975    78.763802    25.180294    16.340497 
   29600      243.386   -221.74346    181563.75   -13329.912    1001.1727   -14331.085   -211.38726    197.79707    78.763173    25.181076    16.334422 
   29800    243.23791   -398.49252    181563.75   -13325.276    1000.5635   -14325.839   -858.17223    199.20081    78.763594    25.182443    16.377281 
   30000    234.88533   -350.53701    181563.75   -13316.854    966.20499   -14283.059    -662.0367    201.07307    78.765946     25.18159    16.387029 
   30200    239.98625   -418.91822    181563.75   -13355.652    987.18773   -14342.839   -926.66997    202.76548    78.766768    25.180203    16.386606 
   30400    229.67712   -401.82521    181563.75   -13373.294    944.78094   -14318.075   -865.94684    204.39128     78.76801    25.181373    16.378261 
   30600    232.32105   -275.11935    181563.75   -13376.449     955.6568   -14332.106   -414.16551    205.08719    78.767258    25.178314    16.373869 
   30800    239.61185   -290.08211    181563.75   -13326.057    985.64763   -14311.704   -488.88677    204.64493    78.768577    25.175973    16.350781 
   31000    235.27577    -452.2556    181563.75   -13330.187    967.81109   -14297.998   -1006.5486    206.15104    78.767496    25.170057    16.338445 
   31200    231.62284   -363.37794    181563.75   -13295.027    952.78471   -14247.811   -726.94127    204.64669     78.76876    25.169265    16.355241 
   31400    236.82033    -495.5961    181563.75   -13292.355    974.16464   -14266.519   -1175.7532    204.52029    78.767353      25.1691     16.39367 
   31600    244.51466   -342.24409    181563.75   -13247.843    1005.8154   -14253.659   -632.34907    203.96486    78.767695    25.171763    16.397452 
   31800    239.84172   -470.15754    181563.75   -13287.656    986.59319   -14274.249   -1083.8079    206.18754    78.770451    25.174341    16.370938 
   32000    241.61124   -454.54333    181563.75   -13291.076    993.87214   -14284.948   -1041.7467    205.62433    78.768949    25.177834    16.354289 
   32200    233.12625   -382.57886    181563.75   -13325.231      958.969     -14284.2   -802.33385    205.76996    78.769873    25.175778    16.341293 
   32400    241.68254   -399.12321    181563.75   -13300.637    994.16545   -14294.802   -834.00089    206.49774    78.773255    25.175073    16.347102 
   32600    235.10928   -461.89722    181563.75    -13275.96    967.12624   -14243.086    -1074.891    206.96584    78.775743    25.175053     16.35956 
   32800    242.82712   -348.63125    181563.75   -13306.945     998.8737   -14305.819   -601.32502    207.81494    78.780928    25.171509    16.372648 
   33000    241.25155   -454.59589    181563.75   -13288.614    992.39256   -14281.006   -1056.5859    208.82649    78.782718    25.175849    16.364747 
   33200    242.32311   -299.10479    181563.75   -13287.937    996.80043   -14284.737   -474.02834    209.82709    78.785458    25.177279     16.35271 
   33400     239.8745    -475.6092    181563.75   -13278.378    986.72806   -14265.106   -1143.6187    210.22857     78.78393    25.181874    16.350244 
   33600     236.9081   -353.47422    181563.75   -13296.616    974.52572   -14271.142   -723.36502    209.67466     78.78289     25.17963     16.37185 
   33800    244.32318    -350.4101    181563.75   -13283.052    1005.0278    -14288.08   -646.99014    210.80577    78.779635    25.177506    16.378717 
   34000    237.96261   -394.63009    181563.75   -13291.103    978.86344   -14269.967   -844.05603    210.38388    78.776778    25.179175    16.382223 
   34200    231.11477    -275.4318    181563.75   -13325.034    950.69474   -14275.729   -362.99784    212.61636    78.777754      25.1769    16.391972 
   34400    232.18846   -308.34259    181563.75   -13340.301    955.11138   -14295.413   -564.78111    214.25385    78.776773    25.180138    16.385999 
   34600    238.61943   -452.19153    181563.75   -13300.069    981.56527   -14281.634    -1032.588    214.51129    78.778178    25.180195    16.365043 
   34800    238.26051   -287.73417    181563.75   -13302.014    980.08886   -14282.103   -459.49531    215.85496    78.781395    25.182122    16.397533 
   35000    242.66236   -150.45526    181563.75   -13294.627    998.19595   -14292.823    13.810849    217.67038    78.783742    25.178021    16.399861 
   35200    248.85793   -305.01005    181563.75   -13255.076    1023.6816   -14278.757   -535.33973    219.67326    78.784183    25.178217    16.413996 
   35400    238.78386   -500.15579    181563.75   -13187.012    982.24167   -14169.253   -1223.2536    221.07514    78.784752    25.178884    16.416755 
   35600    249.37404   -315.40137    181563.75   -13264.025    1025.8046    -14289.83   -558.99322    222.40837    78.787944    25.181837    16.433053 
   35800    250.86128   -320.55225    181563.75   -13228.615    1031.9224   -14260.537   -548.08841    222.30932    78.789208    25.187317    16.405285 
   36000    235.06532   -421.43006    181563.75   -13315.342    966.94538   -14282.287   -951.47584     225.1655    78.791219    25.186533    16.401213 
   36200    235.64163   -305.19388    181563.75   -13314.468    969.31605   -14283.784   -563.98208    227.85551    78.791007     25.18641    16.392892 
   36400    240.40235   -403.32769    181563.75   -13272.622    988.89936   -14261.521   -904.45311    228.37285    78.789365     25.18718    16.402622 
   36600     244.8357   -225.42934    181563.75    -13297.46     1007.136   -14304.596   -257.12869    227.92395    78.787485     25.18464    16.406827 
   36800    233.63992   -349.30166    181563.75   -13319.068    961.08197    -14280.15   -702.15511    228.07193    78.783677    25.184857    16.386248 
   37000    242.58146   -483.74303    181563.75   -13253.704    997.86317   -14251.567   -1152.1433     228.2527    78.782053      25.1838    16.377687 
   37200    238.79855   -273.28835    181563.75   -13304.164    982.30209   -14286.466   -449.49939    229.34439    78.783386    25.182279    16.367665 
   37400    239.84902   -267.34003    181563.75   -13232.349    986.62322   -14218.972    -363.1439    230.63102    78.782838     25.18166    16.376818 
   37600    251.35223   -220.36488    181563.75   -13205.131    1033.9419   -14239.073    -238.9322    234.26823    78.783773    25.180116    16.376007 
   37800    241.35893   -332.37253    181563.75   -13288.356    992.83426    -14281.19   -590.17383    236.06345     78.78392    25.179756    16.360703 
   38000    235.90302   -421.56948    181563.75   -13284.515    970.39128   -14254.907   -977.38309     236.7349    78.779611    25.178295    16.365342 
   38200     238.5597   -384.96252    181563.75   -13245.893     981.3196   -14227.212   -779.28441    239.41978    78.781086    25.179369    16.383588 
   38400    252.54151   -181.85987    181563.75   -13225.407     1038.834   -14264.241   -70.458472    239.89323    78.780563    25.180906    16.397453 
   38600    237.93421    -389.2072    181563.75   -13267.812    978.74664   -14246.558   -794.79253    240.91037    78.780559    25.186388    16.385887 
   38800    243.42491    -419.1968    181563.75   -13266.435    1001.3327   -14267.767    -895.5483     240.9333    78.780405    25.191101    16.405625 
   39000    249.38536   -516.87126    181563.75   -13226.809    1025.8511    -14252.66   -1272.3018    242.09162    78.781354    25.193953    16.403267 
   39200    233.56875   -486.44816    181563.75   -13295.209    960.78924   -14255.998   -1197.2356    243.58405    78.778694    25.192897    16.415419 
   39400    243.65846    -333.5463    181563.75   -13251.104    1002.2934   -14253.397   -643.57845    243.68652    78.777031    25.190683    16.420168 
   39600    232.33712   -291.68791    181563.75    -13272.03    955.72289   -14227.753   -468.33515    245.02101    78.779714    25.191659    16.405124 
   39800    247.30848   -500.31889    181563.75   -13173.207    1017.3079   -14190.515   -1258.0651    247.67948    78.777975    25.190787    16.398432 
   40000    231.80114   -421.33886    181563.75   -13279.233    953.51813   -14232.751   -950.23768    249.93905    78.777502    25.191754    16.340969 
   40200    234.05562   -339.48245    181563.75   -13314.439    962.79198   -14277.231   -619.61572    249.28541    78.777405    25.195718    16.353825 
   40400    242.31353   -339.83541    181563.75   -13235.091    996.76102   -14231.852    -653.8557    250.17825    78.779063     25.19825    16.352311 
   40600    228.93022   -506.29989    181563.75   -13373.191    941.70854   -14314.899   -1229.9811    251.12548    78.778455    25.197484    16.371767 
   40800    238.83177   -182.15727    181563.75   -13323.895    982.43874   -14306.334   -84.979227    250.86696    78.777154    25.197842    16.341299 
   41000    239.08547   -289.76351    181563.75    -13279.52    983.48234   -14263.002    -473.3073    253.08569     78.77663    25.196541    16.315122 
   41200    240.58658    -286.9569    181563.75   -13275.877    989.65721   -14265.534   -495.85861    252.55085    78.774524     25.20011    16.315205 
   41400     239.2537   -278.11574    181563.75   -13265.455    984.17438    -14249.63   -462.85165    253.95242    78.774879    25.194905    16.309691 
   41600    244.88387    -282.1115    181563.75   -13229.168    1007.3342   -14236.502   -429.93031     253.9297    78.772196    25.193187    16.319918 
   41800    233.96732   -441.17865    181563.75   -13324.415    962.42874   -14286.843   -1004.9632     257.0453    78.773718    25.189549    16.295636 
   42000    236.81656   -294.98376    181563.75   -13326.132    974.14916   -14300.281   -492.22458    256.29681     78.77473    25.189704    16.318339 
   42200    243.03315   -327.44628    181563.75   -13323.062    999.72121   -14322.783   -619.77461    258.22384    78.772279    25.191619    16.334473 
   42400    240.60588    -371.4278    181563.75   -13324.291    989.73659   -14314.028   -680.61032    257.30539    78.768023    25.192758    16.327805 
   42600    243.58705   -427.92507    181563.75    -13334.18    1001.9997    -14336.18   -955.99565    259.60735    78.766478     25.19023    16.317564 
   42800    245.69469   -259.75258    181563.75   -13298.642    1010.6695   -14309.311   -352.86491    260.30427    78.762877    25.189685    16.333053 
   43000    236.90134   -259.48555    181563.75   -13297.314     974.4979   -14271.812   -368.60667    262.95718    78.760577    25.191152     16.33098 
   43200    243.45384   -388.02134    181563.75   -13299.852    1001.4517   -14301.303   -820.10133    264.45892    78.761541    25.192995    16.317237 
   43400    235.17691   -417.55791    181563.75   -13341.915    967.40441   -14309.319   -958.21781    264.95191    78.761117    25.198405     16.34108 
   43600     237.7757   -426.40987    181563.75   -13376.651    978.09458   -14354.745   -951.29218    268.30132    78.759723    25.202903    16.346615 
   43800    237.57623   -467.65391    181563.75   -13341.324    977.27407   -14318.599   -1042.9668     268.8607    78.758791    25.202636    16.326698 
   44000    241.07642   -261.71056    181563.75   -13389.787    991.67215   -14381.459   -368.86712    267.87608     78.75834    25.204394    16.336208 
   44200    236.20193   -539.85892    181563.75   -13316.193    971.62086   -14287.814   -1343.9484    268.25305    78.757714    25.204714    16.349989 
   44400    255.40602   -221.92943    181563.75   -13252.363    1050.6172   -14302.981   -219.71429    266.24168    78.756693    25.201991    16.355684 
   44600    233.14322    -369.9923    181563.75   -13320.871    959.03881    -14279.91   -758.51115    267.05845    78.755813    25.199327    16.358813 
   44800    239.67005   -432.45567    181563.75   -13324.193    985.88703    -14310.08   -1028.1723    267.16979    78.753172    25.201528     16.35544 
   45000    250.48356   -150.98061    181563.75   -13288.498    1030.3686   -14318.867    10.249795    268.02727    78.749315    25.201719    16.368384 
   45200    251.22586    -285.2904    181563.75       -13205    1033.4221   -14238.422   -400.20897    269.12003      78.7519     25.20618    16.350147 
   45400    247.29715   -454.13169    181563.75   -13210.671    1017.2613   -14227.932    -1087.349    269.74274    78.752624    25.206294    16.364875 
   45600    240.50014   -228.88828    181563.75   -13225.113    989.30161   -14214.414   -259.05801    270.62981    78.759541    25.201307    16.364117 
   45800    234.78448   -321.87491    181563.75   -13274.568    965.79014   -14240.358   -563.49793     271.6102    78.762227    25.199111    16.340064 
   46000    238.75487   -259.19766    181563.75   -13244.083    982.12243   -14226.205   -342.10652    270.87959    78.764811    25.199668    16.283277 
   46200     244.2558   -398.26074    181563.75   -13241.045    1004.7506   -14245.795   -917.35784    272.11286    78.768728    25.197714    16.296751 
   46400    245.82538   -168.39886    181563.75   -13220.815    1011.2071   -14232.022   -25.840187    272.00064    78.770216    25.196691    16.295475 
   46600    234.53198   -483.67703    181563.75   -13250.024    964.75149   -14214.776   -1132.7206    272.48831    78.771594    25.199607    16.300471 
   46800    246.54251    -221.9757    181563.75   -13204.404     1014.157   -14218.561   -259.92267    273.40715    78.771649    25.202589    16.288282 
   47000    250.60134   -376.54816    181563.75   -13199.177    1030.8531    -14230.03   -789.72768    274.44857    78.767654    25.207612     16.28301 
   47200    233.92926    -460.2683    181563.75   -13299.167     962.2722   -14261.439   -1103.1844    274.14679    78.763798    25.207239    16.288496 
   47400    242.16071   -285.70592    181563.75   -13254.321    996.13243   -14250.453   -462.64855    276.76785    78.760285    25.206611    16.288979 
   47600    240.84711   -487.98608    181563.75   -13263.443    990.72889   -14254.172    -1203.435    277.65629    78.760569    25.203974    16.299087 
   47800    241.05581   -286.47029    181563.75   -13253.717    991.58737   -14245.304   -457.61449    278.10705    78.762521    25.205056    16.307438 
   48000    237.29428   -235.77789    181563.75   -13279.453    976.11426   -14255.568   -281.16511    277.90435     78.76068    25.206711    16.330289 
   48200    244.03683   -297.86044    181563.75    -13262.59    1003.8499    -14266.44    -449.4182    280.65746    78.763052    25.206973    16.322488 
   48400    235.01511   -307.25393    181563.75   -13295.338    966.73884   -14262.077    -507.6569    281.82207    78.762167    25.205357    16.321511 
   48600    243.47071   -213.65725    181563.75   -13260.997    1001.5211   -14262.518   -188.38515    282.35642    78.761477    25.205459    16.318748 
   48800    234.92166   -428.27961    181563.75   -13278.858    966.35443   -14245.213   -952.87463    282.57983    78.760319    25.207153    16.308637 
   49000    237.55784   -379.17751    181563.75   -13254.232    977.19841   -14231.431   -809.08275    283.57533    78.760205     25.20888     16.30105 
   49200    245.75458   -411.90789    181563.75   -13260.366    1010.9159   -14271.281   -914.34425    283.39675     78.76232    25.205016    16.313256 
   49400    239.94595    -348.9872    181563.75    -13288.48    987.02194   -14275.502   -641.37128    285.88753    78.768967    25.204308    16.314028 
   49600    235.77116   -425.72947    181563.75    -13299.93    969.84888   -14269.779   -881.87115    286.30546    78.769288    25.202355    16.305229 
   49800    233.80102   -344.46009    181563.75   -13326.456    961.74469     -14288.2   -618.56797    286.51491    78.768081    25.199895    16.323118 
   50000    231.46105   -496.73943    181563.75   -13341.596    952.11917   -14293.715   -1199.7256    287.57866    78.765694    25.197874    16.343258 
   50200    243.81935   -278.35255    181563.75   -13264.938    1002.9553   -14267.893   -399.58187    288.15877    78.764384    25.196977    16.339863 
   50400    242.24702    -449.3553    181563.75   -13270.035    996.48744   -14266.523   -1018.3162    287.57227    78.763062     25.19419    16.346789 
   50600    229.90468   -342.13213    181563.75   -13350.446    945.71703   -14296.164   -611.49036    288.87901    78.765197    25.196096    16.360032 
   50800    231.01611   -209.81605    181563.75   -13342.632    950.28891   -14292.921   -172.41262    289.17751    78.767921    25.197943    16.362132 
   51000     244.0647   -311.05728    181563.75   -13238.715    1003.9645    -14242.68   -539.60309    292.00945    78.770387    25.198672    16.366804 
   51200    240.71312   -235.11593    181563.75   -13328.932    990.17773    -14319.11    -291.2896    291.55666    78.774432    25.200871    16.339582 
   51400    235.95271   -439.21293    181563.75   -13311.562    970.59569   -14282.158   -1061.2715    294.11896    78.775357    25.207224    16.346638 
   51600    238.21051   -414.53328    181563.75   -13307.979    979.88319   -14287.862    -928.0321    294.16795    78.775994    25.214502    16.372059 
   51800    244.06591   -407.02991    181563.75   -13305.981    1003.9695    -14309.95   -921.21681     295.6413     78.77784    25.216095    16.381681 
   52000    240.38192   -338.29439    181563.75   -13310.816    988.81531   -14299.631   -615.97485    297.13587    78.774539    25.218917    16.373175 
   52200    237.12425    -422.7961    181563.75   -13315.988    975.41485   -14291.402   -896.86068    298.49572    78.774363    25.222513    16.375646 
   52400    242.79307   -308.47577    181563.75   -13315.191    998.73364   -14313.924   -500.77917    297.95849     78.77581    25.227979    16.372938 
   52600    242.78472   -364.79523    181563.75   -13320.011    998.69928    -14318.71   -732.15488    299.76025    78.775788    25.233055    16.355095 
   52800    230.18526   -442.23691    181563.75   -13414.639    946.87116    -14361.51   -973.35464    299.78157    78.776605    25.235386    16.392949 
   53000    235.22714   -431.31291    181563.75   -13401.985    967.61105   -14369.596   -977.68829    298.97124     78.77504    25.232876    16.394641 
   53200    234.04943   -411.49197    181563.75   -13355.023    962.76652    -14317.79    -882.0354    302.00752    78.780239    25.230201    16.421569 
   53400    235.37631   -346.75589    181563.75   -13336.074    968.22465   -14304.299   -665.07911     304.0009     78.77997    25.231765    16.428358 
   53600    239.64343   -426.91277    181563.75    -13314.25    985.77753   -14300.028   -929.82141     304.6139    78.779474    25.233699    16.451678 
   53800    245.81909   -347.62901    181563.75   -13310.042    1011.1812   -14321.223   -667.98971    304.30659    78.779457    25.237996    16.458379 
   54000    239.02591    -389.5447    181563.75   -13271.274    983.23737   -14254.511   -811.82614    305.18643    78.782161    25.243324      16.4514 
   54200    230.40228   -167.38719    181563.75   -13348.937     947.7639   -14296.701   -51.533323    304.12382    78.784323    25.248742    16.424162 
   54400    239.06655   -311.22948    181563.75   -13321.307    983.40453   -14304.712   -564.18833    305.70139    78.785076    25.250886    16.405692 
   54600    244.54727   -508.97472    181563.75   -13307.396    1005.9496   -14313.345   -1262.9655    308.21986    78.786604    25.247237     16.38819 
   54800    244.92475   -148.40426    181563.75   -13262.215    1007.5023   -14269.718     7.455265    307.14272    78.787176    25.251191    16.403412 
   55000    243.65073   -343.18061    181563.75   -13303.496    1002.2616   -14305.757   -700.35573    307.11547    78.789008    25.252601    16.411976 
   55200    242.99396   -531.20973    181563.75   -13288.184    999.56001   -14287.744   -1293.7114    308.50922    78.793955    25.254107    16.418551 
   55400    250.43558    -124.9649    181563.75   -13272.921    1030.1712   -14303.092    175.23264    308.56518    78.793893    25.255626    16.427099 
   55600    240.09737   -355.85599    181563.75   -13293.936    987.64482   -14281.581   -703.52874    308.70143    78.793654     25.25708     16.42455 
   55800    233.90304   -540.70634    181563.75   -13337.884    962.16435   -14300.048   -1375.7533    309.51461    78.796835    25.261178     16.41968 
   56000    237.30792   -413.49382    181563.75   -13379.422    976.17036   -14355.592   -915.15898    310.82625    78.799483    25.255173    16.406828 
   56200    244.54809   -387.84121    181563.75   -13305.753    1005.9529   -14311.706   -791.79365    310.52098    78.802594    25.255654    16.419413 
   56400    234.08992   -488.64133    181563.75   -13312.158    962.93308   -14275.091   -1144.2686     313.2264    78.804837    25.253597    16.412612 
   56600    238.92432    -426.8814    181563.75   -13371.002    982.81947   -14353.822   -936.83542    313.65468    78.805256    25.253364    16.442505 
   56800    236.56271    -356.1088    181563.75   -13402.563    973.10492   -14375.668    -641.7712    313.85321    78.802469    25.255797    16.446485 
   57000    230.78899   -270.94553    181563.75   -13371.199    949.35462   -14320.554   -369.34502    314.52804    78.804638    25.253592    16.419157 
   57200    238.41943   -299.91532    181563.75   -13377.601     980.7426   -14358.343    -518.0682    315.65157    78.805573    25.249864     16.45085 
   57400    240.26932   -350.03444    181563.75   -13336.726    988.35214   -14325.078   -703.29257    316.81045    78.804618    25.248759    16.483729 
   57600    250.74014   -386.37912    181563.75   -13266.902     1031.424   -14298.326   -818.09231    319.76636     78.80385    25.250305    16.479923 
   57800     239.8587   -262.30566    181563.75   -13301.378    986.66304   -14288.041   -353.78915    320.01066    78.802348    25.250473    16.460976 
   58000    236.19194   -303.96493    181563.75   -13275.296    971.57977   -14246.876   -503.35916    324.16023    78.804683    25.247633    16.451766 
   58200     231.5106   -448.50907    181563.75   -13301.569      952.323   -14253.892   -1062.1407    325.47797    78.807557    25.245669    16.419798 
   58400    235.51108   -371.43385    181563.75   -13296.252    968.77903   -14265.031   -813.13573    324.98128    78.807457     25.24783    16.406273 
   58600    241.52279   -334.03958    181563.75   -13271.883    993.50832   -14265.391   -637.83763    325.92035     78.80814    25.243523    16.425271 
   58800    247.78376   -393.49436    181563.75   -13301.951    1019.2629   -14321.214   -818.50523    326.32428    78.804732    25.243866    16.406498 
   59000    246.94241   -322.12608    181563.75   -13313.372     1015.802   -14329.174   -641.72276    326.45995     78.80717    25.247299    16.410832 
   59200    241.37585    -308.8316    181563.75    -13321.24    992.90387   -14314.144    -534.5805    327.41487    78.805514    25.244593    16.381105 
   59400    240.63226   -232.81029    181563.75   -13336.905    989.84509    -14326.75   -292.13412    328.89021    78.804001    25.241776    16.366415 
   59600    239.35653    -294.4168    181563.75   -13298.205    984.59738   -14282.802   -455.77924    330.89502    78.804806    25.239426    16.371046 
   59800    239.77228   -361.28109    181563.75   -13299.442    986.30754    -14285.75   -675.42819    333.43947    78.804301    25.240739    16.397655 
   60000    238.96055   -289.05271    181563.75   -13325.154    982.96848   -14308.123   -482.46271      335.317    78.804319    25.244944    16.374562 
   60200    246.15261   -375.33234    181563.75   -13269.535    1012.5532   -14282.088   -763.28631    338.59789    78.805629    25.245549    16.362557 
   60400    229.99284   -292.58756    181563.75    -13318.77    946.07967    -14264.85   -460.37972    338.92751    78.801897    25.248844    16.366481 
   60600    245.43318   -354.33049    181563.75   -13289.638    1009.5938   -14299.232    -691.8696    339.69913    78.802283      25.2477    16.385579 
   60800    231.19847   -460.00317    181563.75    -13311.66    951.03903   -14262.699   -1086.3562    338.55418    78.802013    25.247817    16.364789 
   61000     238.3198   -278.30831    181563.75   -13365.888    980.33276   -14346.221   -417.55135    340.51897    78.808275    25.249003    16.355216 
   61200    239.21679   -306.05149    181563.75   -13348.749    984.02253   -14332.772   -492.51904    342.53156    78.812117    25.250337    16.337894 
   61400    236.82377   -457.18547    181563.75   -13365.579    974.17883   -14339.758   -1099.9937    345.36403    78.814133    25.253685    16.319316 
   61600    233.41875   -384.45478    181563.75   -13381.706     960.1722   -14341.878   -821.80984    342.94318    78.812154    25.259541    16.337119 
   61800    245.48926   -344.61416    181563.75   -13337.778    1009.8245   -14347.602   -671.66549    346.53526    78.808475    25.261328    16.352746 
   62000    237.09693   -346.13769    181563.75   -13358.346    975.30245   -14333.648   -674.29098     345.3267    78.806893    25.253508    16.362563 
   62200    246.67585   -309.92975    181563.75   -13284.406    1014.7055   -14299.112   -522.51961    344.70994    78.804458    25.250822    16.384089 
   62400    251.80454   -402.03718    181563.75   -13249.618    1035.8025   -14285.421   -854.38026    343.73213    78.804911    25.252066    16.369412 
   62600    233.30114   -416.89824    181563.75   -13330.302    959.68839    -14289.99    -971.1024    347.10407    78.804567    25.254348    16.378366 
   62800    238.18636   -303.36758    181563.75    -13303.21    979.78386   -14282.994   -503.49538     347.5298    78.803641    25.257123    16.373936 
   63000     237.9538   -476.81479    181563.75   -13261.449    978.82723   -14240.276   -1151.4027    348.99974    78.805933    25.255652    16.352692 
   63200    233.87899   -331.77797    181563.75    -13327.08     962.0654   -14289.146   -635.72725    351.55667    78.807741    25.254303    16.355815 
   63400    247.56153   -269.78306    181563.75    -13286.66    1018.3488   -14305.009   -411.28697    352.16785    78.808076    25.250073    16.349071 
   63600    254.13331   -396.65993    181563.75   -13258.069    1045.3819   -14303.451   -821.38853    355.73459    78.810331    25.248178    16.347268 
   63800    237.13822   -282.72683    181563.75    -13273.59    975.47231   -14249.062   -470.54336    356.74359    78.805835      25.2521    16.371295 
   64000    241.90502   -322.67916    181563.75   -13280.331    995.08063   -14275.411   -571.93611    359.23506    78.807023    25.255045    16.355294 
   64200    234.36546   -309.21566    181563.75   -13255.221    964.06652   -14219.288   -546.57278    359.18152    78.807267    25.250953    16.353219 
   64400    251.88173   -409.95873    181563.75     -13255.6      1036.12    -14291.72   -907.81484    361.73697      78.8071      25.2485    16.327117 
   64600    241.79348   -298.53724    181563.75     -13278.2     994.6218   -14272.821   -497.70111    363.56209    78.808272    25.246209    16.325719 
   64800    236.57088   -379.11315    181563.75    -13239.01    973.13854   -14212.148   -790.90628    366.62621    78.812223    25.245557     16.31243 
   65000    227.46058   -348.79688    181563.75   -13316.369    935.66317   -14252.032   -680.29134    366.71414    78.812295    25.248015    16.281307 
   65200    231.69947   -380.17833    181563.75   -13296.596    953.09991   -14249.696   -768.81669    369.78261    78.812995    25.250621    16.290696 
   65400    255.22067    -296.5136    181563.75    -13168.29    1049.8548   -14218.145    -518.9412    369.13182    78.817595    25.251605    16.298187 
   65600    239.66175   -513.43315    181563.75    -13257.06     985.8529   -14242.913   -1252.5076    371.02593     78.81839    25.250707    16.305232 
   65800    251.91494   -365.28598    181563.75   -13245.978    1036.2566   -14282.235   -743.95727    372.40487    78.817594    25.251468    16.323817 
   66000    241.67462   -364.39063    181563.75   -13310.013    994.13286   -14304.146   -760.72344    374.16541    78.822557    25.249453    16.339702 
   66200    243.74888   -276.06239    181563.75   -13291.677    1002.6654   -14294.342   -382.27703     373.5116    78.821333    25.246075    16.361811 
   66400    234.38112   -560.57549    181563.75   -13364.461    964.13092   -14328.592   -1447.2577    376.05793    78.822848    25.247067    16.373697 
   66600    234.13556    -344.5966    181563.75   -13317.319     963.1208    -14280.44   -651.40674    378.16366    78.825701    25.249191     16.40354 
   66800    238.83917   -405.38771    181563.75   -13334.617     982.4692   -14317.086    -868.2882    377.31906    78.827576    25.246634    16.424413 
   67000    229.21784   -330.68936    181563.75   -13349.808    942.89168     -14292.7   -621.85436    376.79578    78.828932    25.244679    16.413632 
   67200    230.10384   -241.07507    181563.75   -13328.629    946.53626   -14275.165   -288.78856    376.88308    78.828704    25.248994    16.406792 
   67400    247.72894   -547.47567    181563.75   -13294.172    1019.0374    -14313.21   -1412.6929    377.48349    78.824224    25.256433    16.397077 
   67600    235.14152   -324.64821    181563.75   -13322.763    967.25886   -14290.022   -579.25013    379.99551    78.823683    25.258499    16.407928 
   67800     234.6679   -249.71668    181563.75   -13287.783     965.3106   -14253.094    -296.6196    382.14207    78.825382    25.257571     16.38171 
   68000    242.45787   -254.68705    181563.75   -13269.791    997.35478   -14267.146   -341.03763    383.37653    78.824131    25.257467     16.36089 
   68200    244.63246   -372.49302    181563.75   -13245.575       1006.3   -14251.875   -774.57037    383.54494    78.826672    25.259362    16.381623 
   68400    243.61814   -451.88382    181563.75   -13215.841    1002.1276   -14217.969   -1028.4732    383.14812    78.825562    25.257391    16.375927 
   68600    229.63638   -317.01212    181563.75   -13281.681    944.61337   -14226.295   -601.91344    384.03146    78.826937    25.256426    16.353134 
   68800    247.08747   -305.19568    181563.75   -13229.005    1016.3987   -14245.403   -545.33187    382.98817    78.829477    25.257119     16.32984 
   69000      238.329   -250.23416    181563.75   -13213.014     980.3706   -14193.385   -350.51809    383.25109    78.830097    25.255757    16.334572 
   69200    234.55074    -310.5037    181563.75   -13222.347    964.82866   -14187.176   -557.56029    385.86335    78.830674    25.252531    16.344808 
   69400    236.43666   -298.91853    181563.75   -13286.063    972.58642   -14258.649   -496.83336    387.91839    78.831887    25.249293    16.344911 
   69600    239.97462   -393.78003    181563.75   -13239.097    987.13987   -14226.237   -828.10599    390.12625    78.831262    25.246916    16.351983 
   69800    245.97691   -348.59438    181563.75   -13211.454    1011.8304   -14223.284   -669.37742    394.19918    78.834964    25.246525    16.358359 
   70000    245.14381   -317.18567    181563.75   -13264.721    1008.4034   -14273.125   -592.69561    391.06518    78.834254    25.243242    16.355261 
   70200    235.14059   -402.12392    181563.75   -13253.868    967.25503   -14221.123   -914.56981    392.42321    78.834881    25.243743    16.359191 
   70400    238.93188   -364.57057    181563.75   -13220.501    982.85057   -14203.352   -757.64962     395.4729     78.83706    25.251438    16.359333 
   70600    241.75259   -350.27818    181563.75    -13218.64    994.45358   -14213.094   -686.76295    395.71218    78.836242    25.252946    16.363647 
   70800     234.2192   -349.46792    181563.75   -13245.346    963.46487   -14208.811   -690.99141    397.38182    78.834707    25.257849    16.366769 
   71000    245.13972   -360.45788    181563.75   -13219.943    1008.3866   -14228.329   -718.61256    399.31893    78.835401    25.260154    16.354326 
   71200    244.82479   -231.00332    181563.75   -13134.875    1007.0911   -14141.966   -286.76166    401.32419    78.836066     25.26065     16.36818 
   71400    241.54559   -339.37739    181563.75   -13262.774    993.60212   -14256.376   -667.04752    401.10779    78.836083    25.263848    16.366407 
   71600    239.01963   -451.78853    181563.75   -13276.882    983.21151   -14260.094   -1049.7515    402.43294    78.840136     25.26717    16.323743 
   71800    233.15442   -331.48792    181563.75   -13297.434    959.08487   -14256.519   -640.00825    402.84375    78.842641    25.268348    16.333948 
   72000    243.06928   -463.93675    181563.75   -13259.084    999.86984   -14258.953   -1073.9967    406.89859    78.841003    25.272469    16.319166 
   72200    236.15369   -292.58734    181563.75   -13285.437    971.42241   -14256.859   -515.38578    408.49123    78.841734    25.276943    16.302508 
   72400    236.73988   -367.54147    181563.75   -13274.354    973.83372   -14248.187   -761.20922    412.74375    78.841267    25.274329    16.284692 
   72600    239.32851   -320.35579    181563.75   -13294.722    984.48211   -14279.205   -616.21445    412.07783    78.842101    25.274216    16.297576 
   72800    236.26479   -372.58567    181563.75    -13352.08    971.87946   -14323.959   -794.97037    412.58121    78.843235    25.273548    16.286793 
   73000    239.31525   -329.71483    181563.75   -13321.549    984.42755   -14305.977   -634.08991    415.54681    78.840597    25.273066    16.308717 
   73200    241.23908   -483.84852    181563.75   -13277.024    992.34129   -14269.365   -1190.3685    417.58635    78.841345    25.276163    16.323637 
   73400    240.26575   -324.08811    181563.75   -13299.823    988.33747    -14288.16   -588.75138    415.41173    78.839565     25.27719    16.340724 
   73600    241.89643   -343.49223    181563.75   -13276.963    995.04531   -14272.009   -620.85116    419.53176    78.836224    25.274015    16.366904 
   73800    241.48087   -551.91046    181563.75   -13209.536    993.33587   -14202.872   -1420.4535    420.19682    78.835912    25.272505    16.355422 
   74000    239.00461     -270.068    181563.75    -13222.83    983.14973    -14205.98   -403.61411    422.32737    78.837985    25.268407    16.358943 
   74200    247.86399   -408.66963    181563.75   -13229.717     1019.593    -14249.31   -884.11421    425.34721    78.834442    25.267161    16.332188 
   74400    239.11054   -236.23778    181563.75   -13281.578    983.58547   -14265.164    -236.1376    432.66116     78.83442    25.265217    16.346954 
   74600    231.90714   -492.73291    181563.75   -13308.487    953.95418   -14262.441    -1188.809    434.84072    78.833648    25.263717    16.337079 
   74800    245.03929   -280.73725    181563.75   -13297.326    1007.9735   -14305.299    -447.3285    434.38248    78.834881    25.261215    16.353945 
   75000    243.28394   -244.29223    181563.75   -13313.379    1000.7528   -14314.132    -333.5948    433.63143    78.836971    25.259463    16.342869 
   75200    237.06478   -423.74306    181563.75   -13333.331     975.1702   -14308.501    -920.4131     434.3065    78.834797    25.258346     16.35611 
   75400    242.18203    -497.0255    181563.75   -13280.968    996.22013   -14277.188   -1175.5075    437.30814    78.838347    25.254476    16.330398 
   75600    238.38724   -496.58573    181563.75   -13335.711    980.61016   -14316.321   -1220.6509    435.56944    78.839517    25.258647    16.331461 
   75800    237.33699   -266.25815    181563.75   -13335.349    976.28995   -14311.639   -394.19061    435.22071    78.838465    25.257928    16.340931 
   76000     243.1147   -291.57408    181563.75   -13330.847    1000.0566   -14330.904    -433.6874     437.1297     78.83739    25.252912    16.357074 
   76200    237.59279   -380.41005    181563.75    -13372.42     977.3422   -14349.763   -775.91637    435.84358    78.837513    25.256496    16.333688 
   76400    232.57459   -337.39655    181563.75   -13387.987    956.69972   -14344.687   -622.77579    435.10759    78.836311    25.254955    16.366977 
   76600    243.24503   -398.69014    181563.75   -13337.408    1000.5928       -14338   -881.48474    434.62486    78.836576    25.253302    16.369864 
   76800     243.0815   -398.88244    181563.75   -13289.138    999.92008   -14289.058   -811.17896    437.54437    78.836067    25.254159    16.356773 
   77000    237.94058    -358.2923    181563.75   -13328.422    978.77283   -14307.195   -725.39401    439.06421     78.83704     25.25374    16.384367 
   77200    238.02661   -514.55214    181563.75   -13300.271    979.12672   -14279.398   -1291.9648    440.06456    78.839003    25.258398     16.39939 
   77400    246.07445   -378.46176    181563.75   -13283.799    1012.2316    -14296.03   -796.51635     437.2067    78.833667    25.262453    16.388537 
   77600    238.60339   -262.04637    181563.75   -13297.862    981.49933   -14279.362   -386.42708    438.05324    78.832333    25.260129    16.386294 
   77800     244.7751   -332.49338    181563.75   -13308.416    1006.8868   -14315.303   -613.34947    437.65375    78.832415    25.261419    16.376553 
   78000    238.02372   -296.34294    181563.75   -13372.104    979.11484   -14351.219   -495.49111    440.77129    78.833475    25.260258    16.346443 
   78200    236.27959   -389.20842    181563.75   -13313.661     971.9403   -14285.602    -833.2402    439.63771    78.835599    25.260993    16.367492 
   78400    243.63585   -360.70062    181563.75   -13312.618    1002.2004   -14314.819   -745.55095    438.94381    78.833942    25.258348    16.374357 
   78600    228.96301   -316.02728    181563.75   -13353.906    941.84344    -14295.75   -527.82769    438.94661    78.834436     25.25468    16.369112 
   78800    236.43189   -533.56975    181563.75   -13351.096     972.5668   -14323.663   -1313.3669    442.47449    78.834588    25.249199    16.372092 
   79000    238.46148   -373.42639    181563.75   -13338.966    980.91556   -14319.882   -735.78184    443.25762    78.834467    25.251613    16.377224 
   79200    233.65267   -270.29479    181563.75   -13292.257    961.13445   -14253.391   -366.24246    445.98935    78.834411    25.251484    16.324663 
   79400    236.42555   -223.04965    181563.75   -13359.135    972.54074   -14331.676   -204.43538     448.1465    78.829368    25.249455    16.352102 
   79600     239.6002   -299.48246    181563.75   -13339.414     985.5997   -14325.014   -496.01279    449.25606    78.829244    25.246006    16.327151 
   79800    240.69455   -364.59511    181563.75   -13321.468    990.10135   -14311.569   -754.26694    450.28929    78.830196    25.238643    16.340027 
   80000    238.25946   -310.15778    181563.75    -13328.84    980.08454   -14308.925   -542.63283    449.40749    78.829397    25.237449    16.339089 
   80200    234.67339   -457.94463    181563.75   -13275.599    965.33318   -14240.932   -1050.4442    451.58947    78.830854    25.236064    16.329382 
   80400    242.14861   -368.58435    181563.75   -13304.691    996.08262   -14300.774   -708.04939    453.79079    78.837884    25.235243    16.326038 
   80600    247.04721   -367.90736    181563.75    -13230.41    1016.2331   -14246.643    -768.5109    453.57936    78.841102    25.231146    16.346084 
   80800    239.95971   -454.16411    181563.75   -13307.118    987.07854   -14294.197   -1086.1855    456.13533    78.843406    25.227827    16.339494 
   81000    247.02739   -619.38224    181563.75   -13207.511    1016.1516   -14223.662   -1635.4214    457.39659     78.84233    25.226581    16.313393 
   81200    242.12173   -306.08262    181563.75    -13274.54    995.97207   -14270.512   -541.02971     455.1284    78.844642    25.228306    16.321174 
   81400    232.91967   -344.62947    181563.75   -13305.619    958.11921   -14263.738    -675.6319      456.545    78.846058     25.23161    16.337501 
   81600    240.79638    -388.6912    181563.75   -13262.021    990.52023   -14252.542   -799.43717    456.75052    78.843892    25.238521    16.344468 
   81800    234.54428    -339.3658    181563.75   -13249.437    964.80208    -14214.24   -652.77253    458.77601    78.845118    25.239876    16.369292 
   82000     250.0041   -365.16308    181563.75    -13236.67    1028.3963   -14265.067   -751.54463    459.28297    78.843572    25.239478    16.367404 
   82200    244.49296   -268.84174    181563.75   -13292.523    1005.7262   -14298.249    -389.0731    459.38389    78.845806    25.237533    16.353971 
   82400    238.78945   -319.57049    181563.75   -13324.127    982.26467   -14306.391   -589.65632     459.2781    78.848737    25.237779    16.355185 
   82600    237.03616   -361.09903    181563.75   -13318.432    975.05248   -14293.484    -693.6085    462.47495    78.847788    25.238921    16.358624 
   82800    234.50946    -455.7061    181563.75   -13316.424    964.65884   -14281.083   -1027.5825    464.83241    78.855465    25.241727    16.333996 
   83000    231.51065   -525.72344    181563.75   -13295.856    952.32319   -14248.179   -1297.2709    465.91588    78.857676    25.242138    16.340699 
   83200     238.9812   -395.11926    181563.75   -13290.505    983.05344   -14273.558   -862.32836    468.80669    78.859617    25.241802    16.330105 
   83400    239.74428    -430.0542    181563.75   -13279.795    986.19238   -14265.987   -1008.5153    467.86476    78.861294    25.246147    16.340237 
   83600    236.92757   -351.80402    181563.75   -13250.002    974.60581   -14224.608   -708.60313    468.79897    78.860522    25.250561    16.337337 
   83800    234.83363   -483.91042    181563.75   -13318.058    965.99235    -14284.05   -1172.6577    469.56941    78.864374    25.248595    16.313774 
   84000    236.43442   -269.43565    181563.75   -13312.819    972.57719   -14285.396    -443.6923    467.55744    78.861159    25.246549    16.327111 
   84200    232.07087   -491.73638    181563.75   -13303.233    954.62766   -14257.861   -1210.1497    467.88616    78.858925    25.244495    16.339885 
   84400    239.35227   -284.43148    181563.75   -13282.806    984.57984   -14267.385   -506.72189    467.54038     78.86195    25.245028     16.33913 
   84600    244.27739   -442.32796    181563.75   -13253.464    1004.8394   -14258.304    -992.8746    470.26701    78.862817    25.242289    16.333253 
   84800    233.93388   -321.42806    181563.75   -13293.686     962.2912   -14255.977   -621.82455    470.32423    78.863689    25.239892    16.332394 
   85000    238.15749   -549.90042    181563.75   -13299.212    979.66509   -14278.877   -1401.6681     475.0086    78.861388    25.237201     16.32686 
   85200     243.6592   -309.59639    181563.75   -13192.503    1002.2965   -14194.799   -548.70151    473.33819    78.859715    25.240739    16.361988 
   85400    233.55499    -461.9998    181563.75   -13240.164    960.73264   -14200.897   -1060.6742    476.99281    78.856477    25.241213    16.359606 
   85600    239.55155   -348.82291    181563.75   -13255.368    985.39959   -14240.767   -645.60505    478.05398    78.860795    25.247939    16.335041 
   85800    241.24107   -589.02921    181563.75   -13214.607    992.34945   -14206.957   -1587.4656    478.49552    78.862166     25.24826    16.337062 
   86000    244.80445   -431.11805    181563.75   -13206.674    1007.0075   -14213.682    -1018.415    478.66192    78.863538     25.24906    16.365395 
   86200     246.2175   -250.51683    181563.75    -13274.01    1012.8201    -14286.83   -302.62493    477.38979      78.8662    25.248168    16.377695 
   86400    229.72089   -301.55324    181563.75   -13292.504    944.96099   -14237.465   -480.85407    480.58637    78.868638    25.250593    16.403621 
   86600    240.94757   -291.61445    181563.75   -13280.214    991.14215   -14271.356   -481.71548    480.42304    78.867568    25.253666    16.436663 
   86800    237.01011   -391.29706    181563.75   -13326.764    974.94531   -14301.709   -873.36729    481.07292    78.866611    25.256413      16.4177 
   87000    230.59647   -244.71116    181563.75   -13337.462    948.56271   -14286.024   -296.15316    480.65439    78.866159    25.256169    16.414136 
   87200    242.59529   -374.89816    181563.75   -13315.099    997.92005   -14313.019   -759.82447    483.46051    78.869767    25.255345     16.43584 
   87400    244.57369   -187.46295    181563.75   -13305.212    1006.0583   -14311.271   -83.484852    482.43754     78.86859    25.255225    16.440374 
   87600    248.55106   -404.50755    181563.75   -13294.686    1022.4192   -14317.106   -885.47187    485.60623    78.871417     25.25275    16.432441 
   87800    235.96477   -137.31951    181563.75   -13327.227     970.6453   -14297.872    38.033639     486.4937    78.869478    25.249946    16.424611 
   88000     240.5905   -371.08573    181563.75   -13247.963    989.67333   -14237.636   -779.33702    486.16613    78.868448    25.249041     16.42918 
   88200    236.37089   -322.10505    181563.75   -13205.098    972.31588   -14177.414   -591.59626    482.99157    78.870366    25.245049    16.426615 
   88400    238.93926   -450.84606    181563.75   -13237.191     982.8809   -14220.072   -1058.2973    484.67253    78.872528    25.242772    16.408599 
   88600     238.7793   -423.20625    181563.75   -13289.521     982.2229   -14271.744   -959.94033    485.57893     78.87343    25.244422    16.417481 
   88800    234.77006     -422.704    181563.75   -13322.657    965.73084   -14288.388   -969.13719    487.81619    78.873364    25.242907    16.426914 
   89000    235.04971   -346.34026    181563.75   -13353.261    966.88119   -14320.142    -690.0537    485.64872    78.870129    25.242025    16.412147 
   89200    232.48949   -384.66802    181563.75   -13351.821    956.34966   -14308.171   -784.24156    488.93192    78.866887    25.234669    16.411168 
   89400    237.08306   -242.18157    181563.75   -13269.922     975.2454   -14245.167   -296.73136    488.80056    78.866963    25.229628    16.395141 
   89600    236.70685   -327.02698    181563.75   -13315.828    973.69787   -14289.526   -537.58846    487.95383    78.868022    25.226223    16.395216 
   89800    241.18703   -374.75805    181563.75   -13252.648    992.12714   -14244.775   -798.54612    487.96589    78.866533    25.227729    16.426277 
   90000    244.22734   -340.47633    181563.75   -13222.603    1004.6335   -14227.236   -640.10603    488.46121    78.863272    25.230508    16.422805 
   90200    233.87093    -319.5461    181563.75   -13302.508    962.03224    -14264.54   -554.11263    491.02533    78.862734    25.230633     16.42018 
   90400     236.3631   -344.71694    181563.75   -13352.407    972.28383   -14324.691     -697.721    487.02507    78.862794    25.228923    16.410022 
   90600     239.3395   -404.96116    181563.75   -13269.691    984.52731   -14254.219   -910.59556    483.78794    78.860589    25.230104    16.364988 
   90800    238.31841   -435.98739    181563.75   -13266.395    980.32704   -14246.722   -990.00718    486.96682    78.857007    25.230814    16.346621 
   91000    231.73498   -457.50581    181563.75   -13291.934    953.24599    -14245.18   -1093.9271    489.46642    78.853928    25.230794    16.327294 
   91200    243.96991   -452.02217    181563.75    -13310.86    1003.5746   -14314.435   -1075.1414    489.78117      78.8509     25.23137    16.330342 
   91400    235.60358   -367.49072    181563.75   -13366.561    969.15954   -14335.721   -713.93317    492.20655    78.851564    25.229732    16.315939 
   91600    242.21867   -169.99706    181563.75   -13274.512    996.37082   -14270.883   -30.034529    491.25643    78.851901    25.226967    16.341116 
   91800    241.91699   -312.13305    181563.75   -13308.744    995.12988   -14303.874    -549.0557    490.37646    78.854876    25.222677     16.31239 
   92000    241.86303   -360.20384    181563.75   -13295.267     994.9079   -14290.175   -730.62327    493.72745    78.853937    25.227378    16.309284 
   92200    242.97063   -380.61947    181563.75    -13306.69    999.46402   -14306.154   -772.35149    496.70643    78.851482    25.229054    16.308076 
   92400    250.17481   -248.61636    181563.75   -13231.801    1029.0986     -14260.9   -376.97833    496.32422    78.849149    25.233983    16.327477 
   92600    233.08235   -361.56981    181563.75   -13282.917    958.78841   -14241.706   -721.96396    495.12854    78.854465     25.23392    16.351919 
   92800    236.93869   -226.58887    181563.75    -13315.22    974.65155   -14289.872   -213.87153    496.65481    78.854511    25.231745    16.342596 
   93000    230.76543   -337.22828    181563.75   -13333.575    949.25771   -14282.832   -593.01239    500.94589    78.852639    25.233734    16.377801 
   93200    235.37563   -223.81023    181563.75   -13318.896    968.22187   -14287.117   -204.00047    503.60051    78.853298    25.234424    16.368481 
   93400    236.37052   -115.09862    181563.75   -13316.806    972.31434    -14289.12    159.24483    501.25186    78.852962    25.235445    16.389277 
   93600    243.08353   -269.38046    181563.75   -13303.535    999.92844   -14303.463   -400.57072     503.7799    78.849994    25.232428    16.386193 
   93800    240.93427   -414.31725    181563.75   -13239.059    991.08741   -14230.146   -883.84904    501.79878    78.849808    25.230727    16.386764 
   94000    234.08281    -405.4102    181563.75   -13320.092    962.90382   -14282.996   -895.88445     505.9445    78.848868    25.231341    16.352687 
   94200    243.65187   -296.50673    181563.75   -13247.606    1002.2663   -14249.873   -530.38771    506.35971    78.849937     25.22878    16.325117 
   94400    247.02287   -347.59686    181563.75   -13228.774     1016.133   -14244.907   -674.43154    506.57543    78.851142     25.22696    16.321731 
   94600    234.87916   -318.60444    181563.75   -13243.422    966.17964   -14209.602   -550.89344    506.25554    78.851424    25.225932    16.318966 
   94800    240.89804   -230.94975    181563.75   -13203.098    990.93839   -14194.036   -244.50723    506.88177    78.851189    25.219921    16.308776 
   95000    234.45129   -283.53969    181563.75   -13273.592    964.41957   -14238.012   -407.89557    511.88883    78.851823    25.218346    16.316195 
   95200    237.83252   -196.64335    181563.75   -13270.613    978.32834   -14248.942     -138.194    512.13584    78.848574    25.211455    16.283992 
   95400     240.3353   -477.88196    181563.75   -13263.597    988.62355   -14252.221   -1119.0098    513.50895    78.842989    25.212411    16.279008 
   95600    245.22782   -178.79499    181563.75   -13269.286     1008.749   -14278.035   -62.157705     512.8455    78.843787    25.212461    16.291281 
   95800    239.23386    -266.6173    181563.75   -13270.776    984.09274   -14254.868   -398.95223    513.94437    78.844563    25.211047    16.349075 
   96000    238.19226   -422.44469    181563.75   -13295.143     979.8081   -14274.951   -939.49445    511.10957    78.846364    25.210687    16.337012 
   96200    236.13218   -376.08582    181563.75   -13332.086    971.33395    -14303.42   -778.85102    513.92531    78.846403    25.208584    16.345615 
   96400    244.97821   -343.42573    181563.75   -13293.211    1007.7223   -14300.934   -608.70753    516.37356    78.847157    25.199487    16.345139 
   96600    237.15316   -160.08949    181563.75   -13342.068    975.53376   -14317.602    5.4879425    514.00569    78.848722     25.19512    16.343013 
   96800    240.29185    -375.1692    181563.75   -13288.552    988.44484   -14276.997   -746.01144    516.33312    78.853478    25.191602    16.357874 
   97000    244.14709   -362.89276    181563.75   -13308.965    1004.3034   -14313.268   -716.15687    516.19955      78.8564    25.189055    16.344674 
   97200    240.58609   -92.753821    181563.75   -13273.558    989.65518   -14263.213    252.21005    517.76667    78.856503    25.188708    16.366767 
   97400    229.10536   -419.29592    181563.75   -13359.079      942.429   -14301.508   -958.91345     519.0245    78.859071    25.186013    16.391131 
   97600    240.04596   -226.17324    181563.75   -13319.131    987.43333   -14306.564   -280.92367    518.58229    78.859588    25.186322    16.434483 
   97800    237.38222   -296.12937    181563.75   -13323.398    976.47598   -14299.874   -479.85662    518.16641    78.858509    25.189115    16.376059 
   98000    235.13542   -385.43012    181563.75   -13368.136    967.23377    -14335.37   -831.03397    520.33476    78.856087    25.191707    16.366696 
   98200    236.66503   -340.09408    181563.75   -13330.688    973.52585   -14304.214   -650.36586    519.59939    78.855244    25.197275    16.363782 
   98400    244.63716     -220.227    181563.75   -13292.173    1006.3193   -14298.493   -221.63924    517.24728     78.85716    25.200003    16.377964 
   98600    246.51644   -285.33581    181563.75   -13286.204    1014.0498   -14300.253   -455.41508    516.06896    78.857917    25.196699    16.376962 
   98800    246.06272   -569.57326    181563.75   -13185.301    1012.1834   -14197.484   -1443.5016    520.48637    78.858446     25.19923    16.386714 
   99000    242.99113   -247.86899    181563.75   -13260.631    999.54836   -14260.179   -326.81177    520.65001    78.862134    25.196964    16.368924 
   99200    240.15031   -223.36095    181563.75   -13242.111     987.8626   -14229.974   -168.60114    520.71027    78.864168    25.195917    16.374993 
   99400    251.05363   -101.88053    181563.75   -13235.105    1032.7136   -14267.819     166.3152     518.8384    78.865397     25.19422    16.347878 
   99600    243.81298   -413.31439    181563.75   -13226.112     1002.929   -14229.041   -939.73256    520.62665    78.864701    25.196321    16.372946 
   99800    245.39736   -325.62289    181563.75   -13224.891    1009.4464   -14234.337    -651.9423    519.89575    78.866599     25.19876    16.394876 
  100000    241.12025   -344.50984    181563.75   -13272.998    991.85244    -14264.85   -687.93298    521.39166    78.866027    25.197305    16.384963 
  100200    241.02579   -346.30502    181563.75   -13221.549     991.4639   -14213.013   -690.70728    522.47761    78.869842     25.19987    16.378755 
  100400    240.22674   -323.12448    181563.75   -13271.976    988.17698   -14260.153   -544.25265    527.19909    78.870195    25.203456    16.419419 
  100600    238.59296   -391.38446    181563.75   -13317.347    981.45639   -14298.803   -812.98163    528.43247    78.872606    25.206661    16.422498 
  100800    238.13716   -322.44629    181563.75   -13253.289    979.58148    -14232.87   -639.17532    527.21918    78.873996    25.207799    16.416378 
[...]
 5175800     224.0769   -344.85047    181563.75   -14695.258    921.74432   -15617.003   -573.50178    6967.2932    77.210632    24.700959    16.323156 
 5176000    225.92381   -300.20273    181563.75   -14647.316    929.34162   -15576.658   -447.76652    6962.8745    77.211996    24.699978     16.32499 
 5176200    226.45857   -282.21325    181563.75   -14660.703    931.54139   -15592.244   -384.36017    6964.0717    77.213011    24.698445    16.316734 
 5176400    218.28398    -421.7861    181563.75     -14702.8    897.91503   -15600.715   -917.17305    6965.9713    77.213329    24.697682    16.320314 
 5176600    232.06402   -387.98752    181563.75    -14658.13    954.59949   -15612.729   -748.50371    6966.4789    77.215604    24.696516    16.323281 
 5176800    227.56266   -266.78941    181563.75   -14682.779    936.08305   -15618.862   -298.55271    6964.4949    77.217722      24.6958    16.316915 
 5177000    232.36224   -353.98114    181563.75   -14686.099    955.82623   -15641.925   -660.05001    6964.9756    77.218139    24.694432    16.320557 
 5177200    225.49223   -497.08925    181563.75   -14639.134    927.56634     -15566.7   -1147.7166    6967.2598    77.217977    24.694615    16.325194 
 5177400    225.48387   -292.34254    181563.75   -14665.604    927.53191   -15593.136   -405.66917    6961.2677    77.218065    24.693952    16.317826 
 5177600     232.0213   -251.11306    181563.75   -14671.565    954.42375   -15625.988   -262.46208    6963.7359    77.218193    24.694641    16.321554 
 5177800    222.96812   -469.19162    181563.75   -14686.787    917.18334   -15603.971   -1024.0324    6969.9592    77.220499    24.694368    16.321233 
 5178000    229.16014   -380.52891    181563.75   -14672.768    942.65434   -15615.422   -719.14098    6966.4212    77.221713    24.694394    16.322144 
 5178200    224.48951   -285.16427    181563.75   -14688.085    923.44161   -15611.527   -393.78484    6962.6187     77.22389    24.693932    16.326742 
 5178400    225.92192    -466.0889    181563.75    -14655.88    929.33386   -15585.214   -1045.5356    6964.6729    77.226298    24.694293    16.323203 
 5178600    222.49706   -401.47097    181563.75   -14648.248    915.24562   -15563.493   -803.81261    6965.9626    77.227395    24.695158    16.328205 
 5178800    230.97711    -241.6573    181563.75   -14631.853    950.12848   -15581.982   -205.83919    6964.8801    77.227474    24.695656    16.326537 
 5179000    227.09502   -315.04991    181563.75   -14622.634    934.15944   -15556.794   -529.49133    6965.1963    77.225129    24.694756    16.325695 
 5179200     224.6625   -451.83484    181563.75   -14664.268    924.15322   -15588.421   -955.70532     6967.775    77.226379    24.695203    16.329655 
 5179400    226.49122   -279.75076    181563.75   -14672.004     931.6757    -15603.68   -373.70985    6963.8556    77.227688    24.696171    16.332307 
 5179600    220.45017   -296.01634    181563.75   -14686.802    906.82572   -15593.628   -424.80769    6963.7523      77.2277    24.694542    16.329757 
 5179800    231.45508   -457.33537    181563.75   -14644.776     952.0946    -15596.87   -980.85325    6967.4545    77.227988    24.694964    16.331899 
 5180000    227.61861   -389.56963    181563.75   -14682.149    936.31324   -15618.462   -730.06449    6965.8724    77.229228    24.694411     16.32867 
 5180200    222.66142   -266.65991    181563.75   -14660.584    915.92173   -15576.505   -308.42258    6961.2085    77.229049    24.693394    16.326085 
 5180400    234.06966   -403.29531    181563.75   -14637.401    962.84972   -15600.251   -781.25206     6962.791    77.230412    24.691387    16.324732 
 5180600    222.79643   -455.55857    181563.75   -14698.048    916.47711   -15614.526   -1006.2223    6965.2518    77.230895    24.690124    16.326092 
 5180800    225.94679   -311.54971    181563.75   -14665.094    929.43615    -15594.53   -499.25252    6963.4169    77.230745    24.688951     16.33351 
 5181000    226.48656   -308.17777    181563.75   -14671.396    931.65653   -15603.053   -437.82725    6963.3398    77.231515    24.688093    16.341219 
 5181200    224.31795   -430.94407    181563.75   -14646.066    922.73591   -15568.802   -880.32681    6964.9078    77.230054    24.687417    16.335911 
 5181400    230.03015   -327.12246    181563.75   -14637.805    946.23313   -15584.039   -527.70926    6964.1658    77.230465    24.686109    16.336504 
 5181600    229.34245   -323.47839    181563.75   -14636.238    943.40425   -15579.643   -504.81649    6962.5944     77.22899    24.685905    16.337111 
 5181800    229.64055   -417.14293    181563.75   -14619.638    944.63052   -15564.269   -822.88353    6965.1489    77.229838    24.686637    16.332211 
 5182000    214.41742   -390.12681    181563.75   -14690.406    882.00991   -15572.416    -731.5938    6965.6282     77.22991    24.684795    16.330703 
 5182200     213.7961   -333.95097    181563.75   -14762.251    879.45409   -15641.705   -574.14197    6964.5884    77.229204    24.684627    16.334526 
 5182400    223.51586   -360.65131    181563.75   -14661.769    919.43647   -15581.206   -684.56118    6962.3545    77.229704     24.68578    16.331378 
 5182600    229.77554   -420.04004    181563.75   -14636.543    945.18578   -15581.729   -868.72478    6966.3305    77.229653    24.684607    16.334618 
 5182800    224.29939   -390.85093    181563.75   -14665.067    922.65955   -15587.726   -729.55587    6966.7752    77.230659    24.685922     16.33515 
 5183000    227.70968   -381.91709    181563.75   -14654.291    936.68785   -15590.979   -719.29317    6962.8122     77.23357    24.684764    16.330994 
 5183200    226.64213    -388.2498    181563.75   -14627.714    932.29644    -15560.01   -740.40157    6965.7888    77.234584    24.683998    16.331462 
 5183400    222.38303    -439.3807    181563.75   -14675.899    914.77658   -15590.676   -965.92719     6966.196    77.235256    24.685246    16.335735 
 5183600    225.96227   -389.17058    181563.75   -14656.125    929.49985   -15585.625   -756.40326    6964.0253    77.236384    24.685216    16.337403 
 5183800    219.18637   -358.12114    181563.75    -14695.97    901.62707   -15597.597   -617.53087    6964.6875    77.235859    24.686324    16.335256 
 5184000    233.49977   -377.02378    181563.75   -14677.104    960.50548   -15637.609   -699.55367    6963.6509    77.235428    24.685755    16.332101 
 5184200    223.15828   -373.73861    181563.75   -14659.038    917.96557   -15577.003   -707.77677     6964.198    77.235589     24.68602    16.331095 
 5184400    229.52864   -424.10507    181563.75   -14673.007    944.17015   -15617.178   -907.52108    6964.5749    77.234913    24.686278     16.33087 
 5184600    228.60873   -372.39568    181563.75   -14648.885    940.38611   -15589.271   -660.84164    6963.1898       77.234    24.687776    16.339318 
 5184800    232.22219   -286.93135    181563.75   -14608.888    955.25011   -15564.138   -368.23819    6963.1261    77.233694    24.689268    16.342187 
 5185000    231.98457   -327.47637    181563.75   -14598.141    954.27266   -15552.414   -534.45763    6965.1825    77.230844    24.691596    16.344559 
 5185200    227.06846   -329.18059    181563.75    -14644.68    934.05016   -15578.731   -548.56745    6964.4376    77.229168    24.692578    16.338355 
 5185400    226.37664   -244.80125    181563.75   -14659.781    931.20436   -15590.986   -243.23496    6962.3249     77.22954    24.695213    16.337331 
 5185600    219.94511   -250.48236    181563.75   -14711.595    904.74816   -15616.343   -224.79455    6963.7535      77.2273    24.697025    16.336686 
 5185800    221.80795   -436.43132    181563.75   -14653.223    912.41097   -15565.634   -921.23038    6966.1624    77.228857    24.697253    16.333425 
 5186000    230.64277   -360.51754    181563.75   -14621.371    948.75317   -15570.124   -675.90791    6964.5721     77.22939    24.697801    16.340079 
 5186200    232.02031    -304.5933    181563.75   -14598.622    954.41968   -15553.042   -478.53967    6963.3995    77.229085    24.699243    16.336577 
 5186400    222.26677   -316.51838    181563.75    -14665.81    914.29833   -15580.108   -468.75746     6962.839     77.22836    24.699776    16.333045 
 5186600    229.79554   -331.83407    181563.75   -14655.835    945.26807   -15601.103   -519.58971    6964.5918    77.225998    24.701968    16.335573 
 5186800    229.76341   -331.39028    181563.75   -14612.366     945.1359   -15557.502   -588.18148     6962.895     77.22675     24.70585    16.340771 
 5187000    225.03107   -292.06312    181563.75   -14655.711    925.66933   -15581.381   -397.08005    6963.7375    77.226367    24.707264    16.344477 
 5187200    227.86314   -398.34881    181563.75   -14643.129     937.3191   -15580.448   -748.08961    6965.0281    77.226222    24.707479    16.339972 
 5187400    223.00046   -367.24495    181563.75   -14696.712     917.3164   -15614.029   -694.92072    6964.6122     77.22543    24.710109    16.338386 
 5187600    226.35731   -373.07863    181563.75   -14674.967    931.12485   -15606.092    -710.6085    6961.6452    77.223811    24.713081    16.335485 
 5187800    227.32619   -375.90093    181563.75   -14647.158    935.11034   -15582.269   -696.32702    6964.0621    77.222144    24.714616    16.341667 
 5188000    223.43871    -413.5407    181563.75   -14675.052    919.11912   -15594.171   -816.04803    6963.3833    77.220282    24.715573    16.344637 
 5188200    230.24754   -373.85708    181563.75   -14650.291    947.12737   -15597.418   -711.27684    6962.4646    77.220333    24.717938    16.344678 
 5188400    227.99746   -369.05065    181563.75   -14667.899    937.87163    -15605.77   -718.06095    6962.4553    77.220524    24.717268    16.339287 
 5188600    221.76543   -382.99412    181563.75   -14685.321    912.23604   -15597.557   -715.13861    6962.0151     77.22009    24.718537    16.342325 
 5188800    231.81218   -345.85488    181563.75   -14639.423    953.56354   -15592.987   -595.22116    6962.2074    77.219731    24.719334    16.340898 
 5189000    219.92661    -410.9914    181563.75   -14653.105    904.67203   -15557.777   -822.75893    6963.6589    77.219459    24.719698    16.345713 
 5189200     216.7673   -429.85793    181563.75   -14636.735    891.67617   -15528.411   -952.61274    6962.4632    77.218999    24.719046    16.352189 
 5189400    225.05572   -338.85601    181563.75   -14662.904    925.77072   -15588.674   -551.82774    6962.7476    77.217728    24.721828    16.345895 
 5189600    220.64362   -288.39098    181563.75    -14680.02    907.62148   -15587.642   -403.44871    6963.1443    77.215815    24.723404    16.340029 
 5189800    220.16421    -313.0758    181563.75   -14677.566    905.64942   -15583.216   -488.71042    6960.4996    77.213482    24.724313    16.349133 
 5190000    225.39029   -395.60265    181563.75   -14666.164      927.147   -15593.311   -787.12595    6962.8987    77.213825    24.727136    16.348379 
 5190200    222.82781   -345.12425    181563.75   -14697.034    916.60619    -15613.64   -597.56349    6963.2639    77.213474    24.726845    16.343455 
 5190400    216.22016   -372.90596    181563.75     -14650.3    889.42549   -15539.726   -711.88056    6959.8621    77.210726    24.726656    16.343734 
 5190600    232.93293     -357.245    181563.75   -14630.254    958.17375   -15588.428   -615.79922    6965.2903    77.209798    24.729127    16.347945 
 5190800    227.76928   -340.65969    181563.75   -14653.837    936.93299    -15590.77   -570.27467     6963.591    77.208008    24.731848    16.343997 
 5191000    216.87842   -402.88879    181563.75   -14706.224    892.13326   -15598.358   -817.44333    6962.7794    77.205635    24.732574    16.344394 
 5191200     225.6999   -397.67301    181563.75    -14680.63    928.42057   -15609.051   -827.67153    6963.6046    77.205216    24.734575    16.340078 
 5191400    225.80688   -378.14159    181563.75   -14667.108    928.86065   -15595.969   -697.06666    6962.7467    77.204977    24.735471    16.341074 
 5191600    224.04443   -425.45356    181563.75   -14668.332    921.61075   -15589.943   -886.41713     6962.786    77.202559    24.736345    16.335782 
 5191800    220.68106    -356.7708    181563.75   -14685.084    907.77549    -15592.86   -649.88286    6965.1498    77.202345    24.736358     16.33792 
 5192000    229.79507   -398.06823    181563.75   -14640.174    945.26611    -15585.44   -778.65204    6964.3049    77.200476     24.73863    16.339752 
 5192200    234.03006   -411.56559    181563.75   -14589.431    962.68681   -15552.117   -864.38693    6964.5699    77.197672    24.739281    16.347282 
 5192400    238.90047   -270.85979    181563.75    -14591.12    982.72134   -15573.841   -323.08975    6961.4459    77.194729    24.738419    16.347682 
 5192600    227.82514   -367.19974    181563.75   -14656.288    937.16279   -15593.451   -686.09312    6959.9746    77.193068    24.740038    16.336731 
 5192800    228.87823   -405.26278    181563.75   -14666.818    941.49468   -15608.313   -816.26511    6964.1403    77.189656    24.741896    16.337063 
 5193000      228.006   -307.29347    181563.75    -14640.16    937.90677   -15578.066   -496.48626    6961.4999    77.189617    24.744623    16.342958 
 5193200    228.42178   -331.74253    181563.75   -14635.381    939.61708   -15574.998   -577.57295     6962.284    77.186875     24.74388    16.346086 
 5193400    227.03057   -416.44843    181563.75   -14701.425    933.89432   -15635.319   -863.20668     6963.082    77.183918    24.746348    16.333608 
 5193600    223.72365   -407.90608    181563.75   -14646.488    920.29123   -15566.779   -846.80456    6960.9892    77.181517    24.745134    16.337623 
 5193800     219.9392   -363.35924    181563.75   -14671.401    904.72382   -15576.125   -617.00185    6958.8974    77.179137     24.74569    16.340186 
 5194000    230.57977   -443.77792    181563.75   -14626.718    948.49402   -15575.212   -942.02897     6961.755    77.178244    24.746474    16.341179 
 5194200    223.21709   -467.06527    181563.75   -14653.186    918.20749   -15571.394   -1052.5358    6961.9018    77.176743    24.747892    16.349053 
 5194400    231.45148   -345.41211    181563.75   -14622.918     952.0798   -15574.998   -609.31519    6959.0442    77.174554     24.74741    16.342022 
 5194600    221.83363   -418.08767    181563.75   -14669.685    912.51662   -15582.202   -875.18289    6961.7551    77.173831    24.747773    16.343352 
 5194800    221.93624    -323.7012    181563.75   -14634.184     912.9387   -15547.123   -504.24043    6961.4942     77.17082    24.748988    16.341787 
 5195000    232.23239   -386.14742    181563.75   -14638.742    955.29209   -15594.034   -760.59813    6961.1767    77.169331     24.75178     16.34314 
 5195200    226.83353   -386.90679    181563.75     -14680.2    933.08379   -15613.284   -788.86886    6961.1964    77.167831    24.753288    16.346372 
 5195400    226.30471    -383.9123    181563.75   -14657.715    930.90845   -15588.624   -735.01675    6962.1732    77.166183    24.753985    16.349822 
 5195600    224.58699   -373.80228    181563.75   -14658.308    923.84262   -15582.151   -660.63788    6958.9158    77.167187    24.754004    16.347865 
 5195800    222.09512   -339.25391    181563.75   -14665.547    913.59226   -15579.139   -586.29299    6959.1137    77.166292    24.753681    16.343303 
 5196000     230.5927   -379.23161    181563.75   -14616.957    948.54721   -15565.504   -749.25438    6963.4223    77.165395    24.754172    16.348464 
 5196200    228.66969   -409.81647    181563.75   -14650.474    940.63685   -15591.111   -839.07363    6959.2961    77.164947    24.754181    16.348945 
 5196400    229.65958   -363.03687    181563.75   -14605.212    944.70878   -15549.921   -653.54378    6959.3649    77.163222    24.754774    16.354579 
 5196600    223.16702   -348.58741    181563.75    -14685.44    918.00154   -15603.441   -588.12285    6962.3926    77.164546    24.756747    16.343205 
 5196800    230.37999   -426.02173    181563.75   -14670.669    947.67219   -15618.342   -886.33724     6961.458    77.162662    24.758874    16.350865 
 5197000    229.31936    -357.8188    181563.75    -14645.17    943.30927   -15588.479   -607.30054    6963.6068    77.161229    24.758587     16.34047 
 5197200    225.40839   -383.81826    181563.75   -14653.759    927.22145    -15580.98   -732.75063    6959.3447    77.159171    24.758941    16.344339 
 5197400    230.20633   -361.87763    181563.75   -14592.811    946.95784   -15539.769   -668.06974    6960.1134    77.159078    24.759593    16.343513 
 5197600     230.1207   -382.15252    181563.75   -14634.923     946.6056   -15581.528   -756.48582    6963.9314    77.157514    24.760354    16.341712 
 5197800    224.90538   -358.65712    181563.75   -14631.219    925.15229   -15556.372   -658.21978     6960.869    77.157224    24.760869    16.348591 
 5198000     234.8057   -380.49967    181563.75   -14608.963    965.87743    -15574.84   -718.28322    6962.0466    77.154948    24.762425    16.344357 
 5198200    229.90045   -347.70211    181563.75   -14645.945     945.6996   -15591.644   -642.04112    6960.5102    77.154425    24.762575    16.344759 
 5198400    228.33202   -395.73822    181563.75   -14665.501    939.24783   -15604.749   -763.83963    6959.2732    77.155221    24.763452    16.348892 
 5198600     231.0303   -352.38023    181563.75   -14658.122    950.34727   -15608.469    -633.4469    6960.2839    77.155613    24.764534    16.346709 
 5198800     223.7243   -331.02779    181563.75   -14704.758    920.29391   -15625.052   -564.71139    6960.5116    77.153224    24.764389    16.346725 
 5199000    224.45911   -426.65168    181563.75   -14664.779    923.31656   -15588.095   -925.66441    6960.7467    77.152831    24.764098    16.344254 
 5199200    225.23703   -447.82591    181563.75   -14669.972    926.51656   -15596.488   -990.05519    6962.2559    77.151382    24.764046    16.349122 
 5199400     217.0712   -310.59853    181563.75   -14701.817    892.92628   -15594.743   -446.02332    6960.0627    77.148344    24.763732    16.342238 
 5199600    221.54217    -345.5504    181563.75   -14703.081    911.31769   -15614.399   -567.37512     6959.798    77.147165    24.763848    16.343977 
 5199800    227.69212   -450.14312    181563.75   -14645.896    936.61561   -15582.512   -971.44568    6962.5538    77.145716    24.764468    16.353476 
 5200000    236.11291    -389.5769    181563.75   -14650.096    971.25468   -15621.351   -782.83004    6959.6842    77.143724    24.763688    16.344387 
Loop time of 6420.04 on 128 procs for 5200000 steps with 9253 atoms

Performance: 699.809 ns/day, 0.034 hours/ns, 809.964 timesteps/s
97.7% CPU use with 128 MPI tasks x no OpenMP threads

MPI task timing breakdown:
Section |  min time  |  avg time  |  max time  |%varavg| %total
---------------------------------------------------------------
Pair    | 0.44108    | 1646.5     | 5166.5     |4654.7 | 25.65
Neigh   | 4.2374     | 112.49     | 268.86     | 854.8 |  1.75
Comm    | 95.65      | 1090.9     | 4213.2     |3498.4 | 16.99
Output  | 72.127     | 72.212     | 74.405     |   2.3 |  1.12
Modify  | 201.24     | 3408.8     | 6165.9     |4400.9 | 53.10
Other   |            | 89.13      |            |       |  1.39

Nlocal:    72.2891 ave 152 max 0 min
Histogram: 40 1 10 13 0 0 0 23 32 9
Nghost:    703.398 ave 959 max 516 min
Histogram: 27 8 4 35 6 7 8 16 3 14
Neighs:    0 ave 0 max 0 min
Histogram: 128 0 0 0 0 0 0 0 0 0
FullNghs:  7753.62 ave 18474 max 0 min
Histogram: 44 20 0 0 0 0 3 31 22 8

Total # of neighbors = 992464
Ave neighs/atom = 107.259
Neighbor list builds = 523588
Dangerous builds = 0
write_data 		${DIR}/data.${NAME}_run
write_data 		run_12/data.${NAME}_run
write_data 		run_12/data.ibeam_cooling_12_run
Total wall time: 1:47:13
