
# Set production fixes - Nose/Hoover
#
fix                 4 water temp/csvr ${START_TEMP} ${END_TEMP} 500.0 928347
fix                 4 water temp/csvr 240 ${END_TEMP} 500.0 928347
fix                 4 water temp/csvr 240 227 500.0 928347


## divide "droplet" into core and surface
#region		core_reg cylinder z 135 135 44.6 20 INF units box
#region		surface_reg cylinder z 135 135 44.6 20 INF units box side out
#group		core dynamic all region core_reg
#group		surface dynamic all region surface_reg

## compute pressure core
#compute        peratom_core core stress/atom NULL
#compute        p_core core reduce sum c_peratom_core[1] c_peratom_core[2] c_peratom_core[3]
#variable       press_core equal -(c_p_core[1]+c_p_core[2]+c_p_core[3])/(3*1249982.5)


## compute pressure surface
#compute        peratom_surf surface stress/atom NULL
#compute        p_surf surface reduce sum c_peratom_surf[1] c_peratom_surf[2] #c_peratom_surf[3]
#variable       press_surf equal -(c_p_surf[1]+c_p_surf[2]+c_p_surf[3])/(3*42395)

## compute total pressure of drop
compute        peratom water stress/atom NULL
compute        p water reduce sum c_peratom[1] c_peratom[2] c_peratom[3]
variable       press equal -(c_p[1]+c_p[2]+c_p[3])/(3*58301)


# compute order parameter
compute        3 all orientorder/atom nnn NULL cutoff 3.5

# compute center of mass of bridge
compute 	4 water com

# Run simulation
thermo_style        custom step c_2 press vol etotal ke pe v_press c_1[4] c_4[*]
thermo              200
dump		     1 water custom 400 ${DIR}/prod.${NAME}.dump id type x y z vx vy vz c_3[*] c_peratom[*]
dump		     1 water custom 400 run_11/prod.${NAME}.dump id type x y z vx vy vz c_3[*] c_peratom[*]
dump		     1 water custom 400 run_11/prod.ibeam_cooling_11.dump id type x y z vx vy vz c_3[*] c_peratom[*]
run                 ${STEPS}
run                 5200000
Neighbor list info ...
  update every 1 steps, delay 0 steps, check yes
  max neighbors/atom: 2000, page size: 100000
  master list distance cutoff = 6.67472
  ghost atom cutoff = 6.67472
  binsize = 3.33736, bins = 57 9 12
  2 neighbor lists, perpetual/occasional/extra = 1 1 0
  (1) pair sw, perpetual
      attributes: full, newton on
      pair build: full/bin/atomonly
      stencil: full/bin/3d
      bin: standard
  (2) compute orientorder/atom, occasional, copy from (1)
      attributes: full, newton on
      pair build: copy
      stencil: none
      bin: none
Per MPI rank memory allocation (min/avg/max) = 0.851 | 6.016 | 7.138 Mbytes
Step c_2 Press Volume TotEng KinEng PotEng v_press c_1[4] c_4[1] c_4[2] c_4[3] 
       0    237.47439   -370.64528    204420.41   -23340.941    1723.6538   -25064.595   -803.45021    34.874167    95.095894    14.529571    27.848182 
     200    239.29976   -117.39564    204420.41   -23391.643    1736.9028   -25128.546     118.3422    35.269388    95.096143    14.525957    27.836462 
     400    234.34659   -384.98492    204420.41   -23368.097    1700.9514   -25069.049   -832.46209    36.282448    95.098572    14.525039    27.829866 
     600    241.95152   -381.69432    204420.41   -23246.199      1756.15   -25002.349   -826.60513    37.988626    95.098566    14.529064    27.842658 
     800    244.28437    -372.7311    204420.41   -23229.356    1773.0825   -25002.438    -793.2613     39.45585    95.099535    14.531484    27.851813 
    1000    241.16307   -375.36521    204420.41   -23283.202    1750.4273   -25033.629   -779.56412    40.962368    95.098418    14.531862    27.855427 
    1200    238.63944   -335.45528    204420.41   -23255.373    1732.1101   -24987.483   -663.46373    43.065943    95.097783    14.531293    27.857904 
    1400    235.99839    -351.2607    204420.41   -23240.046    1712.9406   -24952.987   -692.30438    45.468025    95.097035    14.530945     27.84945 
    1600    242.07019   -295.95318    204420.41   -23256.983    1757.0114   -25013.994   -551.27313    47.522996    95.096755    14.532972    27.838207 
    1800    242.32503   -503.36868    204420.41   -23238.194    1758.8611   -24997.055   -1250.8463     49.70761    95.096351    14.534031    27.831057 
    2000    244.65709   -274.60303    204420.41   -23191.338    1775.7878   -24967.126    -420.0088    51.204384    95.097693    14.538023    27.855624 
    2200    237.32862   -297.83757    204420.41   -23256.527    1722.5958   -24979.123   -519.31377    52.469422      95.0978    14.539562    27.855338 
    2400      244.821   -361.02489    204420.41   -23232.255    1776.9775   -25009.233   -725.40407    54.257808    95.098027    14.537878    27.848264 
    2600    238.80875   -195.70017    204420.41   -23290.763     1733.339   -25024.102   -143.92783    55.641053    95.098011    14.538344    27.857718 
    2800    240.13272   -428.93037    204420.41    -23187.35    1742.9487   -24930.299    -1006.304    57.918625    95.096434    14.536008    27.851113 
    3000    240.78174   -428.40316    204420.41   -23174.032    1747.6595   -24921.691   -981.46891    59.936114    95.095926    14.535196    27.853032 
    3200    241.05311   -329.26213    204420.41   -23236.502    1749.6291   -24986.131   -602.03853    61.971716    95.096968    14.537214    27.847662 
    3400    242.15719   -331.37337    204420.41   -23235.125    1757.6429   -24992.767   -639.49344    64.533575    95.098397      14.5337    27.852678 
    3600    233.64861   -406.76566    204420.41   -23230.554    1695.8853   -24926.439    -843.6033    66.223801    95.097941    14.535461    27.833324 
    3800    241.58991   -206.16625    204420.41   -23192.643    1753.5254   -24946.169   -217.35729    68.426115    95.098691    14.536448    27.855358 
    4000    233.24752   -153.88923    204420.41   -23255.609     1692.974   -24948.583   -13.330399    70.899834    95.099078    14.535133    27.861074 
    4200    247.00272   -463.31417    204420.41   -23153.726    1792.8131   -24946.539   -1062.2849    73.254824    95.099155     14.53647    27.864257 
    4400    239.86998   -377.92599    204420.41   -23213.656    1741.0417   -24954.698   -781.73265    75.371343    95.098268    14.536811    27.859547 
    4600    242.16583   -433.12585    204420.41   -23293.644    1757.7055   -25051.349   -986.09896    77.256141    95.100521    14.536566     27.85461 
    4800    240.78414   -502.32648    204420.41   -23179.611    1747.6769   -24927.288   -1252.9929    79.486176    95.102053    14.534841    27.852642 
    5000    240.01389   -240.29566    204420.41   -23223.071    1742.0862   -24965.158   -318.29456    80.633802    95.102013    14.536102    27.855356 
    5200    234.77527   -259.24836    204420.41   -23225.123    1704.0629   -24929.186   -373.80982    80.090159     95.10062    14.536249     27.89364 
    5400    239.67425    -513.6946    204420.41   -23245.742     1739.621   -24985.363   -1279.6219    79.880261    95.100784     14.53771    27.879612 
    5600    236.75677   -202.68304    204420.41   -23281.171    1718.4451   -24999.616   -203.99333    80.863124    95.100424     14.53803    27.867197 
    5800    245.34255   -277.45377    204420.41   -23230.784    1780.7631   -25011.547   -422.10603    82.217183    95.099873    14.535551     27.86398 
    6000    241.21146   -315.83735    204420.41   -23280.937    1750.7785   -25031.716    -574.7712    83.164266    95.098894    14.536158    27.885926 
    6200    229.57942   -348.32828    204420.41   -23306.961      1666.35   -24973.311   -713.15042    84.525981    95.099017    14.536929    27.883036 
    6400    235.90141   -137.73913    204420.41   -23295.875    1712.2367   -25008.112    36.655818    85.860712    95.099539    14.534952    27.881837 
    6600    238.48172   -550.46066    204420.41   -23280.924    1730.9653   -25011.889   -1400.3878    86.412291    95.098629     14.53268    27.907638 
    6800    236.33499   -301.98779    204420.41   -23303.826    1715.3838    -25019.21   -551.12036    86.745179    95.098112    14.531668    27.923626 
    7000    243.48787   -299.98541    204420.41   -23249.567    1767.3013   -25016.868   -497.84447    88.782928    95.097593    14.532126    27.935025 
    7200    236.24597   -389.82501    204420.41   -23350.351    1714.7377   -25065.089   -832.05614    90.775629    95.098725    14.533964    27.932914 
    7400    238.29404   -318.91662    204420.41   -23315.633    1729.6031   -25045.236   -578.31851    92.018958    95.096801    14.535925    27.932397 
    7600    244.58964   -332.18786    204420.41   -23228.241    1775.2983   -25003.539   -637.41432    93.452865    95.095081    14.537611     27.94175 
    7800    231.50428   -201.41177    204420.41   -23335.958    1680.3211   -25016.279   -188.81642    94.876624    95.093991    14.537775    27.932928 
    8000       246.63   -386.09661    204420.41   -23179.112    1790.1077    -24969.22   -830.06762    96.365379    95.094551    14.539705    27.927531 
    8200    242.77446   -327.73284    204420.41   -23200.042    1762.1232   -24962.165   -637.51742    97.934012    95.091816     14.53753    27.932317 
    8400    241.05801   -430.85114    204420.41   -23149.864    1749.6647   -24899.529   -950.92001    98.177968    95.089195    14.539029    27.942072 
    8600    235.57212   -340.25055    204420.41   -23176.293    1709.8466    -24886.14   -650.98332    98.735627    95.088995    14.540704    27.918308 
    8800    237.92783   -275.95293    204420.41   -23227.334     1726.945   -24954.279   -433.51642     99.38292    95.087925    14.540294    27.902134 
    9000    247.13172   -337.41299    204420.41   -23230.238    1793.7494   -25023.987   -678.65266    101.09995    95.088552    14.540743    27.880012 
    9200    239.63778   -640.36966    204420.41   -23210.107    1739.3563   -24949.463   -1690.4096    104.02457    95.087468    14.541721    27.861617 
    9400    240.27563   -194.39525    204420.41   -23241.601     1743.986   -24985.587   -108.78522    107.16767    95.086047    14.541757    27.849247 
    9600    239.71513   -154.26817    204420.41   -23325.232    1739.9177    -25065.15   -50.195607    109.53339    95.086636    14.542396    27.863783 
    9800    239.49307   -278.10617    204420.41   -23189.779    1738.3059   -24928.085   -445.42611    111.66609    95.084878    14.541048     27.86507 
   10000    234.55009   -347.54274    204420.41   -23258.695    1702.4284   -24961.124   -719.45182    113.08559    95.085502    14.543242     27.85394 
   10200    244.31269    -263.8265    204420.41   -23200.669    1773.2881   -24973.957   -383.81545    114.47057    95.084456    14.548094    27.850361 
   10400    241.31831    -299.2125    204420.41   -23198.818     1751.554   -24950.372   -511.86927    116.79727    95.085174    14.550645    27.840097 
   10600    239.00334   -336.42035    204420.41   -23258.415    1734.7514   -24993.167   -658.76275    118.83499      95.0861     14.54905     27.84714 
   10800    228.92249   -242.51362    204420.41   -23314.067    1661.5818   -24975.649   -333.01269    122.12871    95.086089    14.550598    27.847989 
   11000    236.42531   -362.93579    204420.41   -23308.639    1716.0393   -25024.678   -741.25719    125.31289    95.085637    14.552403    27.855504 
   11200    233.92634   -433.82836    204420.41   -23309.124    1697.9011   -25007.025   -1033.0414    127.76091    95.085709    14.554064    27.858136 
   11400    239.56196   -267.47563    204420.41    -23264.19     1738.806   -25002.996   -417.92224    129.99336    95.086699    14.552688    27.843827 
   11600    240.86115   -272.32866    204420.41   -23156.703    1748.2359   -24904.939   -430.24442    132.92157    95.086434     14.55119    27.836962 
   11800    241.45372   -464.94845    204420.41   -23177.966    1752.5369   -24930.503   -1092.3935    133.34176    95.086046    14.550942    27.821989 
   12000    241.69109   -306.71134    204420.41   -23159.072    1754.2598   -24913.331   -571.02711    134.33541    95.086158    14.553022    27.828892 
   12200    244.75571   -288.97091    204420.41   -23156.799    1776.5036   -24933.303   -513.20933    136.44236    95.085576    14.552014    27.820904 
   12400    237.10584   -334.20824    204420.41   -23207.409    1720.9788   -24928.388    -652.9099    139.21046    95.085562    14.552647    27.842604 
   12600     247.1801   -241.54297    204420.41   -23142.656    1794.1005   -24936.757   -309.75882    141.58626    95.085372    14.552115    27.842475 
   12800    246.35893   -303.41633    204420.41   -23210.437    1788.1403   -24998.578   -539.91248    144.17641    95.084034    14.552267    27.839987 
   13000    239.30258   -497.76364    204420.41   -23229.211    1736.9233   -24966.134   -1161.5626    145.68926    95.083789    14.554909    27.849976 
   13200    246.04629   -343.23859    204420.41   -23294.497     1785.871   -25080.368   -719.51178    145.22639    95.084515    14.552773    27.847296 
   13400    228.18714   -289.72441    204420.41   -23369.687    1656.2445   -25025.932   -497.73379    147.87377     95.08385    14.552181    27.852836 
   13600    236.48252    -452.6248    204420.41   -23276.128    1716.4546   -24992.583   -1021.5195    149.54766    95.082153     14.55288    27.848235 
   13800    240.29493   -385.27122    204420.41   -23219.982    1744.1261   -24964.108   -762.47788    151.83211    95.082623    14.553742    27.855167 
   14000    246.43035   -288.70665    204420.41   -23165.466    1788.6587   -24954.124   -501.15435    152.02206    95.081051    14.554488    27.852826 
   14200    243.02303   -343.45649    204420.41   -23222.389    1763.9274   -24986.316   -687.12396    153.26804    95.079158    14.552359    27.873803 
   14400    235.49469   -329.76667    204420.41   -23253.163    1709.2846   -24962.447   -629.50148    155.27483    95.079532    14.548944    27.883632 
   14600    238.61121   -269.40549    204420.41   -23227.226    1731.9052   -24959.131   -438.97348     156.0103    95.080049    14.551672    27.892023 
   14800    238.66578   -442.41628    204420.41    -23200.49    1732.3012   -24932.792   -1042.0604    154.57763    95.081521    14.552957    27.877862 
   15000    235.73563   -206.95516    204420.41   -23259.373    1711.0334   -24970.406   -166.71365    154.41969    95.080519    14.554027    27.907882 
   15200    237.24119    -366.1859    204420.41   -23205.208    1721.9612   -24927.169   -732.07009    155.61009    95.079273    14.551372    27.888715 
   15400    238.61001    -259.5788    204420.41   -23246.204    1731.8965     -24978.1   -391.42361     160.2909    95.078872    14.547445    27.885569 
   15600    244.14123   -216.24146    204420.41   -23123.818    1772.0435   -24895.861   -220.31879     164.1993    95.079133    14.546008    27.875197 
   15800    242.20244   -259.77397    204420.41   -23170.252    1757.9713   -24928.223   -370.04177    166.53544    95.078686    14.546238    27.883327 
   16000    236.09697   -394.63852    204420.41   -23232.548    1713.6561   -24946.205   -875.25141    169.06064    95.078513    14.547379    27.882001 
   16200    237.33444   -167.22818    204420.41   -23193.981     1722.638   -24916.619    -81.61576    171.54797    95.079082    14.548783    27.866309 
   16400    234.19576   -67.275336    204420.41   -23230.809    1699.8567   -24930.665    267.71628     174.0343    95.080041    14.547284    27.864467 
   16600    246.37912   -427.93701    204420.41   -23160.435    1788.2868   -24948.722   -943.28605      175.564    95.079647    14.545363    27.844039 
   16800    242.93104   -282.15904    204420.41   -23204.786    1763.2597   -24968.046   -435.03084    175.38744    95.080519     14.54243    27.859216 
   17000    236.82066   -202.85278    204420.41   -23242.575    1718.9089   -24961.484   -176.63955    174.82275    95.080247    14.539773    27.875118 
   17200    233.39843   -295.26953    204420.41   -23261.384    1694.0694   -24955.454   -478.52188    176.89832    95.082238    14.537214    27.875828 
   17400    237.26259     -515.132    204420.41   -23324.008    1722.1165   -25046.125   -1260.9939    177.10365    95.082518     14.53643    27.889275 
   17600    241.01108   -421.58908    204420.41   -23224.384    1749.3241   -24973.708   -916.07457    175.27293    95.082532    14.536331    27.882308 
   17800    240.33276   -217.72255    204420.41   -23238.435    1744.4006   -24982.836   -211.78943    175.12577    95.082905    14.537078    27.896293 
   18000    235.91222    -373.6686    204420.41   -23200.912    1712.3152   -24913.227   -732.81029    176.15913    95.082007     14.53484    27.889373 
   18200    244.64657   -271.91159    204420.41   -23214.351    1775.7115   -24990.062    -409.2198    176.38329    95.079514     14.53373    27.887094 
   18400     239.8279   -440.92207    204420.41   -23199.597    1740.7363   -24940.334   -971.13817    177.51145    95.080239    14.534623    27.882447 
   18600    245.93859   -64.717807    204420.41   -23216.583    1785.0893   -25001.672    336.74192    178.61144    95.080013    14.534724    27.892192 
   18800    235.82373     -581.202    204420.41     -23268.6    1711.6729   -24980.273    -1468.579    180.57283    95.078032    14.531861    27.885714 
   19000     240.9876   -388.69751    204420.41   -23176.805    1749.1537   -24925.958   -841.53277    180.78038    95.078836    14.533134    27.883764 
   19200    240.62034   -323.20794    204420.41   -23186.087     1746.488   -24932.575   -623.53077    182.41036     95.07892    14.534035    27.882708 
   19400    242.83392   -371.68127    204420.41   -23123.422    1762.5548   -24885.977   -784.63508    182.30821    95.080768    14.535455    27.879035 
   19600    237.28167   -356.21418    204420.41   -23127.248     1722.255   -24849.503   -727.00503     182.2793    95.082278    14.534831     27.89308 
   19800    243.60029   -276.51184    204420.41   -23118.379    1768.1173   -24886.496   -409.26102    183.02736    95.082393    14.532846    27.893868 
   20000    250.64404   -354.27147    204420.41   -23152.876    1819.2427   -24972.119   -665.08786    182.83084    95.081953    14.533567    27.883117 
   20200    236.91722   -314.00543    204420.41   -23229.291    1719.6097   -24948.901   -521.44039    185.51691    95.081386    14.532665    27.901473 
   20400    240.61857   -315.23415    204420.41   -23130.102    1746.4751   -24876.577    -616.8454    189.42009    95.082072     14.53103    27.898405 
   20600    236.10966    -351.4612    204420.41   -23212.068    1713.7482   -24925.816   -680.45072    191.38009    95.082906    14.531918    27.886351 
   20800    248.16473    -296.6324    204420.41    -23139.71    1801.2472   -24940.957    -514.9608     191.2976    95.084748    14.529905    27.898479 
   21000     238.7771   -279.15922    204420.41   -23171.471    1733.1093    -24904.58   -440.33884    192.93586    95.085576    14.530529     27.89649 
   21200    237.91753   -436.76146    204420.41   -23177.802    1726.8703   -24904.672   -1011.7881     196.1851    95.086407    14.532474    27.904113 
   21400    237.86454   -380.36324    204420.41   -23170.077    1726.4856   -24896.562   -810.11102     199.4524    95.089039    14.531641     27.89443 
   21600    246.70237   -300.38977    204420.41   -23064.496    1790.6331   -24855.129   -535.36491    200.78567    95.090208    14.532064    27.897658 
   21800    235.49143   -291.90767    204420.41   -23161.927     1709.261   -24871.188   -494.69173    202.34659    95.088862    14.531858    27.921652 
   22000     243.6315   -446.82488    204420.41   -23254.435    1768.3438   -25022.779   -1065.8266    203.47707    95.087579     14.52927    27.933732 
   22200    237.30425   -524.39669    204420.41   -23335.123    1722.4189   -25057.542   -1311.6206    203.44734    95.088614    14.529151    27.948522 
   22400    246.78885   -326.83405    204420.41   -23186.388    1791.2607   -24977.649   -617.82556     202.9949    95.088784    14.532765    27.949242 
   22600    245.20364   -459.92514    204420.41   -23226.582    1779.7548   -25006.337   -1074.5223    206.33043    95.088889    14.534299    27.912932 
   22800    240.66996    -323.6868    204420.41   -23200.442    1746.8481    -24947.29   -592.89681    207.98563    95.088538    14.536666    27.922711 
   23000    236.89107   -472.84896    204420.41   -23294.846    1719.4199   -25014.266   -1151.1672    209.92161    95.088272    14.535226    27.921787 
   23200    241.77426   -217.62679    204420.41   -23191.941    1754.8634   -24946.804   -234.75683    212.81345    95.087328    14.535176    27.903929 
   23400    240.67841   -572.46912    204420.41    -23201.16    1746.9095   -24948.069   -1507.6062    215.06036    95.086053    14.537865    27.895248 
   23600     246.1773   -259.72003    204420.41   -23129.014    1786.8219   -24915.836   -390.78782    217.60485    95.086359    14.542471    27.884863 
   23800    245.19002    -278.3945    204420.41   -23167.345     1779.656   -24947.001   -422.42006    218.32632    95.087336    14.545269    27.884956 
   24000    246.21052   -295.93408    204420.41    -23211.42     1787.063   -24998.483   -558.37429    218.76648    95.088089    14.549106    27.887357 
   24200    238.85086   -362.88028    204420.41   -23190.429    1733.6446   -24924.074   -733.45079    219.55616    95.086353    14.550404    27.892532 
   24400     236.8197    -520.7739    204420.41   -23244.509    1718.9019   -24963.411   -1334.6811    219.57234    95.086992    14.551713    27.893406 
   24600    238.36966   -381.87486    204420.41   -23266.289    1730.1519   -24996.441   -825.59863    220.40778    95.087215    14.550632    27.896613 
   24800     233.6853   -361.72646    204420.41   -23231.994    1696.1516   -24928.146   -745.39442    221.88388    95.088252    14.549549    27.880275 
   25000    246.16447   -361.82646    204420.41   -23267.969    1786.7288   -25054.697   -725.16347    223.73717    95.087791     14.55212    27.856549 
   25200    227.94911   -322.58655    204420.41   -23405.443    1654.5167    -25059.96   -646.95743    224.32384    95.087175     14.55407    27.852004 
   25400    238.35853   -250.49913    204420.41   -23281.532    1730.0711   -25011.603   -363.14501    225.99347    95.088201    14.556626    27.855486 
   25600    248.61697   -381.37108    204420.41   -23134.949    1804.5297   -24939.479    -823.2179       228.99    95.088395     14.55699    27.866615 
   25800    240.70411   -476.66284    204420.41   -23187.363     1747.096   -24934.459   -1124.5873    230.84903    95.085943    14.560574    27.866113 
   26000    239.56292   -357.09795    204420.41   -23253.716    1738.8129   -24992.529   -738.86307    233.13193    95.084124    14.558732    27.856495 
   26200    238.35048   -350.37686    204420.41   -23237.097    1730.0127    -24967.11   -695.38879    236.05627    95.084693    14.558351    27.846807 
   26400    242.41552   -468.78003    204420.41   -23266.693    1759.5179    -25026.21   -1132.2381    237.92443    95.084959    14.559079    27.848426 
   26600    240.66843   -159.92447    204420.41   -23160.499    1746.8371   -24907.336    -30.64019    239.56455    95.085495    14.560379    27.858642 
   26800    240.76842    -574.6962    204420.41   -23212.324    1747.5628   -24959.887   -1465.5077    240.55287    95.085557    14.560358    27.879394 
   27000    244.95446   -269.96745    204420.41   -23177.493    1777.9462    -24955.44   -407.58972    241.59522    95.086143    14.559527     27.87296 
   27200    235.61726   -176.74989    204420.41   -23222.374    1710.1742   -24932.548   -43.985391    244.32923    95.086027    14.563482    27.859707 
   27400    243.67506   -235.66034    204420.41   -23161.373      1768.66   -24930.033   -269.58189    247.82574    95.085596    14.566817    27.846727 
   27600    232.65339   -273.67374    204420.41   -23313.317    1688.6617   -25001.979    -419.6359     247.8683     95.08595    14.566171     27.85412 
   27800    247.05315   -250.50652    204420.41   -23184.364     1793.179   -24977.543   -358.52983    251.94744    95.084649    14.569453     27.87477 
   28000    234.34631   -352.85871    204420.41   -23295.358    1700.9494   -24996.307   -710.11851    254.31168    95.084131    14.571202    27.877574 
   28200    238.93515   -552.15126    204420.41   -23270.796    1734.2564   -25005.053   -1386.1331     257.1088     95.08355    14.572813    27.878111 
   28400    237.09802   -400.08227    204420.41    -23281.35    1720.9221   -25002.272   -909.47919    258.58893    95.083164    14.574179    27.867185 
   28600    235.35216   -367.87555    204420.41   -23267.409    1708.2501   -24975.659    -741.4236    258.53336     95.08497    14.577959    27.876458 
   28800    236.79275   -329.01928    204420.41   -23231.864    1718.7063    -24950.57   -611.39879    260.70645    95.085733    14.577524     27.89004 
   29000     245.3105   -436.33488    204420.41   -23219.323    1780.5304   -24999.853   -940.40639    260.57678    95.086115    14.575292    27.894054 
   29200    244.12583   -296.76186    204420.41   -23170.832    1771.9318   -24942.764    -512.1604    262.41897    95.086539     14.57546    27.906511 
   29400    240.98872   -464.11237    204420.41   -23191.605    1749.1618   -24940.767   -1118.4431    264.07462    95.086799    14.573166    27.910577 
   29600    234.27165   -211.71932    204420.41   -23186.642    1700.4075   -24887.049   -221.74583    264.73169    95.086398    14.571922    27.894642 
   29800    238.20641   -241.26625    204420.41    -23314.38    1728.9671   -25043.347    -328.8252    266.26319    95.087685    14.572794    27.901334 
   30000    232.41083   -469.16876    204420.41   -23329.858    1686.9011   -25016.759   -1105.7172    267.73354     95.08902    14.570984    27.932327 
   30200    238.44509   -358.32209    204420.41   -23237.989    1730.6994   -24968.688   -700.28162    269.83191     95.08932    14.569101    27.946853 
   30400    238.16802   -402.77642    204420.41   -23235.717    1728.6884   -24964.406   -863.02595    271.31325    95.090554    14.568556    27.954122 
   30600    230.61902    -218.9918    204420.41   -23271.128    1673.8957   -24945.023   -226.40961    271.76331    95.090565    14.566023    27.958609 
   30800    240.58724   -122.89947    204420.41   -23230.152    1746.2478     -24976.4    125.58523    273.96688    95.091097    14.563323    27.940734 
   31000    236.60403   -291.46302    204420.41   -23220.298    1717.3365   -24937.635   -527.69375    276.53506    95.092303    14.562244    27.938814 
   31200    247.04414   -581.19607    204420.41   -23221.944    1793.1137   -25015.058   -1518.1815    278.42246    95.093193    14.557941    27.932248 
   31400    238.03032   -385.09261    204420.41   -23159.244    1727.6889   -24886.933   -831.06904    277.33503    95.093296    14.558922    27.929336 
   31600    236.57063   -287.04205    204420.41   -23214.662    1717.0941   -24931.757   -465.69158    280.36124    95.092068    14.562222     27.93006 
   31800    241.15091   -397.77817    204420.41   -23145.284     1750.339   -24895.623   -873.84122    281.83047    95.091537    14.562904    27.917961 
   32000    240.96558   -190.48922    204420.41   -23251.003    1748.9939   -24999.997   -147.10357    281.57961    95.090972    14.567841    27.927007 
   32200    235.86483   -438.14993    204420.41    -23266.08    1711.9712   -24978.052   -1059.6372    281.84901    95.089771    14.570163    27.927395 
   32400    234.20557   -152.92893    204420.41   -23280.805    1699.9279   -24980.733   -58.225544      283.711    95.089333    14.566638    27.924627 
   32600    238.03526   -521.54131    204420.41   -23194.021    1727.7248   -24921.746   -1290.9315    288.03874    95.089834       14.567    27.942926 
   32800    239.39791   -390.54655    204420.41   -23185.499    1737.6153   -24923.114   -815.24071    289.51934    95.088962    14.568007    27.937396 
   33000    242.70829   -449.08911    204420.41   -23152.711    1761.6429   -24914.354   -976.21096    292.50726    95.089954    14.567595    27.931528 
   33200    239.28409   -267.77959    204420.41   -23185.167    1736.7891   -24921.957   -382.80093    292.18379    95.090016    14.565794    27.936258 
   33400    234.32091   -279.76994    204420.41   -23230.197     1700.765   -24930.962   -457.75809    293.71291    95.089761    14.567467    27.953566 
   33600    238.87799   -479.92695    204420.41   -23218.166    1733.8415   -24952.008   -1143.1397    297.62777    95.090132    14.568656    27.944564 
   33800    249.59932   -104.63857    204420.41   -23079.424    1811.6599   -24891.084    149.26947    298.51722    95.090695    14.568569     27.95337 
   34000    233.36857   -665.29094    204420.41   -23226.798    1693.8527    -24920.65   -1751.7876    302.72798    95.091786     14.56718    27.961356 
   34200    240.84784    -298.5241    204420.41   -23205.808    1748.1392   -24953.947   -500.77492    301.56252    95.091118    14.565412    27.967621 
   34400    237.46903   -174.47849    204420.41   -23287.568     1723.615   -25011.183    -42.65955    303.17759    95.090316    14.565641    27.974551 
   34600    242.90646   -311.53239    204420.41   -23160.296    1763.0813   -24923.377   -566.82628    307.53476    95.091947    14.564793    27.967514 
   34800    243.05363   -333.57205    204420.41   -23265.719    1764.1495   -25029.869   -646.87835    309.33972    95.091901    14.563175     27.96134 
   35000    237.46549   -351.93731    204420.41   -23272.328    1723.5892   -24995.918   -727.17018    311.20907    95.091601    14.562412    27.972625 
   35200    241.37005   -179.83157    204420.41   -23201.732    1751.9296   -24953.662   -92.794417    314.60822    95.091378    14.559606    27.961881 
   35400    242.61569   -301.06631    204420.41   -23177.033    1760.9708   -24938.004   -517.23333    316.67442    95.090811    14.557113    27.968436 
   35600    236.47683   -270.22291    204420.41   -23147.459    1716.4132   -24863.872   -372.29479    316.44183     95.08958    14.552907    27.958203 
   35800    243.65907   -305.50098    204420.41   -23062.037    1768.5439   -24830.581   -545.70133    314.97723    95.090519    14.549085    27.927496 
   36000    233.76734   -397.96944    204420.41   -23168.851    1696.7471   -24865.598    -870.9234    316.14841    95.091318    14.546732     27.93333 
   36200    235.57491   -384.72604    204420.41   -23164.667    1709.8669   -24874.534   -825.41594    319.78787    95.092652    14.546314    27.941864 
   36400    243.82113   -290.71007    204420.41   -23139.486    1769.7202   -24909.206    -443.8657     323.9868    95.092077    14.544027    27.945977 
   36600    242.22731   -223.57285    204420.41   -23156.707    1758.1518   -24914.859   -229.37536    326.42432    95.092547    14.542572    27.940561 
   36800    235.66081   -341.92151    204420.41   -23218.258    1710.4903   -24928.749   -689.90017    329.01765     95.09333    14.541761    27.945238 
   37000    239.62545   -266.91209    204420.41   -23192.508    1739.2668   -24931.775   -406.36252    333.72623    95.093672    14.542878    27.965896 
   37200    233.47481   -406.17197    204420.41   -23189.398    1694.6238   -24884.021   -906.94227    335.27817    95.093416    14.541377     27.95309 
   37400    240.36745   -365.07267    204420.41   -23183.096    1744.6524   -24927.748   -768.77147    336.27623    95.093737    14.539282    27.947028 
   37600    240.10491   -273.56108    204420.41   -23246.153    1742.7469     -24988.9   -439.92135    335.26746    95.092804    14.536414    27.932135 
   37800    238.11652   -497.16221    204420.41   -23278.761    1728.3146   -25007.075   -1212.2565    336.97971    95.092591    14.535232    27.921323 
   38000    240.17897   -264.89957    204420.41   -23178.293    1743.2844   -24921.577   -386.26344    336.97358    95.092429    14.535909     27.90342 
   38200    239.37551   -402.53258    204420.41   -23173.021    1737.4527   -24910.473   -864.42054    340.60965     95.09463     14.53566    27.904121 
   38400    248.97901   -379.08963    204420.41   -23125.344    1807.1575   -24932.501   -832.72764       341.42    95.095506    14.532891    27.914458 
   38600    240.81674   -410.54865    204420.41   -23220.569    1747.9135   -24968.482   -886.08225    344.05095    95.095122    14.530577     27.92683 
   38800    234.22291   -313.18634    204420.41    -23205.44    1700.0537   -24905.494   -555.26083    345.24927    95.093452    14.525405    27.914937 
   39000    246.47283   -165.87097    204420.41   -23106.453    1788.9669    -24895.42   -83.840255    346.64231    95.093223    14.522704    27.911171 
   39200    234.21488   -147.50151    204420.41   -23233.379    1699.9954   -24933.374    26.432631    346.65095     95.09293     14.51794     27.90965 
   39400    242.95114   -435.29682    204420.41   -23210.568    1763.4056   -24973.973    -973.6382    346.81136    95.092356    14.517303    27.907903 
   39600     241.9756   -239.20031    204420.41   -23171.436    1756.3249   -24927.761   -316.12875    347.44346    95.093415    14.516886    27.916975 
   39800    242.38036   -336.71477    204420.41   -23239.962    1759.2627   -24999.225   -650.90305     350.0601    95.093087    14.516631    27.934841 
   40000    241.93388   -326.82073    204420.41   -23219.055     1756.022   -24975.077   -638.81128    353.29553    95.093991    14.518163    27.938603 
   40200    242.57225   -401.14546    204420.41    -23220.49    1760.6555   -24981.145    -889.1617    359.15378    95.092371    14.520037    27.935164 
   40400     237.4244   -216.72776    204420.41   -23259.382     1723.291   -24982.673    -212.0128     360.1188    95.090464    14.519424    27.940171 
   40600    240.21921   -338.06754    204420.41   -23143.364    1743.5765    -24886.94    -685.2488    361.63032    95.091633    14.521338    27.925116 
   40800    238.43687   -279.21575    204420.41   -23238.391    1730.6397   -24969.031   -465.93265    362.52005    95.092633    14.522525    27.947113 
   41000    240.37159    -278.0265    204420.41   -23252.724    1744.6825   -24997.406   -463.56262    363.17613    95.093088    14.525169    27.954381 
   41200    244.29443   -341.83888    204420.41    -23201.71    1773.1555   -24974.865   -673.63819    363.20692    95.096197    14.522381     27.95193 
   41400    240.02714   -351.62123    204420.41   -23253.371    1742.1824   -24995.554   -688.13176    361.46202     95.09579    14.521423    27.945038 
   41600    245.50879   -144.05381    204420.41    -23223.19    1781.9697    -25005.16    17.711129    359.51844     95.09673    14.521916    27.961694 
   41800    240.67654   -361.64184    204420.41   -23240.699    1746.8959   -24987.595   -698.67198     361.9778    95.096534    14.519572    27.953847 
   42000    239.54176   -332.30132    204420.41   -23234.794    1738.6593   -24973.453   -650.79337    368.49485    95.096588    14.518124    27.951613 
   42200    236.93466   -392.17903    204420.41   -23275.311    1719.7363   -24995.047   -847.18253    370.88433    95.096597    14.518092    27.915903 
   42400      245.156   -410.97372    204420.41   -23251.937     1779.409   -25031.346   -907.09252    374.58248     95.09571     14.51839    27.917654 
   42600    239.70963   -424.24691    204420.41   -23232.868    1739.8778   -24972.746   -985.06745    376.72048     95.09343    14.518751    27.920119 
   42800    238.31531   -269.30221    204420.41    -23192.48    1729.7575   -24922.238   -432.46485    378.56594     95.09458    14.518531    27.906845 
   43000    237.44432   -344.48355    204420.41    -23233.38    1723.4356   -24956.816   -672.46771    378.47219     95.09492     14.51674    27.918063 
   43200     239.8701   -303.03131    204420.41   -23259.047    1741.0425    -25000.09   -512.29326    378.85255    95.093715    14.516981    27.919556 
   43400     241.6626   -440.87802    204420.41   -23232.654     1754.053   -24986.707   -1024.2597     380.9286    95.093608    14.516358    27.907791 
   43600    241.60242   -371.92415    204420.41   -23258.966    1753.6162   -25012.583   -733.97489    379.74765    95.092206    14.516099    27.896925 
   43800    240.56273   -393.31411    204420.41   -23283.668    1746.0698   -25029.738   -845.69441    382.11014    95.091863    14.515476    27.920336 
   44000    233.72455   -330.80268    204420.41   -23324.682    1696.4365   -25021.119   -653.98874    385.18582     95.09225    14.517277    27.940474 
   44200    235.73852   -133.82202    204420.41   -23249.558    1711.0544   -24960.613    79.456069    386.61742    95.090498    14.521757    27.949818 
   44400    235.52685   -299.51624    204420.41    -23262.01    1709.5181   -24971.528   -533.01613    388.42631    95.088828    14.526129    27.970955 
   44600    236.23794   -285.03064    204420.41   -23292.768    1714.6794   -25007.447   -470.85012    389.51676    95.087635    14.530164    27.969399 
   44800    242.00963   -438.69741    204420.41    -23337.12    1756.5719   -25093.692    -978.4783    392.24948    95.087662    14.532797     27.97152 
   45000    243.02691   -284.41245    204420.41   -23287.535    1763.9556   -25051.491   -462.77712    394.30266    95.087641     14.53429    27.997437 
   45200    241.24789   -539.70746    204420.41   -23271.764    1751.0429   -25022.807   -1341.7531    395.03234    95.088964    14.536152    27.996025 
   45400     235.6439   -467.38818    204420.41   -23279.873    1710.3676   -24990.241   -1096.3839    396.65288    95.090557    14.535369    27.970319 
   45600    242.23626   -289.33198    204420.41    -23179.17    1758.2168   -24937.387   -487.84612    398.34705    95.090162    14.534537     27.95584 
   45800    237.19241   -423.65739    204420.41    -23240.84    1721.6072   -24962.447   -924.90931    399.98794    95.089748    14.536427    27.946767 
   46000    240.82181    -339.3612    204420.41    -23171.86    1747.9503    -24919.81   -623.59163     403.9731    95.090812    14.538761    27.946113 
   46200    243.38548   -196.95632    204420.41    -23213.35    1766.5582   -24979.908   -179.99028    404.87074    95.091163    14.541576    27.930491 
   46400    240.92301   -487.20813    204420.41   -23262.274    1748.6849   -25010.959   -1139.4884     409.0663    95.091313    14.542324    27.925906 
   46600    242.71091   -392.08515    204420.41   -23266.028    1761.6619    -25027.69   -830.95371    413.56493    95.089571    14.541567    27.928247 
   46800    239.93426   -333.70709    204420.41    -23246.83    1741.5082   -24988.338   -628.89667    410.77505    95.087417    14.541311     27.93081 
   47000     238.7149   -199.28353    204420.41   -23234.867    1732.6578   -24967.525   -152.05853    411.63349    95.086084    14.544234    27.920104 
   47200    233.40742   -498.53721    204420.41   -23308.622    1694.1347   -25002.756   -1213.5697    410.04924    95.084606    14.547389    27.905442 
   47400    245.21749   -181.25111    204420.41   -23223.503    1779.8554   -25003.359   -107.75262    411.82162     95.08534    14.547732    27.914415 
   47600    239.90686    -313.0663    204420.41     -23218.6    1741.3094    -24959.91    -563.8863      413.545    95.084634    14.544829    27.894719 
   47800    243.55507   -249.67267    204420.41   -23269.407     1767.789   -25037.196   -305.17689    409.78658    95.085653    14.545759    27.899484 
   48000    240.15753   -349.91079    204420.41   -23290.881    1743.1288   -25034.009   -663.69534    413.15735    95.084862    14.545264    27.894726 
   48200    237.20811   -455.83715    204420.41   -23292.021    1721.7211   -25013.742    -1068.329    411.11966     95.08357    14.545118     27.91336 
   48400    240.91528   -217.10014    204420.41   -23296.791    1748.6288    -25045.42   -230.58459    407.46719     95.08497    14.544411    27.912011 
   48600    242.21096   -211.71685    204420.41   -23340.015    1758.0332   -25098.048   -225.82997    406.44528    95.084805     14.54524    27.916508 
   48800     234.5139   -385.55191    204420.41   -23257.399    1702.1658   -24959.564   -843.97802    405.57843    95.084636    14.547767    27.914713 
   49000    236.55763   -556.53862    204420.41   -23240.693    1716.9997   -24957.693   -1408.5633    404.93688    95.083876    14.547137    27.923255 
   49200    236.51295   -423.47987    204420.41   -23166.551    1716.6754   -24883.227   -942.82985    408.44277    95.083409     14.54669    27.926335 
   49400    238.78066   -372.24971    204420.41   -23226.698    1733.1351   -24959.833   -765.51074    411.93498    95.084127    14.545968    27.921461 
   49600    233.03223   -344.53926    204420.41   -23193.977    1691.4114   -24885.388   -689.63476    415.84584    95.084131    14.547953    27.935951 
   49800    238.08636   -389.95251    204420.41   -23191.393    1728.0957   -24919.489   -807.53269    414.38232    95.084799    14.548318    27.926062 
   50000    236.21941   -64.144779    204420.41    -23213.08    1714.5448   -24927.625    272.48928    413.66473    95.084534    14.550891    27.914056 
   50200    239.03749   -389.45205    204420.41   -23098.434    1734.9993   -24833.433   -804.57339    413.71225    95.084886    14.549804    27.920635 
   50400    243.43431   -244.37922    204420.41   -23148.873    1766.9125   -24915.786   -309.22956    414.30663    95.087136    14.549014    27.939194 
   50600    243.62401   -504.82597    204420.41   -23061.438    1768.2894   -24829.727   -1219.8315    412.18716    95.088254    14.548278    27.948815 
   50800    234.19569   -422.01107    204420.41   -23259.533    1699.8561   -24959.389   -941.48173    415.64932    95.089622    14.550403    27.937517 
   51000    239.16452   -386.66537    204420.41   -23233.084    1735.9213   -24969.005   -826.14451    417.26719    95.090528    14.551718    27.936236 
   51200    237.77779   -338.53933    204420.41   -23243.589     1725.856   -24969.445   -657.22205    416.55934    95.091429    14.551063    27.952028 
   51400    239.97871   -339.41643    204420.41   -23209.475    1741.8309   -24951.306   -692.74209    417.98657     95.08959    14.552075    27.938229 
   51600    234.70643    -262.3497    204420.41   -23243.902    1703.5632   -24947.465   -381.11722    418.11713    95.087225    14.549992    27.934681 
   51800    243.21441   -267.58257    204420.41   -23203.039    1765.3165   -24968.355   -374.30311    419.33144    95.086864     14.55029    27.935407 
   52000    234.95399   -436.39336    204420.41     -23299.3    1705.3601    -25004.66    -1034.516    421.51707    95.086453    14.549153    27.927818 
   52200    239.14597   -462.67443    204420.41   -23302.012    1735.7866   -25037.799   -1080.9306    424.03874    95.086305    14.546769    27.944004 
   52400    230.96655   -322.38742    204420.41   -23375.811    1676.4182   -25052.229   -607.01353    425.57099    95.085659    14.550307    27.928705 
   52600    246.02766    -292.8705    204420.41    -23241.98    1785.7358   -25027.716   -502.44269    427.35824    95.086816    14.552472     27.94317 
   52800    240.69242   -413.61106    204420.41   -23151.378    1747.0111   -24898.389   -935.86194    427.26803    95.085833    14.552533    27.939089 
   53000    240.51421   -360.60568    204420.41   -23142.401    1745.7176   -24888.118   -722.84627    427.44919     95.08694    14.553821    27.955143 
   53200    234.08586    -478.1322    204420.41   -23226.993    1699.0589   -24926.052   -1133.8908    428.50845    95.085952    14.553457     27.96195 
   53400    236.85219    -231.2593    204420.41   -23219.205    1719.1377   -24938.342   -307.56271    429.65794    95.085346    14.551481    27.948884 
   53600    238.76996   -480.09708    204420.41   -23273.575    1733.0574   -25006.632   -1150.7932    433.78095    95.086548    14.549157    27.942392 
   53800    238.47866    -342.2705    204420.41   -23249.836    1730.9431   -24980.779   -670.82107    434.19872    95.086747     14.55004    27.917651 
   54000    242.24028   -428.34286    204420.41   -23219.121     1758.246   -24977.367   -964.19048    437.26052    95.085827    14.548023    27.894364 
   54200    237.32229   -271.54783    204420.41   -23189.061    1722.5499   -24911.611   -479.49302    440.78126    95.086995    14.547397    27.879387 
   54400    250.41831   -305.09648    204420.41   -23126.084    1817.6043   -24943.688   -527.77614    442.18046    95.086054    14.544845    27.858694 
   54600    242.14024   -600.46664    204420.41   -23144.917    1757.5198   -24902.437   -1604.3225    446.49763    95.086856    14.547373    27.852618 
   54800    243.30077   -280.25712    204420.41   -23132.431    1765.9433   -24898.374   -492.04614    450.91327    95.086658    14.549521    27.846657 
   55000    240.64099   -398.07906    204420.41   -23124.696    1746.6379   -24871.334   -829.21962     454.7056     95.08577    14.549624    27.839789 
   55200    231.37554   -3.0551308    204420.41   -23297.395    1679.3867   -24976.781    547.27386     452.7103    95.085077    14.545563    27.839311 
   55400    232.82398   -495.19093    204420.41   -23242.746    1689.8999   -24932.646     -1193.43    457.14785    95.085757    14.544467    27.841497 
   55600     237.5695   -141.04446    204420.41   -23241.741    1724.3442   -24966.085     42.64251    459.96254    95.087049    14.542565    27.816793 
   55800    240.78394    -488.9372    204420.41   -23115.673    1747.6755   -24863.349   -1169.5419    460.48174    95.087142    14.544656    27.795366 
   56000    240.65045   -237.04411    204420.41   -23180.407    1746.7066   -24927.113   -276.08676    460.10787    95.086376     14.54716    27.790459 
   56200    244.66627   -272.87837    204420.41   -23174.152    1775.8544   -24950.006   -430.03395    460.56664    95.086545    14.554541    27.768596 
   56400    235.67289   -348.72051    204420.41   -23255.045     1710.578   -24965.623   -675.86006    459.97755    95.087968    14.556781    27.756637 
   56600    231.93737    -505.6193    204420.41   -23379.371    1683.4646   -25062.836   -1203.8298     459.8518    95.088844    14.558811    27.764728 
   56800    242.43836   -402.53371    204420.41   -23238.246    1759.6837    -24997.93   -890.20413    462.70471    95.089063    14.559516    27.767388 
   57000    237.24256   -241.65586    204420.41   -23297.142    1721.9712   -25019.113    -318.4425     466.1235      95.0896    14.560347     27.76864 
   57200    242.20249   -286.10093    204420.41   -23202.465    1757.9716   -24960.437    -517.9527     466.5097    95.089956    14.559377    27.751583 
   57400    236.59913   -307.96211    204420.41    -23257.42     1717.301   -24974.721   -555.76405     465.3294    95.091218    14.558759    27.746567 
   57600    238.03995   -500.06839    204420.41   -23280.916    1727.7589   -25008.675   -1209.5559    467.06033    95.089407    14.557855    27.747678 
   57800    241.85416   -437.89413    204420.41   -23213.777    1755.4434   -24969.221   -1028.5211    469.74777    95.088494    14.556726    27.755608 
   58000    247.48138   -519.73411    204420.41   -23209.568    1796.2873   -25005.856   -1238.1687    470.07385    95.088468     14.55669    27.757702 
   58200    239.75146   -463.29574    204420.41   -23173.953    1740.1814   -24914.135   -1061.5432    470.10085    95.087113    14.556722     27.76268 
   58400    239.63583   -439.24971    204420.41   -23207.156    1739.3422   -24946.498   -962.73047    471.42152    95.086887    14.558587    27.777936 
   58600    235.13538   -176.88253    204420.41   -23218.939    1706.6767   -24925.615   -95.620651    471.22488    95.086885    14.560176     27.79888 
   58800    241.24463   -285.04353    204420.41   -23206.193    1751.0192   -24957.212   -493.97362    473.37707    95.085612    14.560517     27.82925 
   59000    237.98549   -585.95131    204420.41   -23156.923    1727.3635   -24884.287   -1524.8084     476.8142    95.084876    14.562377    27.836549 
   59200    236.14541   -473.78012    204420.41   -23216.918    1714.0077   -24930.926   -1125.1286    481.34284    95.085862    14.563999    27.838496 
   59400    236.49148   -345.41303    204420.41   -23192.479    1716.5196   -24908.999   -698.93728    483.00727    95.085315    14.567495    27.842795 
   59600    235.35893   -309.14951    204420.41   -23236.228    1708.2992   -24944.527    -552.9403    486.13609    95.084669    14.569808      27.8592 
   59800    243.18951   -309.97206    204420.41   -23187.437    1765.1357   -24952.573   -546.07419    487.87129    95.084245    14.572224    27.868445 
   60000     238.6031    -285.8616    204420.41   -23190.165    1731.8463   -24922.012    -519.8895    489.21155    95.083041    14.570989    27.872099 
   60200    236.40979   -313.97428    204420.41   -23218.342    1715.9267   -24934.268    -578.1607    492.00902    95.083526    14.571023    27.899695 
   60400    245.73559   -201.23401    204420.41   -23165.016    1783.6159   -24948.632   -203.33485    491.12661    95.083972    14.568817    27.876872 
   60600    241.59854   -516.22917    204420.41   -23185.457     1753.588   -24939.045   -1301.3446    492.72397    95.083661    14.569317    27.854683 
   60800    243.09799   -476.09308    204420.41    -23093.77    1764.4715   -24858.241   -1148.9773    494.45434    95.083823    14.568961    27.835223 
   61000    242.95386   -334.18331    204420.41   -23194.969    1763.4253   -24958.395   -637.66759    497.00578    95.083743    14.564806    27.838483 
   61200    249.23545    -333.8753    204420.41   -23190.528    1809.0188   -24999.547   -634.01044    497.33449    95.083078     14.56188    27.863254 
   61400    240.30828   -102.66406    204420.41   -23181.765     1744.223   -24925.988     125.0216    498.92687    95.084813    14.564424    27.855271 
   61600    240.16702   -320.61586    204420.41   -23260.458    1743.1977   -25003.656   -606.35749    498.97435    95.083493    14.566784     27.86032 
   61800    229.71513   -169.07443    204420.41   -23301.763     1667.335   -24969.098   -70.824742    497.84039    95.085214    14.566166    27.863464 
   62000    232.97139   -421.41489    204420.41   -23206.262    1690.9699   -24897.232    -982.4322     499.6076    95.085043    14.565749    27.878766 
   62200    245.20395   -310.71782    204420.41    -23199.51    1779.7571   -24979.267   -551.02321    501.30958    95.085035    14.567691    27.859474 
   62400    235.89356    -242.1662    204420.41    -23225.68    1712.1797    -24937.86   -321.13064    501.14061    95.084542    14.565021    27.864832 
   62600    239.06475   -465.13238    204420.41   -23255.736    1735.1971   -24990.933     -1096.36    504.89503    95.085532    14.563318    27.861471 
   62800    233.29603   -441.69735    204420.41   -23327.716    1693.3261   -25021.042   -1034.9721    507.26858    95.086797    14.563202     27.85764 
   63000    240.95346   -415.13751    204420.41   -23251.804    1748.9058    -25000.71   -899.82422    506.54412    95.086574    14.562031    27.857741 
   63200    243.67935   -453.32248    204420.41   -23304.592    1768.6911   -25073.283   -1077.8196    508.21474    95.085164     14.56308    27.848875 
   63400    237.80983   -225.62375    204420.41   -23310.992    1726.0886    -25037.08   -265.71424    509.05855    95.084396    14.561919    27.845293 
   63600    239.41924   -379.30455    204420.41   -23300.666    1737.7701   -25038.436   -855.95878    511.83054    95.086148    14.558877     27.84582 
   63800    238.71185   -241.09665    204420.41   -23348.195    1732.6356   -25080.831   -336.17102    514.93458    95.088543     14.55754    27.838446 
   64000    242.24472   -388.27184    204420.41   -23228.445    1758.2782   -24986.723   -836.40489    516.82763    95.087685    14.558125     27.84315 
   64200    241.65813   -363.68089    204420.41   -23231.417    1754.0206   -24985.437   -736.42963    518.66551    95.088722    14.558912    27.846563 
   64400    237.45043   -358.07436    204420.41   -23266.604    1723.4799   -24990.084   -749.59639    518.22869    95.088353    14.557971    27.883653 
   64600    239.21911   -406.72121    204420.41    -23251.84    1736.3175   -24988.158   -892.01088    521.62742    95.087654    14.555685    27.887091 
   64800    236.91104   -473.39265    204420.41   -23248.838    1719.5649   -24968.402   -1142.4305    522.46579    95.088085    14.552921    27.887253 
   65000    243.42712   -201.01994    204420.41   -23137.071    1766.8603   -24903.932   -210.36269     523.3526    95.087836    14.549429    27.867938 
   65200    238.43257   -344.23465    204420.41   -23205.483    1730.6086   -24936.091   -679.09579    524.87738    95.087425    14.550437    27.874651 
   65400    235.20627   -301.58371    204420.41   -23205.065    1707.1912   -24912.256   -533.49415    527.09157    95.088863    14.550848    27.872737 
   65600    236.59824   -349.36837    204420.41   -23099.062    1717.2945   -24816.357   -686.66529     528.5906    95.088264    14.552375    27.866141 
   65800    242.24001   -406.75769    204420.41   -23127.979     1758.244   -24886.223   -881.02885    526.92649    95.085485    14.551737    27.878462 
   66000    235.67263   -278.55982    204420.41   -23122.288    1710.5762   -24832.864   -418.64222    526.34513    95.086125    14.555636    27.887374 
   66200    237.08444   -253.13972    204420.41   -23187.972    1720.8235   -24908.795   -379.45064    528.13002    95.084833    14.553515    27.890407 
   66400    240.52629   -241.67655    204420.41   -23201.805    1745.8053   -24947.611   -367.06667    528.96388    95.085479    14.554345    27.887705 
   66600    236.86168   -413.20316    204420.41   -23270.451    1719.2066   -24989.657   -941.76179    530.34136    95.085936    14.552279     27.88357 
   66800    230.71446   -340.36933    204420.41   -23256.803    1674.5884   -24931.392   -684.68756    531.82706    95.085994    14.548088    27.900307 
   67000    230.72785    -434.6711    204420.41    -23330.95    1674.6856   -25005.635    -1027.114    533.36252    95.086929    14.547629     27.90582 
   67200    234.32832   -443.05349    204420.41   -23266.993    1700.8188   -24967.812    -1034.883    531.61576    95.087992     14.54732    27.910763 
   67400    239.89363   -241.83256    204420.41   -23243.352    1741.2134   -24984.566   -292.96594    530.13314     95.08782    14.549597    27.899781 
   67600     240.2558   -466.48171    204420.41   -23221.319    1743.8421   -24965.161    -1093.775    530.88022    95.089091    14.554627    27.889944 
   67800    239.17266   -373.21285    204420.41   -23214.996    1735.9803   -24950.977   -775.73559    529.11169    95.089414    14.556881    27.903226 
   68000    240.72936   -412.69806    204420.41   -23292.652    1747.2793   -25039.931   -931.67328    529.02247    95.087933    14.557149    27.869768 
   68200    244.26022   -252.21265    204420.41   -23269.422    1772.9072   -25042.329   -345.65355    526.40574    95.090115    14.556546    27.865596 
   68400    238.14107   -277.12167    204420.41    -23196.49    1728.4928   -24924.982   -397.65757    526.35135    95.092467    14.557399    27.863407 
   68600    235.67118   -164.00777    204420.41   -23215.796    1710.5656   -24926.361   -74.924396     526.6789    95.093409    14.556496    27.850738 
   68800    243.68493   -321.53045    204420.41   -23182.143    1768.7316   -24950.875    -629.4495    528.17278    95.096115    14.557691    27.829179 
   69000    244.92029   -335.49698    204420.41    -23195.81    1777.6982   -24973.508   -666.92861    530.92225    95.097085    14.559289    27.837208 
   69200    237.58025   -206.59682    204420.41   -23306.252    1724.4222   -25030.674    -205.8223    532.12134    95.097863    14.558056    27.848602 
   69400    232.97388   -559.13473    204420.41   -23304.185    1690.9879   -24995.173   -1422.3231     532.9664    95.097844    14.559311    27.839015 
   69600     243.2102   -322.09597    204420.41   -23131.341    1765.2859   -24896.627   -590.12028    533.30304    95.097426     14.56062     27.83627 
   69800    240.35007   -248.91325    204420.41   -23167.812    1744.5263   -24912.338   -354.04856    535.06441    95.096891    14.563015    27.817826 
   70000    236.60932   -329.09704    204420.41   -23219.223    1717.3749   -24936.598   -630.01318    538.13372    95.095774    14.561527     27.82429 
   70200    245.38371   -280.08496    204420.41    -23157.97    1781.0619   -24939.031   -435.77118    536.87611     95.09605    14.560093    27.824224 
   70400    244.55963   -396.54153    204420.41   -23180.889    1775.0804   -24955.969    -860.6531     536.0699     95.09515    14.560414     27.83238 
   70600     241.2049   -351.13752    204420.41   -23221.268    1750.7309   -24971.999   -737.14334    538.21564    95.095812     14.56229    27.814573 
   70800    244.41132   -246.88926    204420.41   -23218.362     1774.004   -24992.366   -405.31744    537.17158    95.097179    14.567003    27.834728 
   71000    239.94778   -359.18328    204420.41   -23250.683    1741.6064   -24992.289   -736.37055    537.46119    95.098192    14.570723    27.843307 
   71200    240.13505   -399.79969    204420.41   -23252.726    1742.9656   -24995.692   -871.90694    540.98801    95.098957    14.570042    27.832184 
   71400     238.7521   -415.73262    204420.41   -23272.989    1732.9278   -25005.917   -914.69784    539.65165    95.098335    14.567965     27.84575 
   71600    240.20928   -284.98752    204420.41   -23192.317    1743.5044   -24935.821   -489.57662    538.05222    95.097911    14.566533    27.863304 
   71800     229.3642   -308.47982    204420.41   -23277.636    1664.7879   -24942.424   -554.82713    543.07006    95.097274    14.566043    27.866647 
   72000    238.81855   -175.95249    204420.41   -23271.529    1733.4101   -25004.939   -75.273962    544.91608    95.097833    14.567539    27.896055 
   72200    247.09762   -234.86338    204420.41    -23146.93    1793.5018   -24940.432   -300.37021    546.91182     95.09769    14.567919    27.895898 
   72400    238.37616    -482.0807    204420.41   -23166.934    1730.1991   -24897.133   -1141.5575    548.39594     95.10029    14.566112    27.898872 
   72600    243.37018   -164.15274    204420.41   -23202.244    1766.4471   -24968.691   -25.331738    549.91934    95.101122    14.565633    27.889509 
   72800    237.07717   -147.02253    204420.41   -23268.417    1720.7707   -24989.188     8.251963    551.84413    95.098678    14.562856     27.87694 
   73000     240.5434   -441.09893    204420.41   -23282.193    1745.9296   -25028.122   -1016.2016    556.65626    95.098882    14.563002     27.87971 
   73200    238.41695   -442.22968    204420.41   -23203.311    1730.4951   -24933.806   -1004.1918    558.61275    95.100775    14.562027    27.910296 
   73400     243.5434   -412.93345    204420.41   -23171.976    1767.7043    -24939.68   -907.28847    561.94449    95.100817    14.558655    27.924334 
   73600     243.7616    -296.0121    204420.41   -23233.948    1769.2881   -25003.236   -505.52222    560.25512    95.101321    14.555057    27.926838 
   73800    233.01655   -288.03095    204420.41   -23295.751    1691.2976   -24987.048   -480.38882    560.36642    95.101279    14.555136    27.943143 
   74000    234.20721   -427.77087    204420.41    -23273.86    1699.9397   -24973.799   -962.09639    561.36669    95.100468    14.553178     27.93472 
   74200    247.00414   -321.09682    204420.41   -23214.184    1792.8233   -25007.008   -621.08144    563.35078    95.101203    14.551599    27.958527 
   74400    241.09108   -446.76472    204420.41   -23220.448    1749.9047   -24970.353   -1030.7704    564.95255    95.101371    14.549122    27.959661 
   74600    242.69525   -401.88719    204420.41   -23246.386    1761.5482   -25007.934   -900.18373    567.84956    95.099659    14.548353     27.96911 
   74800    234.47245   -264.47325    204420.41   -23218.866    1701.8649   -24920.731   -388.09996    568.49676    95.098583    14.545798    27.970155 
   75000    239.77727   -354.50339    204420.41   -23203.006    1740.3687   -24943.375   -703.40188     570.2526    95.098652    14.548047    27.984985 
   75200     247.9612   -369.76564    204420.41    -23150.94      1799.77    -24950.71   -741.77073    574.95048    95.099082    14.548456    27.987025 
   75400    233.68912   -308.83036    204420.41   -23266.042    1696.1793   -24962.221   -559.66811    574.18492    95.098474    14.553051    27.982753 
   75600    247.13974   -371.57344    204420.41   -23236.239    1793.8076   -25030.047   -754.63732    575.79324    95.098078    14.551042    28.003469 
   75800    244.43528   -473.50438    204420.41   -23170.892    1774.1779    -24945.07   -1138.4443    578.06529    95.096176    14.550873     28.01883 
   76000    241.80487     -240.348    204420.41   -23118.414    1755.0856     -24873.5   -341.36387     578.1582    95.095656    14.549467    28.025226 
   76200     232.9004   -303.50547    204420.41   -23227.689    1690.4546   -24918.144   -528.79995    580.86656     95.09547    14.548967    28.021927 
   76400    239.47962   -203.16056    204420.41   -23271.884    1738.2083   -25010.092   -210.07074    580.61227    95.094765    14.547503    28.007285 
   76600    243.32879   -224.12424    204420.41   -23251.853    1766.1466   -25017.999   -221.77311    584.11175    95.094379    14.546409    27.999227 
   76800    239.62735   -512.23722    204420.41   -23230.853    1739.2806   -24970.134   -1283.5194    588.69491    95.094789    14.546623    27.985443 
   77000    241.10033   -269.02537    204420.41   -23248.369    1749.9719   -24998.341   -397.75293    590.63127    95.096767     14.54673    27.995731 
   77200     249.5848    -312.0901    204420.41   -23226.527    1811.5545   -25038.081   -577.67969    591.23973    95.098279    14.544388    27.971828 
   77400    238.41585   -477.60838    204420.41   -23199.569    1730.4872   -24930.057   -1125.2314    593.52312    95.097462    14.542635    27.972242 
   77600    241.66142   -462.64281    204420.41   -23227.102    1754.0445   -24981.147   -1079.8863    596.23715    95.095288    14.539466     27.98665 
   77800     241.0089   -152.63737    204420.41    -23268.79    1749.3083   -25018.098   -32.168625    597.06101    95.094828    14.538039    27.987869 
   78000    244.64571   -371.62421    204420.41   -23273.723    1775.7052   -25049.429   -757.52737    599.59289    95.094188    14.538474    28.007984 
   78200    243.84796   -374.03067    204420.41   -23311.043    1769.9149   -25080.958   -789.03973    599.32585    95.091191    14.534885    28.028649 
   78400    245.06364   -371.81351    204420.41   -23256.252    1778.7386    -25034.99   -795.51188    599.06134    95.089836    14.535237    28.021398 
   78600    236.98734   -263.18587    204420.41   -23257.118    1720.1187   -24977.237   -376.75424    597.50601    95.087487    14.536309    27.989818 
   78800    239.46398   -387.90445    204420.41   -23197.965    1738.0948    -24936.06   -897.52897    598.62975     95.08877    14.537211    28.000047 
   79000    242.56285   -439.05898    204420.41   -23223.579    1760.5873   -24984.166   -1011.2726    597.69097    95.087671    14.538087    28.003729 
   79200    247.36167   -287.14887    204420.41   -23188.472    1795.4184    -24983.89   -491.10918    598.48289    95.089283    14.538599     27.99624 
   79400    241.25593   -418.82555    204420.41    -23153.98    1751.1013   -24905.081   -931.42023    604.11291    95.089445    14.539908    28.021978 
   79600    236.20254   -290.77795    204420.41   -23265.091    1714.4224   -24979.513   -504.55804    602.64276    95.087718    14.542228    28.019374 
   79800    235.08187   -412.70102    204420.41   -23229.553    1706.2883   -24935.841   -899.44131    602.49411    95.088218    14.542559    27.995667 
   80000    236.83029   -374.53926    204420.41   -23245.762    1718.9788   -24964.741    -800.4051    602.70684     95.08875    14.544498    28.000125 
   80200    237.27259   -206.78497    204420.41   -23267.823    1722.1891   -24990.012   -257.25769    602.93617    95.089087    14.546294    27.981226 
   80400    238.86949   -335.59494    204420.41   -23310.641    1733.7799    -25044.42   -689.48755    604.79353    95.089188    14.546623    27.994299 
   80600    238.02123   -360.84448    204420.41    -23306.53     1727.623   -25034.153   -774.02074    607.79183    95.089229    14.545788    27.990658 
   80800    244.34136   -343.44854    204420.41   -23256.356    1773.4961   -25029.852   -666.11564     608.1897    95.089211    14.547664    28.003796 
   81000    239.10921   -415.93985    204420.41   -23252.804    1735.5198   -24988.324   -953.65425    611.16083      95.0887    14.545567    27.984569 
   81200    236.42997   -374.10199    204420.41   -23203.651    1716.0731   -24919.724   -800.95637     611.1418    95.088292    14.547974    27.952361 
   81400    245.24272   -475.21835    204420.41   -23169.181    1780.0385    -24949.22   -1145.0243    614.51952    95.089398    14.546049    27.941408 
   81600    233.66471   -223.40501    204420.41   -23265.631    1696.0021   -24961.633   -237.81373    612.70536    95.089036    14.543233    27.955489 
   81800    230.92006   -116.85746    204420.41   -23286.448    1676.0807   -24962.529    128.89824    616.75547    95.087618    14.541099    27.947232 
   82000    239.47736   -481.32959    204420.41   -23226.503    1738.1919   -24964.695   -1187.6544    619.26591    95.088511    14.542541    27.951591 
   82200    245.65622   -329.21421    204420.41   -23186.054    1783.0398   -24969.094   -622.41921    620.07156    95.090274    14.542096    27.955693 
   82400    246.53693    -400.0457    204420.41   -23219.161    1789.4322   -25008.593   -874.12503    621.26603    95.089013    14.541098     27.96249 
   82600    248.07453   -408.34134    204420.41   -23151.506    1800.5925   -24952.099   -881.47475    623.87601    95.089925    14.538471    27.973684 
   82800    239.36353   -230.62484    204420.41   -23266.915    1737.3657    -25004.28   -262.61527    624.47053    95.091159    14.539075    27.973002 
   83000    242.70901   -446.14693    204420.41   -23159.656    1761.6481   -24921.304   -1027.2158    626.54586      95.0898    14.537502    27.976281 
   83200    243.18121    -454.4024    204420.41   -23190.234    1765.0755    -24955.31   -1049.9592    629.51065    95.088894    14.537904    27.980751 
   83400    243.43046   -324.07417    204420.41   -23167.031    1766.8846   -24933.915   -617.14727    631.89587    95.089387    14.536164    27.984684 
   83600    227.47092    -345.3809    204420.41   -23304.874    1651.0459    -24955.92   -663.86243    632.37616     95.08841    14.533249    27.969159 
   83800    241.54758   -414.34172    204420.41   -23266.174    1753.2182   -25019.392   -932.86514    633.55388    95.088465    14.532667    27.986673 
   84000    237.16679   -280.61694    204420.41   -23239.014    1721.4212   -24960.436   -424.29533    632.63672    95.088771    14.533724    27.984902 
   84200    243.98051    -448.0493    204420.41   -23205.929     1770.877   -24976.806   -1008.9753    635.02212    95.088939     14.53658    27.981012 
   84400    236.17462   -292.10932    204420.41   -23262.308    1714.2197   -24976.528   -458.01077    634.08818    95.090396    14.535197    27.989845 
   84600    236.40323   -373.96323    204420.41   -23185.904     1715.879   -24901.783   -769.21839     634.3677    95.090661    14.533519    27.986641 
   84800    234.67484   -345.58922    204420.41   -23212.294    1703.3339   -24915.628   -650.21539    635.03563    95.090441    14.532565    27.981403 
   85000    246.09228   -350.28793    204420.41   -23169.328    1786.2048   -24955.533   -692.50438    637.22522    95.089808    14.530013    27.998183 
   85200    240.70212   -376.01468    204420.41   -23151.623    1747.0816   -24898.705   -799.23857    638.36867    95.088742    14.529426    27.986577 
   85400    231.29434   -236.51815    204420.41   -23283.629    1678.7973   -24962.427   -302.55478    637.08777    95.087917    14.529516    27.991089 
   85600    237.61247   -362.18966    204420.41   -23213.129     1724.656   -24937.785   -741.05863    638.78028    95.087636    14.529356    27.973256 
   85800    238.10446   -438.90812    204420.41   -23266.913     1728.227    -24995.14   -998.96927    641.43901    95.087875     14.53039    27.943075 
   86000    244.94579   -374.97227    204420.41   -23234.189    1777.8833   -25012.072   -760.61257    643.54331    95.087216    14.529368    27.948084 
   86200     242.5737   -274.20218    204420.41   -23191.406     1760.666   -24952.072   -439.47351    643.86756    95.087287    14.529645    27.952045 
   86400    237.79081     -366.518    204420.41   -23266.265    1725.9505   -24992.215   -766.90935    648.25067    95.088185    14.529369    27.942015 
   86600    242.78845   -476.06906    204420.41   -23163.351    1762.2247   -24925.575   -1144.1347    646.74597    95.088452    14.528648    27.954541 
   86800     235.1142   -321.53891    204420.41   -23199.904     1706.523   -24906.427   -636.11287    645.17683    95.089172    14.529147    27.941959 
   87000    242.61992   -160.41169    204420.41   -23169.413    1761.0015   -24930.414   -42.047355    646.28714    95.087996    14.526402    27.944315 
   87200    244.86158    -358.0829    204420.41   -23141.709    1777.2721   -24918.981   -700.61754    648.48585    95.087718    14.522522    27.966102 
   87400    236.83957   -308.36064    204420.41   -23242.659    1719.0461   -24961.705   -533.24307    648.34107    95.088448    14.522534    27.972837 
   87600    242.00831   -460.12696    204420.41   -23104.695    1756.5623   -24861.257   -1035.4452    654.75387    95.089675    14.521138    27.985016 
   87800    243.48545     -376.426    204420.41   -23160.975    1767.2837   -24928.259   -792.90425    656.31356    95.089925    14.519716     27.99115 
   88000    244.36337   -278.88057    204420.41   -23261.313    1773.6559   -25034.969   -448.81041    656.38451    95.090224     14.52054    27.984867 
   88200     238.8209   -209.83493    204420.41   -23307.311    1733.4272   -25040.739   -246.42127    656.11916     95.08822    14.523535    27.990262 
   88400    239.97393   -420.56068    204420.41   -23228.098    1741.7962   -24969.894   -945.49363    656.61569     95.08882    14.526119    28.012092 
   88600    238.91472   -240.38578    204420.41   -23268.165    1734.1081   -25002.273   -302.42608    655.16002    95.089528    14.524381    28.001222 
   88800    233.34587    -396.8901    204420.41   -23263.593    1693.6879   -24957.281   -884.88011    658.04944    95.090377    14.526423    27.990795 
   89000    238.64137    -337.6599    204420.41   -23228.205    1732.1241    -24960.33   -628.10886    659.61468    95.089215    14.527623    27.979299 
   89200    239.86614   -253.26612    204420.41   -23235.733    1741.0138   -24976.746   -373.47528    661.97712    95.088935    14.528154    27.969758 
   89400    245.45639   -471.23588    204420.41   -23186.463    1781.5894   -24968.052   -1131.2085    663.51027    95.090256    14.528328    27.989956 
   89600    231.43316   -194.81508    204420.41   -23305.615    1679.8049    -24985.42   -124.17706    662.73144    95.092173    14.530386    27.985747 
   89800    237.81988   -341.90306    204420.41    -23186.98    1726.1615   -24913.141   -647.16379    664.95185    95.092278    14.534032     27.95725 
   90000    234.73279   -177.73884    204420.41   -23177.626    1703.7546   -24881.381   -55.101827    665.10009    95.094623     14.53416    27.939128 
   90200    235.00701   -305.98463    204420.41   -23261.213    1705.7449   -24966.958   -536.17956     664.9291    95.096676    14.535188    27.921024 
   90400    241.09456   -274.92189    204420.41   -23228.836      1749.93   -24978.767   -502.16687    664.45975    95.097462    14.537057    27.937482 
   90600    240.88081     -371.255    204420.41   -23245.474    1748.3785   -24993.853    -780.0805    666.49578    95.098504    14.537846    27.931752 
   90800    238.65816   -435.21823    204420.41   -23232.284    1732.2459   -24964.529   -1006.1123    668.87281    95.098732    14.537237    27.932047 
   91000     239.8774   -284.24249    204420.41   -23308.974    1741.0955    -25050.07   -475.47276    673.25584    95.099837    14.537735    27.940036 
   91200    234.27698   -390.42728    204420.41   -23380.252    1700.4462   -25080.698   -863.58371    677.15441    95.102651    14.536987    27.930049 
   91400    235.85707   -399.06514    204420.41   -23309.293    1711.9149   -25021.208   -885.93157    679.73833    95.102516    14.539478     27.92944 
   91600    245.65919   -66.977826    204420.41   -23208.801    1783.0614   -24991.862     308.7751    680.00323    95.101902     14.54034    27.892637 
   91800    243.84929   -271.84278    204420.41   -23265.386    1769.9246    -25035.31   -400.54564    684.25023    95.102288    14.543213    27.895459 
   92000     237.6432   -157.39857    204420.41   -23273.167    1724.8791   -24998.046   -38.058968    683.98298    95.103026    14.544109    27.899052 
   92200    240.22168   -445.89113    204420.41   -23318.841    1743.5944   -25062.435    -1019.905    685.17151    95.103201    14.546175    27.899022 
   92400    240.79499   -377.19737    204420.41    -23308.03    1747.7556   -25055.785   -767.86447    686.46513    95.103976    14.544412    27.923505 
   92600    244.69211    -408.3667    204420.41   -23226.527     1776.042   -25002.569   -900.30652    684.91396    95.105491    14.544015     27.92262 
   92800    238.90234   -307.85908    204420.41   -23306.944    1734.0183   -25040.962   -544.21479     687.6129    95.105054    14.544694    27.931112 
   93000    237.87631   -242.26288    204420.41   -23318.899     1726.571    -25045.47   -352.82855    686.94289     95.10654    14.547502    27.926065 
   93200    240.78243   -307.00727    204420.41   -23304.097    1747.6645   -25051.761   -580.49387    688.56475    95.105974    14.548644    27.930482 
   93400    235.71735   -375.22736    204420.41   -23360.693    1710.9008   -25071.594    -780.3987    687.25091    95.106035    14.551578    27.927262 
   93600    240.90013   -205.50709    204420.41    -23283.32    1748.5188   -25031.839   -219.51044    687.34753     95.10709    14.553995    27.931441 
   93800     231.6652   -518.15804    204420.41   -23290.934    1681.4891   -24972.423   -1277.4066    692.43777    95.107242    14.555456    27.950874 
   94000    238.80152    -285.9378    204420.41   -23351.941    1733.2865   -25085.228   -542.50957    693.42614     95.10453    14.555717    27.979311 
   94200      245.767   -145.62422    204420.41    -23217.89    1783.8438   -25001.734   -29.086657    695.46012    95.105189    14.556932     27.96523 
   94400    234.73733   -145.35386    204420.41   -23218.847    1703.7875   -24922.634   -7.2800668    699.17858    95.103797    14.558224    27.940787 
   94600    237.64583   -259.66626    204420.41   -23195.006    1724.8982   -24919.904   -384.88233    699.37123    95.103987    14.559661    27.938256 
   94800    242.94347   -285.34368    204420.41   -23220.695    1763.3499   -24984.045   -486.73438    697.95671    95.103547     14.56022    27.951482 
   95000     234.9166   -448.90411    204420.41   -23266.432    1705.0887    -24971.52   -1020.1542    695.73372    95.104985     14.56032    27.942317 
   95200    232.37571   -260.22384    204420.41   -23246.496    1686.6462   -24933.142   -404.04393    695.95807    95.105704    14.562338    27.949582 
   95400    235.82609   -470.87739    204420.41   -23216.461      1711.69   -24928.151   -1114.9999    697.20557    95.105685    14.559352     27.95451 
   95600     236.7023   -457.13302    204420.41   -23206.793    1718.0498   -24924.843   -1042.5874    694.72314    95.105777    14.554243    27.935919 
   95800    238.76386   -413.47578    204420.41   -23219.262    1733.0131   -24952.275   -921.37738    699.09719    95.105513    14.554848    27.940685 
   96000    239.06585   -290.83821    204420.41   -23209.396    1735.2051   -24944.601   -481.94639    702.29519     95.10459    14.555199    27.908081 
   96200    244.42421    -205.7334    204420.41   -23167.501    1774.0975   -24941.599   -206.69899    704.46203    95.104832    14.551816    27.915377 
   96400    239.74319   -456.18821    204420.41   -23235.586    1740.1214   -24975.707   -1048.6144    707.44217     95.10354     14.54736    27.923584 
   96600    234.80205   -187.21066    204420.41   -23270.422    1704.2572   -24974.679   -138.71931    704.26418    95.103535    14.545073    27.928915 
   96800    235.79839   -381.58977    204420.41   -23245.824     1711.489   -24957.313    -815.2624    703.53817    95.103868    14.542319    27.929491 
   97000    241.68576   -295.87639    204420.41   -23264.504    1754.2211   -25018.726    -515.1908    703.71102    95.105148    14.541685    27.929492 
   97200    240.63848   -412.76143    204420.41   -23277.587    1746.6196   -25024.207   -956.58423    704.98715    95.104423    14.540753    27.933529 
   97400      232.684   -491.41307    204420.41   -23229.965    1688.8839   -24918.849   -1221.3805    703.74991    95.104972    14.540674    27.933972 
   97600    239.63667   -116.33617    204420.41   -23207.646    1739.3483   -24946.995    116.16053    699.43349    95.104745    14.540533    27.933511 
   97800    238.98254   -357.06206    204420.41   -23195.726    1734.6004   -24930.327   -730.23771    703.26161    95.104366    14.542781    27.915392 
   98000    236.36368   -155.18394    204420.41   -23217.217     1715.592   -24932.809   -17.697778    704.78773    95.103509    14.542203    27.894733 
   98200    238.84967   -262.66151    204420.41   -23266.138     1733.636   -24999.774   -370.41447    710.28023    95.103108    14.541298    27.882649 
   98400     243.8124   -446.83117    204420.41     -23168.8    1769.6568   -24938.456   -1080.6042    711.87447    95.103844    14.540895    27.869585 
   98600      240.227   -414.23889    204420.41   -23205.104     1743.633   -24948.737   -948.41851    712.34108    95.104903    14.539396    27.879242 
   98800    236.74505   -145.50097    204420.41   -23209.494    1718.3601   -24927.854    21.852936    711.59292    95.102936    14.536953    27.904923 
   99000    242.05621   -177.53483    204420.41   -23267.993    1756.9099   -25024.903   -127.21791    710.71269    95.101341    14.536036    27.893996 
   99200    239.42438   -420.76063    204420.41   -23212.304    1737.8074   -24950.111   -966.76719    714.07944    95.100128    14.536444    27.876267 
   99400    240.80086   -344.75224    204420.41   -23216.302    1747.7983     -24964.1   -688.17627    713.31003    95.099663    14.538785    27.882711 
   99600    242.68895   -226.05473    204420.41   -23209.709    1761.5025   -24971.212   -269.58662    714.83996    95.098874    14.540373     27.88337 
   99800    238.35636   -408.04361    204420.41   -23226.913    1730.0554   -24956.968   -947.63971    715.83182    95.099065    14.539341    27.870076 
  100000    243.40968    -377.6557    204420.41   -23248.446    1766.7337    -25015.18   -801.54703    718.72417    95.100042    14.540933    27.856924 
  100200    234.71073   -560.53775    204420.41   -23288.218    1703.5944   -24991.812   -1418.2433    720.80876    95.100189     14.54485    27.865365 
  100400    239.32293   -234.90408    204420.41   -23218.031    1737.0711   -24955.102   -270.56139     718.8079    95.099007    14.544482    27.884021 
  100600    241.63348   -155.23834    204420.41   -23225.924    1753.8416   -24979.766   -26.971392     721.1294    95.099902    14.541821    27.893716 
  100800      240.368   -277.38195    204420.41   -23264.465    1744.6564   -25009.121    -464.7861    721.18371    95.102467    14.541289    27.890978 
[...]
 5175800    227.98869   -656.17356    204420.41   -25478.407     1654.804   -27133.211   -1727.9328    9011.7928    95.733452    13.756697    27.575121 
 5176000    224.47772   -407.75522    204420.41   -25495.425    1629.3204   -27124.746   -891.09254    9001.3678    95.733413    13.756105    27.577511 
 5176200    228.03089   -660.68634    204420.41   -25510.327    1655.1103   -27165.438   -1753.1203    9008.1546    95.732525    13.756593    27.570229 
 5176400    227.52929   -529.92024    204420.41   -25445.992    1651.4696   -27097.461   -1330.4734    9002.4188    95.732689    13.757162    27.590476 
 5176600    228.10126   -413.01932    204420.41   -25386.773    1655.6211   -27042.394   -878.96548     9002.881    95.731855    13.757308    27.584489 
 5176800    227.89165   -568.19487    204420.41   -25432.945    1654.0997   -27087.045   -1437.6622    9011.1716    95.732127    13.758046    27.602015 
 5177000    226.16395   -456.93182    204420.41   -25415.011    1641.5596   -27056.571   -1029.1869    8998.7567     95.73276    13.757167    27.591266 
 5177200    233.00426   -708.66037    204420.41    -25372.43    1691.2084   -27063.639   -1913.8242    9008.2727    95.732878    13.757318    27.594529 
 5177400    228.85587   -354.07787    204420.41   -25332.296    1661.0983   -26993.394   -705.06934    8994.3762    95.732416    13.756846    27.584514 
 5177600    232.40905   -731.90876    204420.41   -25438.958    1686.8882   -27125.846   -1990.9497    9009.9837    95.732779    13.757821    27.588659 
 5177800    228.46744   -508.91915    204420.41   -25474.637     1658.279   -27132.916   -1234.2857    9003.8171    95.732772    13.757355    27.582905 
 5178000    225.34886    -625.8495    204420.41   -25472.833    1635.6434   -27108.476   -1596.1435    9006.9423     95.73362    13.756644    27.586925 
 5178200    228.66194   -569.72172    204420.41   -25454.793    1659.6906   -27114.484   -1447.5332    8998.6284    95.734171    13.756973    27.584661 
 5178400    227.01379    -453.3377    204420.41   -25470.431    1647.7279   -27118.159   -1039.1074    9001.6615    95.734021    13.756489    27.595696 
 5178600    227.80481   -630.84435    204420.41   -25427.485    1653.4694   -27080.954   -1622.9842    9010.7682    95.734415    13.756233    27.600711 
 5178800    228.46455   -425.82075    204420.41   -25433.137     1658.258   -27091.395   -911.71501    9003.0084    95.734963    13.755796    27.583894 
 5179000    226.70078   -633.80759    204420.41    -25459.91     1645.456   -27105.366   -1620.4236    9009.4976    95.735225     13.75547    27.585776 
 5179200    227.98597   -596.62257    204420.41   -25459.768    1654.7843   -27114.553   -1510.3549    9001.1059    95.735788    13.756027    27.575521 
 5179400     228.2267   -507.22153    204420.41   -25398.902    1656.5315   -27055.434   -1227.7694    9002.2381    95.737227    13.755766    27.600768 
 5179600    228.28628   -642.53592    204420.41   -25465.489     1656.964   -27122.453   -1724.9181    9007.5491    95.737282     13.75597    27.599568 
 5179800    230.33465   -537.59877    204420.41   -25453.155    1671.8316   -27124.987   -1321.3997    9004.8054    95.737422    13.756019    27.584957 
 5180000     220.6189   -634.69902    204420.41   -25539.941    1601.3121   -27141.253   -1670.5653    9003.5007    95.737094    13.755223    27.586155 
 5180200    222.89536   -521.40927    204420.41   -25514.004    1617.8352    -27131.84   -1280.9646    8996.3368    95.737748    13.754954    27.581873 
 5180400    228.30643   -580.08525    204420.41   -25438.971    1657.1102   -27096.081   -1465.3395    9005.4861    95.738772    13.754652    27.596511 
 5180600    223.35488   -504.38495    204420.41   -25438.097    1621.1706   -27059.267   -1195.0939    9004.2188    95.738192    13.754896    27.590306 
 5180800    227.56769   -631.15898    204420.41    -25469.32    1651.7483   -27121.068   -1600.7322    9010.8087      95.7382    13.754722    27.588149 
 5181000    227.42985   -552.40937    204420.41   -25516.416    1650.7478   -27167.163   -1393.9758    9001.6703    95.738627    13.754938    27.592117 
 5181200    228.07929   -502.56827    204420.41   -25494.509    1655.4616   -27149.971    -1206.403    8997.5025    95.738661    13.754939    27.582244 
 5181400    230.71846   -615.00253    204420.41   -25398.718    1674.6175   -27073.335   -1569.4456    9007.4254    95.739168    13.755453     27.58837 
 5181600    222.89611    -507.1222    204420.41   -25531.449    1617.8407    -27149.29   -1221.5036    9002.4879     95.73881     13.75394    27.585717 
 5181800    225.83046   -623.54726    204420.41   -25409.696     1639.139   -27048.835   -1603.2609    9009.0402    95.738461    13.753662    27.584413 
 5182000    224.74203   -426.15127    204420.41   -25426.712    1631.2389   -27057.951   -968.93378    8996.8375    95.738662    13.753824    27.585189 
 5182200    234.52339   -539.86028    204420.41    -25407.57    1702.2347   -27109.804   -1312.9513    9000.1893     95.73829     13.75412    27.578581 
 5182400    226.06085   -661.61793    204420.41   -25474.385    1640.8112   -27115.197    -1731.389    9004.6247    95.738383    13.754657    27.582266 
 5182600    229.96314   -472.53195    204420.41   -25452.698    1669.1351   -27121.833   -1109.7149    9000.6238    95.737763    13.755406    27.578908 
 5182800    229.62199   -795.79537    204420.41   -25421.708     1666.659   -27088.367   -2218.3531    9014.6695    95.738022    13.754925    27.583943 
 5183000    228.33734   -353.30112    204420.41   -25385.523    1657.3347   -27042.858   -684.02302    8991.6252    95.738657    13.754411    27.569308 
 5183200    231.01568   -828.52798    204420.41    -25406.29    1676.7748   -27083.065   -2318.0183    9005.8927    95.739985    13.754484    27.581672 
 5183400    221.08423   -405.29046    204420.41   -25530.008    1604.6896   -27134.698     -865.212    9001.3535    95.740393      13.7536    27.574303 
 5183600    222.41571   -565.80884    204420.41   -25518.155    1614.3538   -27132.509   -1421.8238    9006.4656    95.740583    13.754485    27.588536 
 5183800    224.47518   -635.05954    204420.41   -25478.977     1629.302   -27108.279   -1673.0311    9011.7139    95.740356     13.75406    27.574925 
 5184000    225.29757   -431.24268    204420.41   -25412.666    1635.2712   -27047.937   -965.27188    8992.5932    95.740876    13.754115    27.585272 
 5184200    226.59509    -787.9132    204420.41   -25414.775    1644.6889   -27059.464   -2208.7566    9004.4522    95.741093    13.754326    27.570507 
 5184400     233.1132   -445.60746    204420.41   -25393.721    1691.9991    -27085.72   -988.74032    9000.0837    95.741408    13.753793    27.553419 
 5184600    227.73957   -591.47105    204420.41   -25450.693    1652.9958   -27103.689   -1525.6307    9008.6838    95.741942    13.754057    27.561405 
 5184800    226.55532   -611.51013    204420.41   -25424.749    1644.4002   -27069.149   -1575.1492    9007.2539    95.742407    13.754275    27.565908 
 5185000    227.27603   -394.21851    204420.41   -25438.748    1649.6314   -27088.379   -835.93969    8996.6115    95.742645    13.754383      27.5776 
 5185200    222.24155   -678.35902    204420.41   -25508.043    1613.0897   -27121.133   -1804.8575    9004.2739    95.742199    13.755164    27.570677 
 5185400    226.46347   -448.80086    204420.41    -25444.79    1643.7336   -27088.523    -1037.231    9001.1645    95.742579     13.75465    27.574353 
 5185600     227.8335    -568.9435    204420.41   -25444.055    1653.6776   -27097.732    -1399.206    9009.5567     95.74254    13.754862    27.567831 
 5185800    229.98995   -550.12629    204420.41   -25405.564    1669.3297   -27074.893    -1386.175     9006.874    95.742473    13.755075    27.580797 
 5186000    230.17415   -527.26419    204420.41   -25422.913    1670.6667    -27093.58    -1308.494     8997.761     95.74196    13.756087    27.575328 
 5186200    230.62414   -699.80102    204420.41   -25393.509    1673.9328   -27067.442   -1908.3551    9004.5214    95.741632     13.75681    27.572594 
 5186400    229.64808    -430.8416    204420.41   -25439.851    1666.8483   -27106.699   -945.45159    8996.8284     95.74196     13.75561    27.566857 
 5186600    225.30355   -722.15148    204420.41   -25429.067    1635.3145   -27064.382   -1928.6536    9012.2627    95.741859    13.756693    27.565325 
 5186800    228.25359   -404.47873    204420.41   -25435.309    1656.7267   -27092.036   -848.95284    8999.7694     95.74158    13.757626    27.567583 
 5187000    230.73666   -696.60806    204420.41   -25406.229    1674.7496   -27080.979   -1852.7407     9005.704      95.7413    13.758033    27.585131 
 5187200    227.41589   -540.28792    204420.41   -25453.886    1650.6465   -27104.533   -1341.4627    8998.0567    95.741578    13.757665    27.580675 
 5187400    225.46981    -535.0171    204420.41    -25495.87    1636.5213   -27132.391   -1330.9558    9001.5646    95.741202    13.756663    27.585125 
 5187600    235.19454    -649.1195    204420.41   -25396.289    1707.1061   -27103.395   -1689.5134    9012.1783    95.741598    13.756311    27.569168 
 5187800    228.04706    -375.3356    204420.41   -25453.616    1655.2277   -27108.844   -764.21321    8996.7799     95.74252     13.75732    27.567806 
 5188000    232.70227   -648.12228    204420.41   -25396.656    1689.0165   -27085.673    -1679.463    9007.5159    95.743605    13.758018    27.588224 
 5188200    227.63438   -459.28237    204420.41    -25437.52    1652.2323   -27089.752    -1056.188    8996.0366    95.744225    13.759753    27.588496 
 5188400    226.07097   -593.51106    204420.41   -25425.923    1640.8847   -27066.808   -1505.1372    9003.1345    95.744895    13.758859    27.595973 
 5188600    224.32621   -692.32719    204420.41   -25455.341    1628.2207   -27083.562   -1906.0935    9007.4268    95.744864    13.758799    27.581546 
 5188800      224.711   -481.18228    204420.41   -25505.931    1631.0137   -27136.945   -1154.8546     8999.188     95.74577    13.759035     27.59156 
 5189000    228.99169   -681.38367    204420.41   -25445.005    1662.0841    -27107.09   -1811.3523    9006.2515    95.745977    13.758839    27.581582 
 5189200    219.70701   -407.05096    204420.41   -25549.386    1594.6933   -27144.079   -825.51629    8994.9587    95.746224    13.759328    27.584459 
 5189400    221.53689   -651.59192    204420.41   -25487.137    1607.9751   -27095.112   -1705.2734    9010.9059      95.7466    13.759279    27.586618 
 5189600    230.35612   -462.32501    204420.41   -25418.429    1671.9875   -27090.416   -1084.0595    9003.5608    95.746075    13.760338    27.579354 
 5189800    227.58317   -638.99507    204420.41    -25461.74    1651.8607     -27113.6    -1664.751    9006.9231    95.747494    13.760142    27.592113 
 5190000    221.91844   -483.48919    204420.41   -25458.837    1610.7445   -27069.582   -1120.2653    8996.9249    95.747933    13.760582    27.599333 
 5190200    223.05154   -481.05561    204420.41   -25481.877    1618.9689   -27100.846    -1119.602    8997.3977    95.747306    13.760901    27.593732 
 5190400    229.14088   -613.96575    204420.41   -25373.813    1663.1669    -27036.98   -1608.2309    9005.8488    95.746795    13.761218    27.593392 
 5190600    227.03086   -459.71277    204420.41   -25443.815    1647.8519   -27091.667   -1076.5677    9000.2727    95.746448    13.761983    27.590878 
 5190800    229.69523   -660.03108    204420.41   -25409.914    1667.1906   -27077.105   -1727.4922    9005.1799    95.746164    13.761568    27.590058 
 5191000    228.53752   -492.60285    204420.41   -25443.249    1658.7876   -27102.037   -1212.3527    8994.5395    95.746394    13.761933    27.585133 
 5191200    227.79855   -590.06327    204420.41   -25447.241    1653.4239   -27100.665   -1494.7663    9001.6854    95.746848    13.761644     27.57634 
 5191400    226.34749   -545.95002    204420.41   -25423.176    1642.8917   -27066.067   -1323.6682    9002.9767    95.747639    13.761581     27.56164 
 5191600    228.67935   -608.17804    204420.41   -25444.544    1659.8171   -27104.361   -1587.4122    9004.9332    95.748129    13.761935    27.565506 
 5191800    228.13745   -521.24975    204420.41    -25388.89    1655.8837   -27044.774   -1227.0047    9004.1036     95.74877    13.761544    27.556209 
 5192000    230.89624   -461.53584    204420.41    -25378.92    1675.9078   -27054.828   -1051.5452    8996.1398    95.748645    13.761549    27.552635 
 5192200    226.55178   -668.97919    204420.41    -25436.17    1644.3745   -27080.545   -1794.8758    9001.3405    95.749067    13.761138    27.566406 
 5192400    228.38252   -456.88117    204420.41   -25447.032    1657.6626   -27104.695   -1010.0059    9000.5451    95.749564    13.760596    27.576515 
 5192600    220.31539   -682.44607    204420.41   -25472.289    1599.1091   -27071.398   -1790.1301    9011.6579    95.749885    13.760108    27.579901 
 5192800    228.29789    -540.4424    204420.41    -25429.46    1657.0483   -27086.508   -1315.2389    9002.0337    95.750374    13.760472     27.57901 
 5193000    220.50248   -565.46748    204420.41   -25500.007    1600.4671   -27100.474   -1463.0206    8998.5869    95.750466    13.759335    27.565335 
 5193200    226.74837    -601.2765    204420.41   -25430.978    1645.8015    -27076.78   -1570.9234    9000.2075    95.749943    13.759839    27.566844 
 5193400    226.36971   -502.90501    204420.41   -25434.214     1643.053   -27077.267   -1162.7642    8999.6322    95.749879     13.76022    27.567908 
 5193600    229.75969   -673.24041    204420.41   -25409.932    1667.6585   -27077.591    -1766.287    9008.8614    95.749023    13.760217    27.579787 
 5193800    228.73726    -531.5424    204420.41   -25430.742    1660.2373    -27090.98    -1293.413    9002.3942    95.748806    13.760969    27.578381 
 5194000    218.24023   -539.96176    204420.41   -25542.521    1584.0471   -27126.568    -1326.952    9000.6499    95.749264    13.761113     27.56516 
 5194200    226.00368   -534.91272    204420.41   -25478.971    1640.3963   -27119.367   -1284.6819    8997.7687    95.749737    13.761714    27.556706 
 5194400    228.73058    -572.3139    204420.41   -25426.364    1660.1889   -27086.553   -1453.4767    9004.3928    95.750708    13.763243    27.555133 
 5194600    231.37069   -670.61645    204420.41   -25382.595    1679.3515   -27061.946   -1750.4876    9008.6206    95.751781    13.762598    27.562672 
 5194800    228.57058   -530.40043    204420.41   -25422.744    1659.0276   -27081.772   -1290.6404    9000.4756    95.752564    13.761882    27.560263 
 5195000    226.27723   -530.05274    204420.41   -25430.555    1642.3818   -27072.937   -1266.0164    8999.8586    95.752395    13.762583     27.56457 
 5195200       226.38   -613.40559    204420.41    -25421.42    1643.1277   -27064.548   -1577.4207    8998.6769    95.752497    13.762045    27.565273 
 5195400    226.11809   -584.33594    204420.41   -25434.047    1641.2267   -27075.274    -1501.472    9000.9858    95.752758    13.762779    27.564206 
 5195600    223.14868   -673.63012    204420.41   -25472.522    1619.6739   -27092.196   -1778.3923    9004.9574    95.752638    13.762491    27.558644 
 5195800    232.65548   -530.53089    204420.41   -25359.135    1688.6768   -27047.812   -1290.3975    9002.6813    95.752722    13.761587    27.569915 
 5196000     229.2382   -516.90325    204420.41   -25449.117    1663.8733    -27112.99   -1262.1788    8999.1708    95.752126    13.761132    27.578455 
 5196200    228.63926   -645.52053    204420.41   -25451.275     1659.526   -27110.801    -1690.997    9001.9729    95.751756    13.760794    27.564243 
 5196400    228.23525   -531.16721    204420.41   -25439.237    1656.5936   -27095.831   -1274.8578    9000.8091    95.751558    13.760743    27.562653 
 5196600    231.39905   -672.50562    204420.41   -25412.113    1679.5574   -27091.671   -1776.4274    9008.9715    95.751839    13.760475    27.575726 
 5196800    231.21458   -444.36981    204420.41   -25416.956    1678.2184   -27095.175   -965.53169    8999.9253    95.751558    13.760574    27.579082 
 5197000    229.73302   -647.76692    204420.41   -25380.691    1667.4648   -27048.156   -1728.7795    9003.4317    95.751046    13.761585    27.578047 
 5197200    225.63885   -636.25388    204420.41   -25457.701    1637.7483    -27095.45   -1682.3387    8998.2018    95.751564    13.761808    27.571818 
 5197400    225.17272   -458.60384    204420.41   -25453.557    1634.3649   -27087.922   -1053.4912    8999.4216     95.75072    13.762738    27.576704 
 5197600    227.63976   -640.86791    204420.41   -25486.424    1652.2714   -27138.695   -1705.5168    9008.5378    95.750515    13.762922    27.573552 
 5197800    228.00439   -502.62518    204420.41    -25526.58     1654.918   -27181.498   -1248.4278    8997.8663    95.751045    13.763173    27.566518 
 5198000    231.33771   -602.26435    204420.41   -25392.797    1679.1121   -27071.909   -1543.7166    8999.6075    95.751095     13.76445    27.569884 
 5198200    230.89895   -497.74028    204420.41   -25407.797    1675.9275   -27083.724   -1196.5922    9000.8126    95.751985    13.765937    27.554269 
 5198400    227.29409   -505.09558    204420.41   -25471.176    1649.7625   -27120.939   -1190.5102    9002.5271    95.752399    13.766543    27.560773 
 5198600     224.1109   -727.74367    204420.41   -25508.603     1626.658   -27135.261   -2020.8133    9009.2913    95.752664    13.767461    27.562053 
 5198800    226.66142   -464.00979    204420.41    -25429.55    1645.1703    -27074.72   -1047.9429    8998.0218    95.752352    13.768671    27.556417 
 5199000    226.85335   -749.68169    204420.41   -25379.698    1646.5634   -27026.262   -2020.8964    9007.2382     95.75249    13.769868    27.547185 
 5199200    228.03141   -525.64384    204420.41   -25439.427    1655.1141   -27094.541   -1279.1566    8999.7721    95.752085    13.771182    27.556328 
 5199400    226.60095   -545.93329    204420.41   -25429.691    1644.7314   -27074.422   -1341.9207    9004.3587    95.752372    13.770685    27.552132 
 5199600    224.73211   -638.04568    204420.41   -25412.554    1631.1669   -27043.721   -1699.6554    9007.6445    95.752298     13.77059    27.563019 
 5199800    228.55752   -570.28421    204420.41   -25447.329    1658.9327   -27106.262    -1459.652     8996.777    95.752462    13.771256    27.564692 
 5200000    229.52148   -688.03192    204420.41   -25392.723    1665.9295   -27058.652   -1850.4204    9010.1802    95.752577    13.771816    27.562437 
Loop time of 6560.04 on 160 procs for 5200000 steps with 8482 atoms

Performance: 684.874 ns/day, 0.035 hours/ns, 792.678 timesteps/s
98.0% CPU use with 160 MPI tasks x no OpenMP threads

MPI task timing breakdown:
Section |  min time  |  avg time  |  max time  |%varavg| %total
---------------------------------------------------------------
Pair    | 0.24132    | 1637.8     | 5126.1     |4670.6 | 24.97
Neigh   | 0.31983    | 90.421     | 323.93     |1101.6 |  1.38
Comm    | 8.4611     | 1683.3     | 5322       |4322.6 | 25.66
Output  | 81.183     | 81.257     | 83.177     |   1.7 |  1.24
Modify  | 318.92     | 2975.1     | 6386       |4752.3 | 45.35
Other   |            | 92.16      |            |       |  1.40

Nlocal:    53.0125 ave 164 max 0 min
Histogram: 58 8 54 0 0 0 0 5 5 30
Nghost:    542.856 ave 871 max 0 min
Histogram: 16 4 1 3 16 32 20 16 29 23
Neighs:    0 ave 0 max 0 min
Histogram: 160 0 0 0 0 0 0 0 0 0
FullNghs:  5301.1 ave 20586 max 0 min
Histogram: 90 30 0 0 0 0 0 6 12 22

Total # of neighbors = 848176
Ave neighs/atom = 99.9972
Neighbor list builds = 559799
Dangerous builds = 0
write_data 		${DIR}/data.${NAME}_run
write_data 		run_11/data.${NAME}_run
write_data 		run_11/data.ibeam_cooling_11_run
Total wall time: 1:49:33
