
### Dimensions ###


### IMPORT ATOMS ###
read_data ../Box_Setup/data.Ibeam_235K
Reading data file ...
  orthogonal box = (0.0000000 0.0000000 0.0000000) to (78.752000 72.975319 40.002420)
  4 by 4 by 4 MPI processor grid
  reading atoms ...
  9010 atoms
  reading velocities ...
  9010 velocities
  read_data CPU = 0.023 seconds
group water type 2
2386 atoms in group water
group graphite type 1
6624 atoms in group graphite


# Define potential
#
pair_style          sw
pair_coeff * * MLC_e.sw C mW

# Add velocity/set timestep
#

fix		1 graphite setforce 0.0 0.0 0.0
velocity 	graphite set 0.0 0.0 0.0
velocity            water create ${START_TEMP} ${SEED} rot yes dist gaussian
velocity            water create 235 ${SEED} rot yes dist gaussian
velocity            water create 235 23001 rot yes dist gaussian
timestep            5.0

# Define output
#
compute 1 water msd
compute 2 water temp


thermo	            100
thermo_style custom step c_2 press vol etotal ke pe c_1[4] density

# Neighbor lists
#
neigh_modify        delay 0 every 1 check yes


# Set fixes
#
fix                 2 water momentum 10 linear 1 1 1 rescale
fix                 3 all nve
fix                 4 water temp/csvr ${START_TEMP} ${START_TEMP} 500.0 928347
fix                 4 water temp/csvr 235 ${START_TEMP} 500.0 928347
fix                 4 water temp/csvr 235 235 500.0 928347

# Run 0.05 ns equilibration
#
dump                1 all custom 100 ${DIR}/eq.${NAME}.dump id type x y z vx vy vz
dump                1 all custom 100 run_1/eq.${NAME}.dump id type x y z vx vy vz
dump                1 all custom 100 run_1/eq.ibeam_cooling_1.dump id type x y z vx vy vz
run                 10000
Neighbor list info ...
  update every 1 steps, delay 0 steps, check yes
  max neighbors/atom: 2000, page size: 100000
  master list distance cutoff = 6.6747184
  ghost atom cutoff = 6.6747184
  binsize = 3.3373592, bins = 24 22 12
  1 neighbor lists, perpetual/occasional/extra = 1 0 0
  (1) pair sw, perpetual
      attributes: full, newton on
      pair build: full/bin/atomonly
      stencil: full/bin/3d
      bin: standard
Per MPI rank memory allocation (min/avg/max) = 3.602 | 4.441 | 4.793 Mbytes
Step c_2 Press Volume TotEng KinEng PotEng c_1[4] Density 
       0          235   -397.42353       229892   -22660.138    1670.6695   -24330.807            0   0.88510766 
     100    234.80108   -391.44817       229892    -22653.78    1669.2553   -24323.035   0.83818504   0.88510766 
     200    231.82914   -352.69536       229892   -22675.947    1648.1272   -24324.074    1.2054764   0.88510766 
     300    230.22759   -390.79074       229892   -22672.369    1636.7413   -24309.111    1.5375833   0.88510766 
     400    231.89715   -266.48184       229892   -22677.125    1648.6106   -24325.736      1.81522   0.88510766 
     500    235.65945   -306.22103       229892   -22645.475    1675.3577   -24320.833    2.0448282   0.88510766 
     600     239.3012   -298.34754       229892   -22576.622    1701.2478    -24277.87    2.4121638   0.88510766 
     700    236.35517    -331.6766       229892   -22591.242    1680.3038   -24271.546    2.8812514   0.88510766 
     800    236.00004   -452.91803       229892   -22583.246     1677.779   -24261.025    3.2679248   0.88510766 
     900    234.77541    -214.1783       229892   -22601.181    1669.0729   -24270.254    3.6317147   0.88510766 
    1000    236.01506   -348.42991       229892   -22634.731    1677.8858   -24312.617    4.0244658   0.88510766 
    1100    235.84962   -533.31458       229892   -22620.445    1676.7096   -24297.155    4.2786951   0.88510766 
    1200    236.29594   -131.35724       229892   -22610.438    1679.8827    -24290.32    4.6185851   0.88510766 
    1300    240.01243   -470.24965       229892   -22569.791     1706.304   -24276.095    4.8711392   0.88510766 
    1400    233.58875   -443.71326       229892   -22616.424    1660.6366   -24277.061    4.9875677   0.88510766 
    1500    228.43762   -369.56174       229892    -22638.66     1624.016   -24262.676    5.2214838   0.88510766 
    1600     236.1572   -407.31459       229892    -22607.08    1678.8963   -24285.976    5.5317254   0.88510766 
    1700    232.94212   -448.30544       229892   -22611.259    1656.0396   -24267.298    5.8188928   0.88510766 
    1800    231.59801   -416.61816       229892   -22562.531     1646.484   -24209.015    6.1259929   0.88510766 
    1900    242.08266   -283.97812       229892   -22531.129    1721.0218   -24252.151    6.4389711   0.88510766 
    2000     237.5886   -313.59297       229892   -22496.285    1689.0725   -24185.357     6.713159   0.88510766 
    2100    236.26888   -509.78014       229892   -22598.942    1679.6903   -24278.632    7.1038955   0.88510766 
    2200    237.49869   -304.76498       229892   -22580.774    1688.4332   -24269.207    7.3457933   0.88510766 
    2300    239.87556   -306.82942       229892   -22556.228     1705.331   -24261.559    7.5268677   0.88510766 
    2400    235.65654   -242.93099       229892   -22560.788     1675.337   -24236.125    7.7821032   0.88510766 
    2500    242.02792   -550.12127       229892   -22591.852    1720.6326   -24312.484    7.9608315   0.88510766 
    2600    234.16275   -305.29593       229892   -22606.258    1664.7173   -24270.976    8.4121062   0.88510766 
    2700    233.45269   -357.93824       229892   -22613.225    1659.6694   -24272.894    8.8509725   0.88510766 
    2800    244.51186   -538.24927       229892   -22561.294    1738.2916   -24299.586    9.3686558   0.88510766 
    2900    232.92627   -260.95658       229892   -22567.044    1655.9269   -24222.971    9.6876186   0.88510766 
    3000    242.96745   -358.31915       229892   -22560.876     1727.312   -24288.188    10.204055   0.88510766 
    3100     235.8573    -417.7094       229892   -22551.868    1676.7643   -24228.632    10.484633   0.88510766 
    3200    242.32354   -307.05745       229892   -22610.609    1722.7343   -24333.343    10.776346   0.88510766 
    3300    230.53567   -576.63112       229892   -22671.282    1638.9316   -24310.213    10.981698   0.88510766 
    3400    239.74593   -467.40183       229892   -22621.545    1704.4094   -24325.955     11.19041   0.88510766 
    3500    235.05204   -398.21825       229892   -22628.616    1671.0395   -24299.656    11.750987   0.88510766 
    3600    232.93336   -330.28786       229892   -22620.031    1655.9773   -24276.009    12.029116   0.88510766 
    3700    235.12937   -417.70484       229892   -22589.257    1671.5892   -24260.846    12.099862   0.88510766 
    3800     232.2063   -455.04756       229892   -22558.035    1650.8085   -24208.844    12.447152   0.88510766 
    3900    239.60422   -402.11311       229892   -22558.863     1703.402   -24262.265    12.784291   0.88510766 
    4000    231.04373   -465.22284       229892   -22592.959    1642.5435   -24235.502    13.055072   0.88510766 
    4100    235.50289   -170.47698       229892   -22580.512    1674.2447   -24254.756    13.072421   0.88510766 
    4200    237.60339   -338.03763       229892   -22570.837    1689.1776   -24260.015    13.482187   0.88510766 
    4300    233.84548   -527.21897       229892   -22640.572    1662.4618   -24303.034    14.122989   0.88510766 
    4400    232.58773    -287.5416       229892   -22588.971    1653.5202   -24242.492    14.165607   0.88510766 
    4500    229.35091   -335.17955       229892   -22614.344    1630.5088   -24244.853    14.221645   0.88510766 
    4600    230.97605    -374.0687       229892   -22663.939    1642.0623   -24306.001    14.572098   0.88510766 
    4700    236.66183   -389.76104       229892   -22613.419    1682.4838   -24295.902    14.730268   0.88510766 
    4800    240.32763   -385.69328       229892   -22593.351    1708.5449   -24301.896    15.008027   0.88510766 
    4900    237.30438   -504.69084       229892   -22559.685    1687.0519   -24246.737    15.263705   0.88510766 
    5000    232.83221   -409.21713       229892    -22612.92    1655.2582   -24268.178    15.666346   0.88510766 
    5100    243.20907   -293.94554       229892   -22564.311    1729.0297   -24293.341    16.292654   0.88510766 
    5200    235.68225   -416.93079       229892   -22603.649    1675.5198   -24279.169    16.652076   0.88510766 
    5300    229.62347   -315.00743       229892   -22660.035    1632.4465   -24292.482    17.269521   0.88510766 
    5400    230.65936   -326.73076       229892   -22632.609    1639.8109    -24272.42    17.634217   0.88510766 
    5500    234.32732   -355.47906       229892   -22626.473    1665.8873    -24292.36    17.707448   0.88510766 
    5600    236.81157   -389.31323       229892    -22642.16    1683.5484   -24325.709    17.916589   0.88510766 
    5700    232.88897   -485.72885       229892   -22625.104    1655.6617   -24280.766    18.323494   0.88510766 
    5800    235.85864    -377.8679       229892   -22606.419    1676.7738   -24283.193    18.506926   0.88510766 
    5900    232.01027   -325.54765       229892    -22623.15    1649.4148   -24272.564    18.679177   0.88510766 
    6000    234.35766   -251.51885       229892   -22647.097     1666.103     -24313.2    18.674372   0.88510766 
    6100    232.95268   -345.86984       229892   -22660.549    1656.1146   -24316.663    19.011839   0.88510766 
    6200    228.77063   -208.72228       229892   -22667.851    1626.3835   -24294.234    19.353358   0.88510766 
    6300    231.01213   -495.78769       229892   -22585.449    1642.3188   -24227.768    19.828742   0.88510766 
    6400     234.9456   -408.54398       229892   -22619.051    1670.2828   -24289.334    20.010262   0.88510766 
    6500    232.40361   -368.60079       229892   -22623.825    1652.2111   -24276.036    20.366691   0.88510766 
    6600    234.89836   -479.84766       229892   -22637.101     1669.947   -24307.048    20.771053   0.88510766 
    6700    232.10068   -341.36297       229892   -22677.253    1650.0575   -24327.311     21.07928   0.88510766 
    6800       235.99   -321.31677       229892   -22655.236    1677.7077   -24332.944    21.447109   0.88510766 
    6900    230.27288   -348.99662       229892   -22610.071    1637.0633   -24247.135    21.816376   0.88510766 
    7000    240.64052   -498.85911       229892   -22614.702    1710.7693   -24325.471    22.338174   0.88510766 
    7100    235.33991   -282.81589       229892   -22633.553     1673.086   -24306.639    22.605938   0.88510766 
    7200    232.58382   -221.85278       229892   -22701.339    1653.4923   -24354.832    23.052413   0.88510766 
    7300    230.25139   -289.11433       229892   -22726.604    1636.9105   -24363.514    23.568214   0.88510766 
    7400    231.69603   -305.92835       229892   -22688.312    1647.1808   -24335.493    23.684099   0.88510766 
    7500     227.8636   -348.26052       229892   -22659.716    1619.9352   -24279.651    23.939082   0.88510766 
    7600    237.27345   -319.62047       229892    -22624.95     1686.832   -24311.782    24.232511   0.88510766 
    7700    233.77478   -331.24809       229892   -22648.408    1661.9591   -24310.367     24.63791   0.88510766 
    7800     227.1484   -351.59328       229892   -22718.526    1614.8507   -24333.376    24.745719   0.88510766 
    7900    233.78722   -493.44725       229892   -22686.522    1662.0476   -24348.569    24.872007   0.88510766 
    8000    236.04537   -351.14498       229892   -22623.225    1678.1013   -24301.327    24.924561   0.88510766 
    8100    235.12099    -323.4452       229892   -22619.493    1671.5297   -24291.023     25.01161   0.88510766 
    8200    233.12196   -446.48362       229892    -22641.08    1657.3181   -24298.398    25.126425   0.88510766 
    8300     239.4738   -440.75015       229892   -22604.464    1702.4748   -24306.939    25.155837   0.88510766 
    8400    240.92309   -335.22836       229892   -22601.187    1712.7781   -24313.965    25.420438   0.88510766 
    8500    233.32417   -364.50179       229892   -22639.415    1658.7556   -24298.171    25.630167   0.88510766 
    8600    230.52394   -388.80119       229892   -22632.993    1638.8481   -24271.841    25.749203   0.88510766 
    8700    237.14995   -351.09463       229892   -22649.138     1685.954   -24335.092    25.982656   0.88510766 
    8800    233.97032    -458.8631       229892   -22639.735    1663.3493   -24303.085    26.186605   0.88510766 
    8900    229.71416   -465.05823       229892    -22663.26    1633.0913   -24296.351    26.301877   0.88510766 
    9000    233.23207     -287.657       229892   -22627.975    1658.1009   -24286.076    26.578881   0.88510766 
    9100    235.40191   -298.03429       229892   -22657.949    1673.5268   -24331.476    26.936621   0.88510766 
    9200    234.00818   -368.99499       229892   -22598.288    1663.6184   -24261.907    27.488336   0.88510766 
    9300    235.63539   -247.90384       229892   -22664.654    1675.1866   -24339.841    27.600717   0.88510766 
    9400    237.32241   -403.28309       229892   -22623.293    1687.1801   -24310.473    27.990058   0.88510766 
    9500    233.66252   -428.35874       229892    -22660.68    1661.1611   -24321.841    28.195298   0.88510766 
    9600     234.3295   -339.92123       229892   -22681.793    1665.9027   -24347.696     28.48267   0.88510766 
    9700    240.42586   -361.21337       229892   -22642.048    1709.2432   -24351.291    28.832563   0.88510766 
    9800    236.98347   -294.14622       229892   -22607.404    1684.7705   -24292.175    29.029294   0.88510766 
    9900    235.21773   -277.20614       229892   -22638.322    1672.2174   -24310.539    29.176493   0.88510766 
   10000    234.51578    -451.4652       229892   -22630.948    1667.2271   -24298.175    29.298066   0.88510766 
Loop time of 17.8602 on 64 procs for 10000 steps with 9010 atoms

Performance: 241.878 ns/day, 0.099 hours/ns, 559.903 timesteps/s
99.1% CPU use with 64 MPI tasks x no OpenMP threads

MPI task timing breakdown:
Section |  min time  |  avg time  |  max time  |%varavg| %total
---------------------------------------------------------------
Pair    | 0.0012963  | 4.8621     | 14.316     | 242.5 | 27.22
Neigh   | 0.0014181  | 0.29222    | 1.0258     |  66.3 |  1.64
Comm    | 0.67576    | 6.9984     | 14.257     | 176.4 | 39.18
Output  | 0.20145    | 0.20266    | 0.20469    |   0.2 |  1.13
Modify  | 0.49482    | 5.2213     | 16.808     | 262.1 | 29.23
Other   |            | 0.2836     |            |       |  1.59

Nlocal:        140.781 ave         426 max           0 min
Histogram: 24 4 20 0 0 0 0 0 0 16
Nghost:        813.625 ave        1189 max          37 min
Histogram: 8 0 0 8 0 0 1 23 0 24
Neighs:         0.00000 ave           0 max           0 min
Histogram: 64 0 0 0 0 0 0 0 0 0
FullNghs:      13996.6 ave       52258 max           0 min
Histogram: 34 14 0 0 0 0 0 0 4 12

Total # of neighbors = 895784
Ave neighs/atom = 99.421088
Neighbor list builds = 575
Dangerous builds = 0
write_data 	    ${DIR}/data.${NAME}_eq
write_data 	    run_1/data.${NAME}_eq
write_data 	    run_1/data.ibeam_cooling_1_eq
System init for write_data ...

undump              1
unfix               4



################################################
#######         Run Simulation         #########
################################################

reset_timestep      0
timestep	    10.0
log                 ${DIR}/log.run_${NAME}
log                 run_1/log.run_${NAME}
log                 run_1/log.run_ibeam_cooling_1
