
# Set production fixes - Nose/Hoover
#
fix                 4 water temp/csvr ${START_TEMP} ${END_TEMP} 500.0 928347
fix                 4 water temp/csvr 235 ${END_TEMP} 500.0 928347
fix                 4 water temp/csvr 235 225 500.0 928347


## divide "droplet" into core and surface
#region		core_reg cylinder z 135 135 44.6 20 INF units box
#region		surface_reg cylinder z 135 135 44.6 20 INF units box side out
#group		core dynamic all region core_reg
#group		surface dynamic all region surface_reg

## compute pressure core
#compute        peratom_core core stress/atom NULL
#compute        p_core core reduce sum c_peratom_core[1] c_peratom_core[2] c_peratom_core[3]
#variable       press_core equal -(c_p_core[1]+c_p_core[2]+c_p_core[3])/(3*1249982.5)


## compute pressure surface
#compute        peratom_surf surface stress/atom NULL
#compute        p_surf surface reduce sum c_peratom_surf[1] c_peratom_surf[2] #c_peratom_surf[3]
#variable       press_surf equal -(c_p_surf[1]+c_p_surf[2]+c_p_surf[3])/(3*42395)

## compute total pressure of drop
compute        peratom water stress/atom NULL
compute        p water reduce sum c_peratom[1] c_peratom[2] c_peratom[3]
variable       press equal -(c_p[1]+c_p[2]+c_p[3])/(3*58187)


# compute order parameter
compute        3 all orientorder/atom nnn NULL cutoff 3.5

# compute center of mass of bridge
compute 	4 water com

# Run simulation
thermo_style        custom step c_2 press vol etotal ke pe v_press c_1[4] c_4[*]
thermo              200
dump		     1 water custom 400 ${DIR}/prod.${NAME}.dump id type x y z vx vy vz c_3[*] c_peratom[*]
dump		     1 water custom 400 run_13/prod.${NAME}.dump id type x y z vx vy vz c_3[*] c_peratom[*]
dump		     1 water custom 400 run_13/prod.ibeam_cooling_13.dump id type x y z vx vy vz c_3[*] c_peratom[*]
run                 ${STEPS}
run                 4000000
Neighbor list info ...
  update every 1 steps, delay 0 steps, check yes
  max neighbors/atom: 2000, page size: 100000
  master list distance cutoff = 6.67472
  ghost atom cutoff = 6.67472
  binsize = 3.33736, bins = 24 22 12
  2 neighbor lists, perpetual/occasional/extra = 1 1 0
  (1) pair sw, perpetual
      attributes: full, newton on
      pair build: full/bin/atomonly
      stencil: full/bin/3d
      bin: standard
  (2) compute orientorder/atom, occasional, copy from (1)
      attributes: full, newton on
      pair build: copy
      stencil: none
      bin: none
Per MPI rank memory allocation (min/avg/max) = 0.8664 | 6.23 | 7.207 Mbytes
Step c_2 Press Volume TotEng KinEng PotEng v_press c_1[4] c_4[1] c_4[2] c_4[3] 
       0    231.80454   -429.47604       229892   -22552.769    1647.9523   -24200.722    -1117.646    33.053066    39.445698    35.569975    26.697352 
     200    237.68167   -204.05136       229892   -22563.949    1689.7341   -24253.683   -273.13167    34.122922    39.444902    35.571405     26.71251 
     400    237.80213   -473.09132       229892   -22593.264    1690.5905   -24283.855   -1322.5291    36.708304    39.444696    35.571686     26.71684 
     600    246.85403   -506.18546       229892    -22503.58    1754.9426   -24258.523   -1439.7078    37.987295     39.44438    35.572793    26.716726 
     800    241.33299     -249.391       229892   -22517.786    1715.6922   -24233.478   -433.36513    39.951144    39.442779    35.574993    26.693537 
    1000    234.14518   -282.50082       229892    -22608.45    1664.5924   -24273.042   -546.56803    41.310415    39.441569    35.574906    26.694153 
    1200     234.3465   -466.88061       229892    -22552.74    1666.0236   -24218.763   -1282.2811    43.952761    39.443746    35.574647    26.699656 
    1400    235.25514   -357.42887       229892   -22503.797    1672.4834   -24176.281    -817.0832    45.157787    39.443748     35.57538    26.699187 
    1600    236.44936   -359.77596       229892   -22481.519    1680.9733   -24162.492   -863.56509    46.302806    39.443333    35.574667    26.688785 
    1800    235.59638   -412.08981       229892    -22415.72    1674.9093    -24090.63   -1066.7669    47.573525     39.44339    35.573877    26.686231 
    2000    243.00667   -568.17693       229892   -22386.123    1727.5908   -24113.714   -1658.4631    48.385637    39.442413    35.573693    26.707364 
    2200    230.66972   -386.85314       229892   -22450.016    1639.8846   -24089.901   -969.77744    50.511197    39.443586    35.575523    26.740254 
    2400    238.54365    -440.1117       229892   -22438.184    1695.8621   -24134.046   -1136.0224    52.403518    39.443223    35.575322    26.720133 
    2600    229.80123   -396.40626       229892   -22487.708    1633.7102   -24121.418   -1023.1544    53.827843    39.442735     35.57583    26.712091 
    2800    243.18142   -296.85523       229892   -22436.653    1728.8331   -24165.486   -588.70363    54.658637    39.441842    35.576538    26.707016 
    3000    235.59946   -387.97941       229892   -22421.959    1674.9312    -24096.89   -961.63526    56.785087     39.44055    35.575805    26.681155 
    3200    233.02853   -282.30693       229892   -22524.399    1656.6539   -24181.053   -586.99111    59.310752    39.438947     35.57332    26.703847 
    3400    234.30261   -336.69464       229892   -22524.828    1665.7116   -24190.539   -780.47493    61.022091    39.437521    35.571622    26.717038 
    3600    228.21862   -369.83927       229892    -22515.45    1622.4591   -24137.909   -950.88113    62.022053    39.436171    35.573624    26.720631 
    3800    237.86419   -386.84877       229892   -22501.465    1691.0317   -24192.496   -1000.9196     63.17827    39.434871     35.57448    26.706434 
    4000    236.13062   -411.34021       229892   -22582.732    1678.7073    -24261.44   -1062.7015    64.623638    39.433526    35.575458     26.70255 
    4200    229.66129   -463.44505       229892   -22518.873    1632.7154   -24151.589   -1256.8652    64.885243    39.431588    35.573937    26.706885 
    4400    230.47164   -402.35506       229892   -22565.306    1638.4764   -24203.782   -1015.0299    65.009139    39.431845    35.570572    26.718892 
    4600    234.61093   -367.25355       229892   -22655.303    1667.9035   -24323.206   -879.23649     65.63936    39.431676    35.569572    26.737813 
    4800    233.64494   -340.45046       229892   -22495.936    1661.0361   -24156.972   -753.89782     66.83878    39.430922    35.568941    26.768415 
    5000    238.50856   -273.96764       229892   -22531.993    1695.6127   -24227.605   -531.78242    68.036928    39.431428    35.568745    26.766859 
    5200    232.98671    -272.9164       229892   -22528.617    1656.3566   -24184.973   -522.31498    69.542654    39.429697    35.567112    26.741826 
    5400      231.458   -367.04967       229892   -22539.927    1645.4886   -24185.416   -883.30739    71.002517    39.427407    35.567956    26.742117 
    5600    238.88311   -177.50076       229892   -22551.881    1698.2754   -24250.156    -159.6195    71.955377    39.429561    35.566435    26.742444 
    5800    236.49998   -372.91464       229892   -22509.409    1681.3332   -24190.743   -942.72621    73.234293     39.42964    35.564044    26.754768 
    6000    236.16016   -411.78758       229892   -22547.082    1678.9174   -24225.999   -1067.7979    74.652256    39.430505    35.563278    26.755432 
    6200    229.69102   -286.55958       229892   -22591.604    1632.9267   -24224.531   -576.00563     76.27059     39.42885    35.562871    26.736814 
    6400    236.65226   -171.05512       229892    -22573.17    1682.4158   -24255.586   -108.80787    77.830732    39.430316     35.56446    26.725343 
    6600     239.7123   -375.96855       229892   -22600.492    1704.1704   -24304.663   -935.96672    80.132457    39.430484    35.566434    26.735654 
    6800    235.03309   -464.92898       229892   -22595.119    1670.9048   -24266.023   -1293.2501    79.996284    39.430035    35.569925    26.729466 
    7000    233.30358    -407.2581       229892   -22562.183    1658.6093   -24220.792   -1085.0485    80.446742    39.431018    35.571351    26.738148 
    7200    228.39916   -484.34323       229892   -22638.581    1623.7426   -24262.324   -1340.8262    81.986833    39.430219    35.573314    26.718247 
    7400    233.53732   -295.13714       229892   -22594.742     1660.271   -24255.013   -621.40374    82.377396    39.432926    35.573066    26.734249 
    7600    240.40283   -516.28488       229892   -22540.405    1709.0795   -24249.485   -1516.9673    83.387778    39.432361    35.574111     26.75126 
    7800    229.63094   -438.01414       229892    -22640.67    1632.4996   -24273.169   -1167.1742    84.882376    39.435258     35.57316    26.762697 
    8000    238.79688   -443.35511       229892    -22504.92    1697.6624   -24202.582   -1157.6956    85.110627    39.436967    35.570746    26.775653 
    8200    238.06554   -347.40309       229892   -22526.379    1692.4631   -24218.842   -790.25021    85.774289     39.43814    35.569551    26.748651 
    8400    233.29143   -377.47164       229892   -22498.005    1658.5229   -24156.528   -928.71662    87.694995    39.440923    35.570384    26.749973 
    8600    235.04366   -312.65393       229892   -22585.506    1670.9799   -24256.486   -681.78562     89.17331     39.44123    35.566253    26.737584 
    8800    232.45871   -373.84265       229892   -22572.621    1652.6029   -24225.223   -937.66982    90.608516    39.441011    35.565641    26.735849 
    9000    243.64617   -507.57486       229892   -22523.052    1732.1371    -24255.19   -1409.0474    92.185315    39.442152    35.566027    26.746752 
    9200    233.06812   -480.68517       229892   -22447.816    1656.9353   -24104.751   -1317.3955    92.814786    39.441174    35.565384    26.748278 
    9400    234.74342   -175.34449       229892   -22474.979    1668.8454   -24143.824   -111.43126    93.901477    39.444428    35.565556     26.73966 
    9600    230.97694   -377.66838       229892   -22539.705    1642.0687   -24181.773   -925.05422     95.44857    39.446011    35.566545    26.749535 
    9800    235.48663    -332.5093       229892   -22474.184    1674.1291   -24148.313   -784.65949    97.077799    39.449076    35.567709    26.779812 
   10000    235.46954   -298.38733       229892   -22521.526    1674.0076   -24195.534   -629.13351    97.505456    39.451091    35.568303    26.763743 
   10200    242.05346   -352.70973       229892   -22469.599    1720.8142   -24190.413   -821.54059    99.438695    39.450164    35.568439     26.75288 
   10400    237.93017   -443.92165       229892   -22494.537    1691.5008   -24186.038   -1152.5247    102.87228    39.451951    35.568634    26.757325 
   10600    231.73952   -321.98963       229892   -22551.891      1647.49   -24199.381   -692.36247     102.7247    39.453269    35.567946    26.747839 
   10800    229.52832    -395.2185       229892   -22573.353    1631.7701   -24205.123   -1018.3674    103.73803    39.451897    35.565453    26.749255 
   11000     236.0412   -370.43949       229892   -22580.548    1678.0716   -24258.619   -851.62435    104.89885    39.450879    35.564681    26.767366 
   11200     236.5289   -256.16901       229892   -22587.591    1681.5388   -24269.129   -429.86175    105.79203    39.449943    35.563791    26.762232 
   11400    233.21609   -373.56053       229892   -22592.694    1657.9873   -24250.681   -938.02783    107.03349    39.448988    35.563421    26.749869 
   11600     233.5859   -370.21154       229892   -22495.902    1660.6164   -24156.518   -922.37678    106.84105     39.44745    35.565208    26.749557 
   11800    235.92421   -358.78208       229892   -22496.872      1677.24   -24174.112   -830.55179    108.10795    39.445159    35.563793    26.753256 
   12000    235.08562   -440.09781       229892   -22499.601    1671.2782   -24170.879   -1176.2306     109.7332    39.444601    35.564163    26.752809 
   12200    237.69592   -309.91973       229892   -22486.289    1689.8355   -24176.125     -653.226    110.71436    39.446788    35.564973    26.755428 
   12400    234.80235   -368.42047       229892   -22509.249    1669.2643   -24178.513   -887.91005    112.90725    39.444762    35.565439    26.772308 
   12600    237.20099   -295.28671       229892   -22449.164    1686.3169   -24135.481   -637.81816    114.30489    39.445412    35.565599    26.773382 
   12800    235.41432   -350.97491       229892   -22495.303     1673.615   -24168.918   -797.24229    115.31223     39.44715     35.56551    26.746515 
   13000      227.881   -400.71743       229892   -22535.634    1620.0589   -24155.693   -1061.5791    115.59312    39.449517    35.563159    26.762831 
   13200    236.67649   -444.12539       229892   -22579.898    1682.5881   -24262.487   -1195.2228    116.09496    39.451507    35.560847    26.757693 
   13400    235.94509   -377.03901       229892   -22630.812    1677.3884   -24308.201   -906.43148    116.68412     39.45151    35.563276    26.754383 
   13600    238.31262   -370.12035       229892   -22559.916    1694.2197   -24254.136   -888.32883    119.05564    39.450289    35.562436     26.76199 
   13800    233.19952   -203.01508       229892   -22516.818    1657.8695   -24174.687   -283.58785    120.88014    39.450209    35.563783    26.769286 
   14000    244.90835   -385.00784       229892   -22470.522    1741.1102   -24211.632   -991.54225     120.8821    39.449603    35.563553    26.784055 
   14200    232.59181   -333.21854       229892   -22526.739    1653.5491   -24180.288   -744.97895    121.40224    39.451308    35.566059    26.777492 
   14400    233.83002   -308.53241       229892   -22621.402    1662.3519   -24283.754   -655.93764    123.03103    39.453128    35.566343    26.766925 
   14600    232.24921   -346.49132       229892   -22590.705    1651.1135   -24241.818    -807.8095    124.11664    39.452492    35.567076    26.754513 
   14800    236.40268   -202.28026       229892   -22523.015    1680.6415   -24203.656    -256.9559    125.96255    39.452689    35.568009    26.772473 
   15000    236.94396   -345.25688       229892   -22559.515    1684.4896   -24244.005   -779.52849     127.7103    39.452258    35.567756     26.77712 
   15200    234.16631   -286.05034       229892   -22564.814    1664.7426   -24229.556   -562.87834    128.66583    39.452598     35.56848    26.778172 
   15400    232.51632   -433.60625       229892   -22601.578    1653.0124   -24254.591   -1145.7815    129.62474    39.452881    35.569517    26.760063 
   15600    241.21774   -313.57873       229892   -22499.426    1714.8729   -24214.299   -677.09429     129.8283    39.454042    35.570306    26.764224 
   15800    237.34146   -232.06019       229892   -22515.676    1687.3155   -24202.991   -338.13316    129.72218     39.45362    35.570498     26.77381 
   16000    236.49633    -322.2826       229892   -22533.519    1681.3073   -24214.826   -717.52555    132.88793    39.455235    35.571897    26.798861 
   16200    236.35057     -300.232       229892   -22501.282     1680.271   -24181.553   -643.86279    134.28039    39.456359    35.574647    26.785781 
   16400    233.88282   -372.33061       229892   -22527.958    1662.7272   -24190.686   -899.19683    134.93761    39.456974    35.575987    26.769887 
   16600    238.34543   -392.10071       229892    -22457.32    1694.4529   -24151.773   -952.74694    136.88936    39.456906    35.576023    26.763883 
   16800    241.98594   -491.21362       229892   -22519.227    1720.3342   -24239.561   -1334.5427    138.83786    39.456509    35.574248    26.768317 
   17000    232.89936   -453.35903       229892   -22586.277    1655.7356   -24242.013   -1221.1132    139.40534    39.457205    35.573465    26.771946 
   17200    233.79146   -263.41974       229892   -22571.227    1662.0777   -24233.305   -441.51496    139.34495     39.45745    35.574016    26.766517 
   17400    230.06764   -309.11419       229892   -22654.062    1635.6042   -24289.666    -658.1505    140.08788    39.455864    35.574872    26.777003 
   17600    238.72463   -357.29627       229892   -22575.246    1697.1488   -24272.394   -871.72116    141.50367    39.454057     35.57582    26.773914 
   17800    234.43694   -283.47543       229892   -22604.118    1666.6666   -24270.785   -580.09824    142.14223    39.455065    35.574909    26.783078 
   18000    237.62904   -287.73821       229892    -22525.09      1689.36    -24214.45   -554.33197    143.16041    39.458057    35.574935    26.783565 
   18200    230.37614   -346.45937       229892   -22545.576    1637.7974   -24183.373   -791.50659     143.8169    39.457433    35.573414    26.789667 
   18400    232.12131   -325.78563       229892    -22532.31    1650.2042   -24182.514   -723.67132    145.72351    39.457264    35.576258    26.782157 
   18600    227.79931   -250.94057       229892   -22518.661    1619.4781   -24138.139   -491.73211     145.2665    39.456254    35.575108    26.776626 
   18800    235.01372    -346.1547       229892    -22541.52     1670.767   -24212.287   -800.19717    146.99553    39.453965    35.574621    26.778964 
   19000    236.76508   -230.86945       229892   -22481.414    1683.2179   -24164.632   -347.51674    149.18557    39.456328    35.570449    26.789113 
   19200    237.41779    -462.1412       229892   -22489.798    1687.8581   -24177.656   -1283.2837    149.23073    39.458914    35.567185    26.781895 
   19400    238.33182   -308.18788       229892   -22457.978    1694.3562   -24152.334    -715.2082    149.71866    39.460081    35.566219    26.783318 
   19600    235.02461   -524.90609       229892   -22498.515    1670.8445    -24169.36    -1480.918    150.87097    39.463198    35.565732    26.794419 
   19800    235.06468   -294.49741       229892     -22464.3    1671.1293   -24135.429   -644.00897    152.89767      39.4639    35.565415    26.817227 
   20000    230.39448   -260.21785       229892   -22484.842    1637.9278    -24122.77    -496.2823    154.38481    39.465077    35.563348    26.814445 
   20200    237.18027   -373.34656       229892   -22536.849    1686.1696   -24223.018   -946.72451      155.811    39.466787     35.56291    26.815808 
   20400    236.56302   -296.84983       229892   -22451.435    1681.7814   -24133.217   -620.14354    156.67116     39.46863    35.561305    26.824136 
   20600     230.4346   -415.81545       229892   -22539.514     1638.213   -24177.727   -1102.3127    158.06451      39.4698    35.562984    26.822887 
   20800    242.09791   -326.59708       229892   -22467.728    1721.1302   -24188.858   -758.93976    160.57064     39.46929    35.563408    26.818357 
   21000    232.98428   -500.87509       229892   -22503.469    1656.3393   -24159.809   -1383.4044     162.2788     39.46871    35.564969    26.834596 
   21200    236.31731   -444.14978       229892   -22475.213    1680.0346   -24155.247    -1222.657    164.20326    39.470488    35.563617    26.856708 
   21400    236.13308   -247.18669       229892   -22489.073    1678.7249   -24167.798   -441.29358    166.75984    39.470478    35.566686    26.867333 
   21600    238.81344   -381.84022       229892    -22406.65    1697.7801    -24104.43   -933.22059    169.01841    39.469932    35.565614    26.876729 
   21800    236.47432   -358.99744       229892   -22524.967    1681.1508   -24206.117   -821.32435    170.28999     39.46959    35.565824    26.877038 
   22000    230.32553   -343.78801       229892   -22576.162    1637.4376     -24213.6   -777.83067    170.91143    39.470093     35.56735    26.886866 
   22200    224.35479   -403.88222       229892   -22618.318    1594.9902   -24213.308   -1054.6763    171.89815    39.468338    35.567569    26.902298 
   22400    238.89863   -469.70385       229892   -22453.045    1698.3858   -24151.431   -1271.9619    174.95573    39.469845    35.567092    26.913777 
   22600    235.57066   -204.03713       229892   -22502.449    1674.7264   -24177.175   -237.44352    176.68053    39.469953    35.567705    26.917908 
   22800    237.30584   -387.89845       229892   -22454.799    1687.0623   -24141.861   -965.20653    179.34757    39.474337    35.568638    26.922725 
   23000    231.46938   -407.02813       229892   -22531.752    1645.5695   -24177.321   -1041.5013    179.22394    39.476046     35.57036    26.917319 
   23200    238.10478   -307.26943       229892   -22498.522    1692.7421   -24191.264   -650.76156    180.70998    39.476219    35.569414    26.927272 
   23400    236.05916   -259.30465       229892   -22498.908    1678.1993   -24177.108   -435.90734    183.40324    39.478072    35.567552     26.92436 
   23600    235.01066   -391.95224       229892   -22446.997    1670.7453   -24117.743   -959.44212    184.74097    39.479274    35.568737     26.91831 
   23800    237.08486   -572.49997       229892   -22502.092    1685.4913   -24187.584   -1698.9417     187.1643    39.478526    35.569843    26.925259 
   24000    236.66238   -543.79369       229892   -22549.555    1682.4878   -24232.043     -1586.89    186.67728    39.478107    35.571022    26.886498 
   24200       234.48   -437.42878       229892   -22545.494    1666.9727   -24212.467   -1168.5118    185.92429    39.478657    35.571713    26.866265 
   24400    235.62112   -374.68753       229892    -22607.61    1675.0852   -24282.696   -937.96968    187.43854    39.480636     35.57371    26.850327 
   24600    232.04193    -361.7677       229892    -22624.99    1649.6399   -24274.629   -899.28156    188.46514    39.481658    35.574436    26.846039 
   24800    228.75108    -412.3723       229892   -22604.212    1626.2445   -24230.457   -1048.7737    191.54963    39.482823    35.572556    26.843111 
   25000    234.94267   -400.62362       229892   -22612.812    1670.2619   -24283.074   -1049.4163    191.52958    39.483291    35.571152    26.862691 
   25200    222.97442   -240.85997       229892   -22707.069    1585.1769   -24292.246   -364.28608     192.5751     39.48323    35.569362    26.860256 
   25400     234.9981   -405.85377       229892   -22561.863     1670.656   -24232.519   -1051.9305    192.90127     39.48298    35.567912    26.863968 
   25600     242.7664   -395.43615       229892   -22457.959    1725.8826   -24183.842   -1008.4317     193.2713    39.484929    35.566314    26.865875 
   25800    240.51851   -385.76054       229892   -22447.886    1709.9019   -24157.788   -944.99584    193.05018    39.485591    35.565736    26.879297 
   26000    233.83358   -459.61371       229892    -22494.87    1662.3772   -24157.247   -1247.1597    194.46421    39.484743     35.56834    26.880192 
   26200    232.28746   -359.41876       229892    -22527.42    1651.3854   -24178.805   -863.75449    193.98883    39.484127    35.565856    26.864289 
   26400    230.32581   -337.03852       229892    -22584.32    1637.4396    -24221.76   -755.64297    196.13905    39.485901    35.566523    26.847154 
   26600    244.25844   -196.13919       229892     -22535.5    1736.4899    -24271.99   -211.69286    196.43241    39.487675    35.565439    26.829757 
   26800    235.72582      -355.37       229892   -22555.667    1675.8295   -24231.496   -838.81348    198.75102    39.487584     35.56571    26.825743 
   27000     242.7399   -303.26646       229892   -22500.233    1725.6943   -24225.927   -635.28376     200.2529    39.488083    35.567143    26.812903 
   27200    235.16587   -441.54477       229892   -22538.487    1671.8487   -24210.336   -1155.6698    200.83566    39.488201    35.569786    26.819199 
   27400    241.97174    -525.3017       229892   -22486.072    1720.2332   -24206.305   -1502.6329    202.00412    39.488011    35.570763    26.812913 
   27600     230.1314   -307.31292       229892   -22609.749    1636.0575   -24245.806   -651.41301    203.38009    39.490297    35.571946    26.791347 
   27800    239.01117   -318.99576       229892   -22516.679    1699.1859   -24215.864   -698.25921    202.49118    39.491896    35.573587    26.781818 
   28000    229.55389   -462.02806       229892   -22640.251    1631.9519   -24272.203    -1253.243    204.42395    39.491912    35.573406    26.809524 
   28200    238.64015   -343.86655       229892   -22646.608    1696.5482   -24343.156   -762.80773    204.91282    39.492253    35.572454     26.82264 
   28400    232.74375   -588.52509       229892   -22625.616    1654.6293   -24280.245   -1734.0006      206.027    39.489065    35.572179    26.817927 
   28600    234.15945   -314.47685       229892   -22617.076    1664.6939    -24281.77   -663.92747    205.62564    39.487171    35.572513    26.836385 
   28800    238.39994   -351.87312       229892   -22606.997    1694.8405   -24301.837    -827.8579    206.78151    39.485229    35.572159    26.850965 
   29000    231.29685   -491.73034       229892    -22574.63     1644.343   -24218.973   -1397.6847    209.25778    39.485299    35.568744    26.845906 
   29200    238.02512   -403.30024       229892   -22509.453    1692.1758   -24201.629   -1041.1535    209.11686    39.484997    35.565054    26.841688 
   29400    239.77735   -348.04802       229892   -22540.381    1704.6328   -24245.013   -813.79916    210.30854     39.48442     35.56378    26.819557 
   29600    240.25953   -270.08368       229892   -22529.948    1708.0607   -24238.009   -544.09606    211.33287     39.48483    35.563057     26.81649 
   29800    235.44203    -316.0032       229892    -22653.92     1673.812   -24327.732    -682.9919    214.38678    39.485352    35.563143    26.811269 
   30000    224.80781   -283.97893       229892   -22737.313    1598.2108   -24335.523   -553.32572    216.32043     39.48541    35.563035    26.805607 
   30200    234.36748    -388.0892       229892   -22649.086    1666.1728   -24315.259   -958.72837    216.56341    39.485852    35.560821     26.78936 
   30400    231.25649   -482.21304       229892   -22702.163    1644.0561   -24346.219   -1324.4113     218.5111    39.485478    35.560964    26.805281 
   30600    231.69972   -352.18451       229892   -22709.422     1647.207   -24356.629   -802.84079    219.23195    39.484045    35.559717    26.803274 
   30800    232.16897   -512.61926       229892    -22672.99    1650.5431   -24323.533   -1451.7295    220.31868    39.485418    35.559288    26.819715 
   31000    239.90833   -303.41625       229892   -22612.409     1705.564   -24317.973   -578.49919    220.34558    39.486826    35.562602    26.794075 
   31200    227.23404   -127.33337       229892   -22565.337    1615.4595   -24180.796      44.0791    221.85684    39.486435    35.564029    26.818285 
   31400     235.9129   -422.39608       229892   -22521.796    1677.1595   -24198.956   -1073.2502    222.75977    39.485412    35.564624    26.829798 
   31600    230.65107   -473.96919       229892   -22541.164    1639.7519   -24180.916   -1303.4451    223.05763    39.484521    35.565798    26.832447 
   31800    241.38583   -113.02635       229892   -22480.409    1716.0679   -24196.476    114.20325    225.29373    39.479944    35.568475    26.821276 
   32000    234.45119   -268.64176       229892    -22586.98    1666.7679   -24253.748   -464.44692    226.37423    39.478759    35.570357    26.824848 
   32200    231.19473   -231.96785       229892   -22602.053    1643.6169    -24245.67   -339.91826    227.36252    39.479764    35.567675    26.846346 
   32400    231.27482   -495.19882       229892   -22618.344    1644.1863   -24262.531   -1394.9799    231.35882    39.481835    35.567631    26.845568 
   32600    232.98284   -257.28109       229892   -22549.184    1656.3291   -24205.513   -467.55268    231.59641    39.481764    35.566096    26.849932 
   32800    241.32781   -378.32593       229892    -22526.88    1715.6554   -24242.535   -911.46521      230.107    39.483016     35.56567    26.848903 
   33000     236.2644   -332.90927       229892   -22522.501    1679.6584   -24202.159   -761.28941    230.34159    39.483557    35.565236     26.85668 
   33200    233.17396   -313.77175       229892   -22558.519    1657.6878   -24216.207   -692.51666    231.28015    39.483699    35.565592    26.857532 
   33400    231.86877   -377.71688       229892   -22633.146    1648.4088   -24281.555   -967.70925    232.30314    39.482943     35.56513    26.838352 
   33600    238.16327   -364.41387       229892   -22650.814    1693.1579   -24343.972   -893.25469    232.67341    39.483804    35.564281      26.8322 
   33800    238.94394   -383.35049       229892   -22507.721    1698.7079   -24206.429   -943.89197    233.15083    39.482774    35.564445    26.822725 
   34000    236.77087   -427.50501       229892   -22580.231     1683.259    -24263.49   -1123.7583    234.99788    39.481735    35.562405    26.819514 
   34200    233.94426   -356.54251       229892   -22565.514     1663.164   -24228.678    -844.2652    236.86566    39.484618    35.563871    26.819677 
   34400    225.75918   -303.57969       229892   -22601.713    1604.9744   -24206.688   -613.41821    237.36506    39.487284    35.566952    26.828353 
   34600    238.70368   -391.00714       229892   -22448.181    1696.9998    -24145.18   -967.82593    239.57958    39.489762    35.568008    26.829438 
   34800    234.20172   -219.16653       229892   -22546.396    1664.9944    -24211.39   -337.80855    238.94383    39.489967    35.570294     26.82248 
   35000    237.47556   -323.14667       229892    -22602.72    1688.2689   -24290.989   -680.39078    241.11657    39.489352    35.570452    26.830932 
   35200     231.3785   -393.10925       229892   -22499.912    1644.9234   -24144.836    -994.5285    242.07211    39.489578    35.573433    26.826678 
   35400    235.10077   -364.02371       229892    -22492.06    1671.3859   -24163.446   -885.11224    243.26803    39.490869    35.574149    26.826534 
   35600    231.89576   -294.88552       229892   -22503.654    1648.6007   -24152.255   -617.83667     241.9319    39.490818    35.576713    26.808528 
   35800    236.87269   -393.72518       229892   -22449.291    1683.9829   -24133.274   -998.23721    244.32549    39.491216    35.577181    26.811939 
   36000    230.98718    -345.3974       229892     -22574.1    1642.1414   -24216.241   -828.66593    245.44049    39.492207     35.57628    26.822593 
   36200     230.0526   -360.20537       229892   -22586.052    1635.4973   -24221.549   -894.68396    248.20423    39.491352    35.573374     26.80599 
   36400    233.27239   -387.23453       229892   -22543.904    1658.3875   -24202.292   -979.32928    249.10867    39.492258    35.571926    26.802704 
   36600    235.45242   -351.51974       229892    -22503.05    1673.8859   -24176.936   -842.64971    251.26649    39.490418     35.57244    26.809958 
   36800    232.59443   -459.68936       229892   -22580.866    1653.5678   -24234.434    -1223.318    253.24436    39.489548    35.571078    26.776261 
   37000    230.55131   -423.31646       229892   -22579.578    1639.0427   -24218.621   -1086.9779    252.70246    39.490916    35.572527    26.752581 
   37200    235.96763   -216.58784       229892   -22584.579    1677.5486   -24262.128   -369.18531    253.74928       39.493    35.575065    26.736684 
   37400    231.59332   -387.59728       229892   -22552.094    1646.4506   -24198.545   -953.02243    253.15552     39.49242    35.576987    26.731849 
   37600    228.25486   -294.19629       229892   -22588.103    1622.7168    -24210.82   -636.94444    253.88549    39.490171    35.579492    26.730037 
   37800    229.04106   -336.03094       229892   -22631.243    1628.3061   -24259.549   -758.09927    255.06444    39.490558    35.577057    26.708502 
   38000    241.28966   -68.909944       229892   -22530.192    1715.3842   -24245.576    315.18465    257.41776    39.489357    35.575401    26.703144 
   38200    233.30834   -263.62638       229892   -22563.717    1658.6431    -24222.36   -448.90998     259.1656    39.488488    35.576013    26.703751 
   38400    235.21288   -340.32653       229892   -22484.499    1672.1829   -24156.682     -774.194    259.68192    39.488876    35.577404    26.707155 
   38600    234.08014   -318.77785       229892   -22555.805      1664.13   -24219.935   -692.87961    262.43818    39.489715    35.575993    26.698896 
   38800    235.48677   -211.13195       229892   -22560.666    1674.1301   -24234.796   -286.47095    261.44863    39.488822    35.575416    26.702238 
   39000    237.18668   -355.95176       229892   -22540.944    1686.2151   -24227.159   -824.02592    261.25781    39.489283    35.577234    26.702079 
   39200    227.72337   -355.57696       229892   -22645.854    1618.9383   -24264.793    -798.9203    261.44653    39.489505    35.578972    26.706367 
   39400    236.77239   -250.87952       229892   -22642.141    1683.2699   -24325.411   -480.41008     261.8934    39.488306    35.579887    26.718973 
   39600    232.39399   -284.01627       229892   -22562.293    1652.1427   -24214.436   -559.80442    261.83458    39.486299    35.580678    26.719993 
   39800    235.90756   -319.06205       229892   -22628.926    1677.1216   -24306.047   -736.02469    263.27543    39.487589    35.583725    26.711784 
   40000    230.56758   -274.90176       229892   -22569.124    1639.1584   -24208.283   -535.02818    262.87674    39.488165    35.583758    26.708637 
   40200    234.11402   -261.07856       229892   -22590.453    1664.3709   -24254.824    -467.8827    263.04284    39.486606    35.582428    26.722289 
   40400    230.67172   -366.54212       229892   -22618.906    1639.8988   -24258.805   -893.90225    263.40044    39.486251    35.578877    26.714315 
   40600    238.35696   -337.62085       229892   -22491.665    1694.5349     -24186.2   -762.67878    265.86995    39.485382    35.576403    26.729255 
   40800    229.62329   -273.73571       229892   -22582.617    1632.4453   -24215.062   -557.02042    265.96878    39.486059    35.575047    26.734522 
   41000    238.30409   -239.69876       229892    -22554.54     1694.159   -24248.699   -373.02737    266.33288    39.485341    35.572825    26.736463 
   41200    240.57896   -213.48874       229892   -22475.093    1710.3316   -24185.425   -298.82687    266.18966     39.48598    35.572472    26.749043 
   41400     238.6987   -235.83531       229892   -22526.428    1696.9644   -24223.392   -392.88833    264.29486     39.48537    35.569745    26.753662 
   41600    241.33244   -385.33045       229892   -22530.563    1715.6883   -24246.251   -941.14383    267.00144     39.48383    35.567672    26.747786 
   41800    238.72131   -444.65809       229892   -22509.627    1697.1251   -24206.752   -1167.6106    266.82266    39.481294    35.568192    26.765672 
   42000     226.1627   -393.77752       229892   -22544.585    1607.8431   -24152.428   -1022.1408    268.00119     39.48226    35.567356     26.77538 
   42200    230.79134   -294.50136       229892   -22588.195    1640.7492   -24228.944   -586.05006    268.28955    39.483134     35.56755    26.755015 
   42400    232.94784   -609.67274       229892   -22551.622    1656.0802   -24207.702   -1866.5693    271.95175    39.483408    35.566835    26.747559 
   42600    236.54736   -305.83948       229892   -22610.562    1681.6701   -24292.233   -684.39353    272.84438    39.484435    35.565799    26.758801 
   42800    237.17867    -332.0975       229892   -22575.752    1686.1582    -24261.91   -770.17269    274.57421     39.48227    35.566134    26.777919 
   43000    239.00994   -339.52867       229892   -22576.684    1699.1771   -24275.861   -763.96296    275.85974    39.483882    35.565824    26.793115 
   43200    237.52014   -363.98246       229892   -22590.336    1688.5858   -24278.922   -854.19353    277.32462    39.482619    35.566458    26.779066 
   43400    235.65027   -310.87068       229892   -22559.814    1675.2924   -24235.106   -665.03677     277.9181    39.483274    35.568007    26.783555 
   43600    227.95273   -409.36582       229892   -22588.918    1620.5689   -24209.487    -1036.411    278.61904    39.483813    35.567181    26.800898 
   43800    232.47577   -137.91588       229892   -22596.228    1652.7242   -24248.952    7.5502412    280.07031    39.481717    35.566323    26.806325 
   44000    231.68772   -354.12505       229892   -22642.092    1647.1217   -24289.213   -883.46764    281.91269    39.482501    35.566032    26.808681 
   44200    234.28723   -436.51511       229892   -22606.056    1665.6023   -24271.658   -1184.8475    280.52043    39.482774    35.564387    26.809777 
   44400    240.37164   -345.14617       229892   -22624.793    1708.8578   -24333.651   -782.83036    279.53375    39.481092    35.562757    26.802884 
   44600    230.31079   -481.36569       229892    -22616.45    1637.3328   -24253.783   -1315.8352     280.8869    39.479046    35.563265    26.786167 
   44800    230.29424   -140.58738       229892   -22632.306    1637.2152   -24269.521   -23.795555    281.07557    39.477546    35.565961    26.786142 
   45000    228.59121   -350.23981       229892   -22628.608    1625.1079   -24253.716   -819.43442    280.71404    39.477401    35.566909    26.784565 
   45200    228.01277   -500.51708       229892   -22557.772    1620.9957   -24178.768   -1442.4616    281.87337    39.478171    35.565612    26.799308 
   45400    229.96236   -237.40833       229892   -22651.258    1634.8558   -24286.113   -371.43473    283.46743    39.479043    35.564901    26.803618 
   45600    233.53429   -397.34391       229892   -22595.966    1660.2494   -24256.215   -1020.7201    286.08808    39.480784    35.564501    26.800954 
   45800    236.45433   -272.71598       229892   -22634.156    1681.0087   -24315.165    -505.7456    287.04117    39.479849    35.563345    26.794814 
   46000    239.48344   -441.22062       229892   -22573.241    1702.5433   -24275.785   -1199.6494    288.75793    39.479227    35.563593    26.805596 
   46200    240.55362   -542.39365       229892   -22576.373    1710.1515   -24286.524   -1579.7547    290.77855    39.481331    35.564351    26.803516 
   46400    230.55539   -248.05528       229892   -22653.469    1639.0717   -24292.541   -386.07684    290.75627    39.483836    35.564793    26.803368 
   46600    232.00528   -312.78106       229892   -22670.108    1649.3794   -24319.487   -713.86321    291.39713    39.485288     35.56415    26.779444 
   46800    231.46523   -293.27436       229892   -22651.977      1645.54   -24297.517   -562.60999     290.8647    39.485048    35.562685    26.750815 
   47000    236.10211   -304.65423       229892   -22590.911    1678.5047   -24269.416   -660.44548    293.54109    39.486941    35.563837    26.746738 
   47200    235.18465    -331.5844       229892   -22671.972    1671.9822   -24343.955   -769.02159     293.5851     39.48716    35.564438    26.725749 
   47400    229.20727   -492.55753       229892   -22603.345    1629.4877   -24232.833   -1398.2919    293.15517     39.48562     35.56774    26.716082 
   47600    235.68817   -223.43818       229892   -22584.125    1675.5619   -24259.687   -350.90207    294.37447    39.482109    35.570512    26.704253 
   47800     230.8338   -335.97699       229892   -22598.079    1641.0511    -24239.13   -779.48498    294.99613    39.480415    35.568985    26.721522 
   48000    233.23095   -361.76012       229892    -22605.63    1658.0929   -24263.723   -891.44434    296.24563    39.479291    35.569711    26.706755 
   48200    235.15932   -368.09949       229892    -22630.12    1671.8022   -24301.922    -884.0798    295.71197    39.479356    35.567654    26.702104 
   48400    239.10207   -167.42783       229892   -22595.351    1699.8321   -24295.183   -86.117837    297.13825    39.480184    35.566011    26.705558 
   48600     232.5187   -302.05718       229892   -22655.078    1653.0294   -24308.107   -620.16067    298.39464    39.480767    35.567954    26.732159 
   48800    232.25251   -423.13115       229892   -22624.643     1651.137    -24275.78   -1104.7044    298.79894    39.480414    35.569061    26.727295 
   49000    237.23975   -288.66578       229892   -22605.176    1686.5924   -24291.768   -579.97614    299.21903    39.480544    35.568874    26.723427 
   49200    235.21312   -267.41591       229892   -22541.433    1672.1846   -24213.617   -509.85752    300.98888    39.478923    35.570338    26.759697 
   49400    234.34061   -392.41535       229892   -22612.741    1665.9818   -24278.722   -984.77025    303.51598    39.478067    35.572548    26.746016 
   49600    231.20203   -487.39425       229892    -22611.33    1643.6689   -24254.999   -1361.4801    303.89522    39.478539    35.571777    26.737413 
   49800    227.51689   -440.50854       229892   -22604.773    1617.4703   -24222.243   -1183.2498    301.02399    39.480184     35.57046    26.741454 
   50000    234.77119    -402.8045       229892   -22579.305    1669.0428   -24248.347   -1002.7043    302.78137    39.480365    35.571133    26.732108 
   50200    240.30228    -324.6809       229892   -22539.705    1708.3646    -24248.07   -705.98067    305.85305    39.482812    35.571675    26.737338 
   50400    234.18698   -353.64708       229892   -22574.862    1664.8895   -24239.752   -823.43989    306.49094    39.484266    35.574217    26.735936 
   50600    241.34835    -321.9762       229892   -22455.298    1715.8014   -24171.099   -722.79757    305.21526     39.48264    35.573657    26.753581 
   50800    230.50204   -309.53427       229892   -22616.259    1638.6925   -24254.952   -675.91546    305.94583     39.48203    35.573542    26.742155 
   51000    235.25613   -395.80232       229892   -22552.775    1672.4904   -24225.265   -992.77038    310.10544    39.483263    35.575022    26.741683 
   51200    233.43366   -279.92989       229892   -22578.485     1659.534   -24238.019    -579.4928    310.34601    39.481851    35.575401    26.724502 
   51400    235.07017   -454.97129       229892   -22578.554    1671.1683   -24249.723   -1248.0766    311.68265    39.482292    35.574594      26.7245 
   51600    227.42414   -346.30942       229892   -22609.804     1616.811   -24226.615   -792.81756    312.42488    39.482726    35.575618      26.7281 
   51800    237.44717    -335.0516       229892   -22600.955     1688.067   -24289.023   -738.89883    314.43431    39.484388    35.576706    26.733141 
   52000    228.62388   -349.80058       229892   -22642.975    1625.3402   -24268.315   -787.23249     315.9944    39.484489    35.577879    26.735477 
   52200    229.48667   -232.23854       229892   -22608.828     1631.474   -24240.302   -346.08128    317.89497    39.482271    35.580403    26.741129 
   52400    236.31488   -276.22801       229892    -22666.15    1680.0173   -24346.167   -502.54288    319.14295    39.483912    35.580145     26.75271 
   52600    234.23617   -224.63484       229892   -22533.986    1665.2393   -24199.225   -301.78202    321.32151    39.484931    35.579202    26.750669 
   52800    239.77979    -374.0149       229892   -22484.351    1704.6502   -24189.001   -894.48509    323.51011    39.484265    35.578669    26.751132 
   53000    234.58752   -455.77989       229892    -22482.17    1667.7371   -24149.907   -1209.2127    325.04011    39.484128    35.579505    26.751832 
   53200    235.50498   -303.33658       229892   -22591.871    1674.2595    -24266.13   -639.41212    326.19922    39.485494    35.578638     26.74682 
   53400    234.52233   -323.60383       229892   -22556.992    1667.2736   -24224.266    -728.8984    326.11021     39.48652    35.579052    26.745473 
   53600    230.92189   -354.15822       229892   -22651.221    1641.6773   -24292.898   -851.96046    326.41776    39.487151    35.578241    26.737109 
   53800    233.70804   -284.22515       229892    -22585.31    1661.4847   -24246.795   -566.08547    327.61321    39.487384    35.579233    26.745156 
   54000    240.23407   -313.63514       229892   -22566.292    1707.8798   -24274.172   -630.65755    327.37412     39.48527    35.578646    26.744022 
   54200    232.55168   -284.10585       229892    -22518.04    1653.2638   -24171.304   -558.76718    326.40332    39.485469    35.578773     26.76065 
   54400    243.09069    -419.2146       229892   -22497.704    1728.1881   -24225.892   -1079.7244    325.60744    39.484795    35.581556    26.784782 
   54600    241.06771   -241.77601       229892   -22530.455    1713.8063   -24244.261   -352.35145    329.19454    39.485174    35.581492    26.797798 
   54800    235.17026   -305.50616       229892   -22511.136      1671.88   -24183.016   -668.84257    331.44266    39.484291    35.580707    26.780337 
   55000    230.47965   -332.75904       229892   -22500.526    1638.5333   -24139.059   -757.15352     332.5034    39.483909    35.581287    26.783459 
   55200    227.24124   -345.71256       229892   -22638.056    1615.5107   -24253.567   -800.58809    330.98205    39.482337    35.579805    26.776295 
   55400    231.82378    -292.0611       229892    -22562.52     1648.089   -24210.609   -574.49803    333.29021    39.480382    35.580717    26.753303 
   55600    233.75939   -297.45685       229892   -22534.157    1661.8497   -24196.006   -614.20139    334.60396     39.48067    35.580156    26.761631 
   55800    241.86829   -307.94635       229892   -22395.038    1719.4978   -24114.536   -643.40958    335.95216    39.480633    35.578048     26.75422 
   56000    240.29855   -284.60848       229892   -22442.355    1708.3381   -24150.693   -562.83078    334.37584    39.482195    35.576227    26.749107 
   56200    230.17813    -246.1395       229892   -22446.286    1636.3897   -24082.675   -418.80017    335.05189    39.482019    35.577173    26.745429 
   56400    231.76422   -284.69886       229892   -22539.564    1647.6656    -24187.23   -567.42357    334.54321    39.484493    35.576894    26.743544 
   56600     226.3516   -274.67099       229892   -22661.152     1609.186   -24270.338   -490.52335    334.98892    39.483921    35.577932    26.735352 
   56800    231.05305    -484.0694       229892   -22580.899    1642.6097   -24223.508   -1376.1462    336.05836      39.4816    35.580466    26.727478 
   57000    228.81295    -368.5715       229892   -22623.566    1626.6843   -24250.251    -869.9209     336.0078    39.482301    35.581774    26.710852 
   57200    234.71762    -190.4719       229892    -22529.37     1668.662   -24198.032   -204.25659    337.22209    39.480424    35.581266    26.719533 
   57400    230.73855   -468.96296       229892   -22583.137    1640.3739   -24223.511   -1289.5645    338.01093    39.479339    35.581855    26.685882 
   57600    238.05075    -397.6591       229892   -22567.667     1692.358   -24260.025   -1056.9337    339.11244    39.479945    35.582761    26.672191 
   57800    236.35724   -316.45975       229892   -22567.212    1680.3184    -24247.53   -689.75472    338.49623    39.478917    35.582713    26.678488 
   58000    235.68212   -525.77002       229892   -22575.932    1675.5188   -24251.451    -1549.785    338.89072    39.477898     35.58205    26.673816 
   58200     237.9654   -292.92254       229892   -22567.555    1691.7512   -24259.307   -607.20956    338.54975    39.477726    35.584751    26.678324 
   58400    235.79912    -289.3122       229892   -22588.228    1676.3506   -24264.578   -625.34679    338.31723    39.478269    35.584135    26.685613 
   58600    234.99982   -474.46447       229892     -22590.7    1670.6682   -24261.369   -1301.2994    340.28313    39.477608    35.581642    26.678921 
   58800    234.16153   -403.28051       229892   -22610.802    1664.7087   -24275.511   -1067.7848    341.59159    39.478271    35.580504    26.658848 
   59000    237.87513   -422.42915       229892   -22545.613    1691.1095   -24236.723   -1069.3486    342.49289    39.477023     35.57762    26.634048 
   59200    232.59363   -347.63515       229892   -22592.618    1653.5621    -24246.18   -809.15601    343.38435    39.477768    35.574678    26.617411 
   59400    231.74027   -447.40377       229892   -22591.908    1647.4953   -24239.403   -1224.5937    344.88505    39.477301    35.571753    26.625577 
   59600    233.45275   -340.97675       229892   -22606.821    1659.6697   -24266.491   -818.48274    346.39838    39.476843    35.571933     26.62973 
   59800    233.46087   -216.23849       229892   -22581.293    1659.7275    -24241.02   -293.58739    347.22022    39.477114    35.571277    26.630973 
   60000     237.0579   -410.50099       229892   -22558.663    1685.2996   -24243.962   -1032.6477      349.948    39.476154    35.569757    26.635664 
   60200    239.27861   -337.85968       229892   -22615.553    1701.0871    -24316.64   -761.69637    351.69884    39.477354    35.571817    26.637001 
   60400    233.47555   -345.99084       229892   -22605.478    1659.8318    -24265.31   -791.02597    351.18334    39.478238    35.571622    26.624239 
   60600    231.68178   -233.19936       229892   -22577.755    1647.0795   -24224.834   -360.14693    355.04691    39.476726    35.573082    26.644067 
   60800    242.98507   -240.92635       229892   -22458.999    1727.4372   -24186.436    -343.9566    356.82781    39.473844    35.573352     26.64204 
   61000    234.86465   -500.06054       229892    -22578.95    1669.7073   -24248.657   -1433.6658    357.47841     39.47032    35.571399    26.627425 
   61200    237.53687   -332.80996       229892    -22583.69    1688.7047   -24272.394   -783.00096    357.77215    39.469344    35.570166    26.613112 
   61400    237.13657   -110.41611       229892   -22555.993    1685.8589   -24241.851    123.26013    358.21949    39.468986    35.568044    26.620336 
   61600    235.01797   -359.08534       229892   -22565.258    1670.7973   -24236.055   -877.29867    359.02698    39.468585    35.568317    26.626396 
   61800    233.33677   -293.55384       229892   -22596.142    1658.8452   -24254.987   -642.64237    358.42521    39.469475      35.5686     26.62834 
   62000    238.76776   -372.04128       229892   -22513.275    1697.4554    -24210.73   -955.83577    359.18874    39.469291    35.566516    26.628984 
   62200    239.39841   -371.73973       229892   -22540.956    1701.9388   -24242.895   -933.85234     360.4213    39.470346    35.562626    26.634597 
   62400    232.06734   -514.16596       229892   -22582.617    1649.8206   -24232.437   -1524.2951    361.31995    39.470397    35.557173    26.620543 
   62600    232.65909   -547.70524       229892   -22606.175    1654.0274   -24260.202   -1611.7334    361.88637    39.469732     35.55413    26.628071 
   62800    228.79774   -438.65824       229892   -22709.205    1626.5762   -24335.782   -1178.9975    362.20521    39.469244    35.553043     26.60664 
   63000    238.13711    -270.2242       229892   -22602.804    1692.9719   -24295.776    -510.6535    365.37757    39.470584    35.552632    26.604263 
   63200    230.40704    -223.3961       229892    -22650.33    1638.0171   -24288.347    -316.3301    365.33795    39.468062    35.552958     26.60435 
   63400    229.01922   -94.152604       229892   -22673.026    1628.1508   -24301.177    168.08694    366.68867    39.468056    35.552958    26.582217 
   63600    228.73039    -274.4468       229892   -22668.626    1626.0974   -24294.724   -543.57424    368.07869    39.465976    35.553457    26.578555 
   63800    229.75401   -291.57062       229892   -22673.025    1633.3745   -24306.399   -590.50979    368.59528    39.464014    35.553924    26.576993 
   64000    235.37788   -407.93278       229892   -22558.612     1673.356   -24231.968   -1067.7019    369.33425    39.464242    35.554253    26.555308 
   64200    236.31483   -481.56564       229892   -22518.326     1680.017   -24198.343   -1329.9106    369.75022    39.465593    35.554584     26.56795 
   64400    233.63077   -311.23219       229892   -22596.404    1660.9353   -24257.339    -665.7285    370.19373    39.463986     35.55386    26.588492 
   64600    231.84192   -470.96241       229892   -22624.731     1648.218   -24272.949   -1328.6764     372.3375    39.467554    35.553944    26.566025 
   64800     229.3234   -548.60089       229892   -22603.507    1630.3132   -24233.821   -1578.1408    374.87329    39.470122    35.557648    26.554861 
   65000    235.78217   -296.45105       229892   -22496.563    1676.2302   -24172.794   -601.41634    375.57984    39.470488    35.559418    26.557923 
   65200    233.06553   -409.01257       229892   -22553.582    1656.9169   -24210.499     -1086.78    376.37157    39.471948    35.558307    26.545402 
   65400    231.03507   -295.85244       229892   -22530.224    1642.4819   -24172.705   -613.75384    376.62916    39.470702    35.558352    26.556848 
   65600    235.61608   -363.76162       229892   -22473.143    1675.0494   -24148.192   -895.43824     376.9995    39.467829    35.557872    26.531127 
   65800     229.6203   -340.50447       229892   -22535.163     1632.424   -24167.587   -797.69079    377.88292    39.467638    35.557358    26.520586 
   66000    235.51293   -414.29447       229892   -22525.249     1674.316   -24199.565   -1125.4824    380.62991    39.464485     35.55986    26.530835 
   66200    230.38617   -389.10327       229892   -22597.037    1637.8687   -24234.905   -999.34821    381.30214    39.463208     35.56255    26.539765 
   66400    232.92714   -265.80786       229892   -22545.558    1655.9331   -24201.491    -509.8648    383.96044    39.463315    35.565165    26.540731 
   66600      234.253   -412.63605       229892   -22613.823    1665.3589   -24279.181   -1066.0454    385.55071      39.4639    35.566825    26.539367 
   66800    234.74162   -292.53803       229892   -22601.253    1668.8326   -24270.086   -626.35726    385.11015    39.465738    35.567255    26.565694 
   67000    234.68858   -237.95232       229892   -22670.981    1668.4556   -24339.436   -360.41236    387.16382    39.466078     35.56577    26.578825 
   67200    231.87726    -301.7132       229892   -22596.624    1648.4692   -24245.093   -651.07452    388.29572    39.465533    35.565868    26.569572 
   67400      234.371   -316.58714       229892   -22568.161    1666.1978   -24234.359   -711.82599    389.43945    39.466004    35.565289    26.569399 
   67600    239.86906   -379.32591       229892   -22539.222    1705.2848   -24244.507   -928.75354    391.88802    39.468027    35.564365    26.578805 
   67800    239.42443   -360.23037       229892   -22562.121    1702.1238   -24264.244   -812.34175    392.29373    39.467679    35.564217    26.580108 
   68000    233.55185   -313.95215       229892   -22635.513    1660.3743   -24295.888   -708.41742    391.77354    39.466367    35.565191    26.590395 
   68200    238.20286   -367.35358       229892   -22579.487    1693.4394   -24272.927    -860.0299    390.08283    39.467314    35.565982    26.595594 
   68400    234.94261   -358.18315       229892   -22528.745    1670.2615   -24199.006   -864.67072    390.03299    39.467384    35.565995    26.583967 
   68600    229.74025   -269.34464       229892   -22574.474    1633.2767   -24207.751   -528.39852    392.22284    39.467777    35.564623      26.5932 
   68800    242.93282   -500.53198       229892   -22538.352    1727.0658   -24265.418   -1386.7437    395.40721    39.468202    35.563085    26.587631 
   69000    233.10798   -286.75345       229892    -22554.97    1657.2187   -24212.189   -577.45539    394.69096    39.466782    35.561954    26.586014 
   69200     230.5928   -379.23756       229892   -22600.319    1639.3377   -24239.657   -977.04106    395.50109    39.466695     35.56065    26.584612 
   69400    229.16843    -355.8402       229892   -22621.991    1629.2115   -24251.202    -866.4658    397.14346    39.465937    35.560383    26.587387 
   69600    238.01215   -279.57579       229892   -22491.465    1692.0836   -24183.549   -540.77356    399.19583    39.464803    35.558876    26.562985 
   69800     234.8338   -389.04679       229892   -22529.262     1669.488    -24198.75    -979.1823    399.47719    39.464971     35.56054    26.592909 
   70000    232.45034   -280.11151       229892   -22567.344    1652.5434   -24219.888   -558.28738    400.18729    39.466957    35.560724    26.602044 
   70200    239.39929    -290.3047       229892   -22465.473    1701.9451   -24167.418   -567.26463    399.99424    39.470463    35.562002    26.610306 
   70400    241.49455   -208.55305       229892    -22482.75    1716.8407   -24199.591    -349.5027    399.21834     39.47046    35.561714    26.616443 
   70600    231.84826   -267.30611       229892   -22558.266     1648.263   -24206.529   -487.13519    400.18382    39.468276    35.563998    26.625054 
   70800    237.51618   -428.85089       229892   -22555.134    1688.5576   -24243.692   -1124.5697    401.43895    39.471588    35.564985     26.62461 
   71000    232.00103   -330.50073       229892   -22569.085    1649.3491   -24218.435   -729.54536    401.34021    39.471955    35.564247    26.623029 
   71200    227.66397    -498.3686       229892   -22582.834    1618.5159    -24201.35   -1402.4828    402.36632    39.471682    35.563809    26.624133 
   71400    231.74025   -418.33388       229892   -22590.764    1647.4952   -24238.259   -1146.9903    403.68237    39.470087    35.565153    26.635462 
   71600    240.89701   -328.02022       229892    -22508.58    1712.5927   -24221.173   -757.35445    404.79709    39.470516     35.56518    26.634573 
   71800    231.24198   -370.17459       229892   -22618.839    1643.9529   -24262.792   -891.12661    406.46543     39.46878    35.566953     26.62688 
   72000      237.284   -269.94861       229892   -22600.875     1686.907   -24287.782   -498.94637    408.10049    39.467629     35.56709    26.621461 
   72200      236.054    -339.2887       229892   -22467.462    1678.1626   -24145.625   -797.07483    409.48911    39.466922    35.566576    26.617583 
   72400    233.43413   -290.35542       229892   -22520.454    1659.5373   -24179.992   -580.58053    410.39186    39.465258     35.56864    26.624483 
   72600    234.47391   -482.16126       229892     -22489.4    1666.9294   -24156.329   -1358.3839    412.35986    39.464808    35.572119    26.618733 
   72800     233.1043   -263.18619       229892   -22508.571    1657.1926   -24165.763   -492.05249    415.33018     39.46426    35.574757    26.622198 
   73000    232.32368   -421.96465       229892   -22568.474     1651.643   -24220.117   -1126.6447     415.3131    39.463855    35.576733    26.609946 
   73200    241.76223   -251.64139       229892   -22508.093    1718.7438   -24226.837   -453.75648    415.99685    39.462989    35.580016    26.620745 
   73400    238.92233   -370.19927       229892   -22506.622    1698.5542   -24205.176   -869.27974    419.58089     39.45948    35.581937    26.616751 
   73600    235.60378   -448.98649       229892   -22531.704    1674.9619   -24206.666   -1262.7505    419.61226    39.456485    35.580157    26.628968 
   73800    229.01261   -301.29712       229892   -22596.884    1628.1038   -24224.988   -578.16449    419.80361    39.456976     35.58018    26.621206 
   74000    235.04631   -283.07177       229892   -22587.061    1670.9988    -24258.06   -570.60826    420.05348    39.455622    35.579901    26.615746 
   74200    239.70737   -287.24189       229892   -22480.367    1704.1353   -24184.502   -568.24367    421.48572    39.455294    35.579112    26.609519 
   74400    239.54066   -329.98784       229892   -22489.986    1702.9502   -24192.937   -739.55032    422.68904     39.45393    35.580081    26.619272 
   74600    236.02375   -411.41295       229892   -22544.148    1677.9476   -24222.096    -1060.016    423.57055    39.452519    35.581872    26.605649 
   74800     232.3921   -331.68302       229892   -22558.588    1652.1294   -24210.717   -739.64755    423.74559    39.453145    35.582006    26.618026 
   75000    231.95997   -390.81966       229892   -22565.516    1649.0573   -24214.573   -995.44665    424.48834    39.454485    35.580438    26.626338 
   75200    237.40264   -318.21329       229892   -22490.779    1687.7505   -24178.529   -781.05031    425.51369    39.454758    35.581387    26.634087 
   75400     227.7985   -425.99109       229892   -22541.484    1619.4724   -24160.956   -1148.8099    426.09966    39.453381    35.581515     26.65588 
   75600    234.81212   -261.90325       229892   -22487.524    1669.3339   -24156.857   -471.36065    427.20587    39.453049    35.579739    26.655409 
   75800    234.37091   -320.77857       229892   -22477.811    1666.1972   -24144.008    -735.7028    428.63089    39.456519    35.578353    26.643014 
   76000    242.47207   -320.47921       229892   -22486.748    1723.7902   -24210.538   -694.88542    431.10099    39.457586     35.57865    26.643444 
   76200      226.377     -355.508       229892   -22583.429    1609.3666   -24192.795   -873.79826    433.14854    39.457221    35.578144    26.628255 
   76400    237.24652   -492.81539       229892   -22551.076    1686.6406   -24237.717   -1387.2456    433.64869    39.457877    35.579657    26.639739 
   76600    235.18048   -496.06447       229892    -22492.26    1671.9526   -24164.213    -1399.925    434.34576     39.45749    35.576525    26.623983 
   76800    230.42084    -281.8724       229892   -22515.942    1638.1152   -24154.057    -559.9195    436.80247    39.456174    35.575319    26.621835 
   77000    236.41312   -265.22047       229892   -22542.028    1680.7157   -24222.744   -502.84614    438.16965    39.456962    35.574763    26.618888 
   77200    240.51811   -441.21963       229892   -22533.875    1709.8991   -24243.774   -1188.8325     439.0902    39.456099    35.574448    26.624893 
   77400     232.9879   -260.68017       229892   -22537.565     1656.365    -24193.93   -536.06883    439.92465    39.455622    35.575086    26.643702 
   77600    237.65815   -332.94581       229892   -22565.623    1689.5669    -24255.19   -789.33881    441.09882     39.45554    35.576247    26.639736 
   77800    232.71183   -516.58578       229892   -22587.552    1654.4024   -24241.955   -1479.4416     443.3148    39.457529    35.576905    26.663997 
   78000    233.90182   -329.06845       229892   -22553.548    1662.8623    -24216.41   -764.88002    445.37822    39.460044    35.575255    26.649243 
   78200    233.69947   -473.57157       229892   -22602.332    1661.4237   -24263.755   -1330.2176     445.9254    39.459695    35.577821    26.625663 
   78400    238.59084   -560.29217       229892    -22554.82    1696.1977   -24251.018   -1704.4771    448.84473    39.458039    35.576948    26.632635 
   78600    235.90604   -241.12172       229892   -22571.719    1677.1107    -24248.83   -393.56953    448.34799     39.45936    35.577956    26.637737 
   78800    236.47584    -352.6581       229892   -22541.717    1681.1616   -24222.879   -828.74925    449.71173    39.461866    35.575841    26.623218 
   79000    232.73283   -234.30516       229892    -22512.68    1654.5517   -24167.231   -358.34124    452.23727     39.46099    35.575075    26.631345 
   79200    237.43106   -301.13283       229892   -22471.345    1687.9525   -24159.298    -674.5493    453.10896    39.461262    35.572683    26.649642 
   79400    236.67637   -474.91002       229892    -22509.99    1682.5872   -24192.577    -1299.495    454.05778    39.461294    35.574369     26.66785 
   79600    231.07901   -424.55869       229892   -22583.812    1642.7943   -24226.607   -1093.4547    454.98278    39.463188    35.572011    26.676135 
   79800    232.10766   -379.63748       229892    -22565.27    1650.1072   -24215.377   -948.53252    453.80249     39.46246    35.572988    26.697218 
   80000    235.49545   -281.30435       229892    -22616.16    1674.1918   -24290.352   -551.51615     454.0473    39.462937    35.573816    26.710059 
   80200    233.16631   -173.34264       229892   -22637.881    1657.6334   -24295.515   -114.32583    454.63386    39.463122    35.574072    26.711436 
   80400    236.02166   -320.37119       229892   -22647.473    1677.9327   -24325.406   -709.71942    454.91996    39.464609    35.573018    26.717408 
   80600    229.63627   -513.63338       229892   -22644.693    1632.5375    -24277.23   -1490.9275    456.75552    39.465927     35.57045     26.71681 
   80800     233.2674   -303.66717       229892   -22572.027     1658.352   -24230.379   -652.39683    458.11112    39.465502    35.568203    26.697987 
   81000    227.21386   -413.80532       229892   -22642.337    1615.3161   -24257.653   -1080.9194    458.51213    39.464845    35.567062    26.683102 
   81200    236.10554   -379.64266       229892   -22589.682     1678.529   -24268.211   -952.37792    459.95066    39.464219    35.564796    26.659973 
   81400    234.17143   -220.16931       229892   -22571.663     1664.779   -24236.442   -304.50834    461.72136    39.461729     35.56525    26.647956 
   81600    229.75011   -208.95788       229892   -22636.022    1633.3468   -24269.369   -290.07877    462.12536    39.459344    35.566488    26.646725 
   81800    230.56222   -207.03801       229892   -22699.476    1639.1203   -24338.597   -243.16864    463.05331    39.459789    35.566251    26.646624 
   82000    235.47735   -425.73303       229892   -22657.453    1674.0631   -24331.516   -1135.5976    464.08236    39.458746      35.5646    26.636356 
   82200    235.59274   -146.36143       229892   -22575.645    1674.8834   -24250.529   -21.123182    464.94103    39.460116    35.563576    26.634245 
   82400    235.25271   -486.57998       229892    -22569.33    1672.4661   -24241.796   -1380.7137    467.00801    39.460113    35.563621    26.642671 
   82600    240.45905   -374.07718       229892   -22452.082    1709.4792   -24161.562    -928.8026    468.19292    39.460981    35.562255    26.642681 
   82800    232.73905    -341.6754       229892   -22575.499    1654.5959   -24230.095   -753.96123    470.41688    39.461606    35.559947    26.661993 
   83000    239.84927   -537.45098       229892   -22480.788    1705.1441   -24185.932     -1574.59    469.67908    39.460697    35.558427    26.667651 
   83200    233.78738   -302.23761       229892   -22513.811    1662.0487    -24175.86    -644.6701    467.43844    39.458056    35.556084    26.659678 
   83400    240.11473    -287.4949       229892   -22535.737    1707.0313   -24242.768   -598.86025    466.83944     39.45595    35.554426     26.66137 
   83600    229.89958   -340.05398       229892   -22633.956    1634.4094   -24268.365   -804.61606     469.3115    39.454826    35.553402    26.672322 
   83800    234.04911   -278.07335       229892   -22580.283    1663.9094   -24244.192   -547.61471    472.35986    39.454431    35.554018    26.651847 
   84000    234.87301   -266.80744       229892   -22563.984    1669.7667    -24233.75   -472.37998    470.66284    39.455435    35.556735    26.645193 
   84200    233.66948   -459.69414       229892   -22539.123    1661.2106   -24200.334   -1300.1568    470.83616    39.457953    35.558473    26.639984 
   84400    237.99261   -399.40872       229892   -22616.049    1691.9447   -24307.993   -1024.6683    471.40838    39.460211    35.559147    26.633358 
   84600    235.36254   -331.33776       229892   -22546.622    1673.2469   -24219.869   -740.66748    470.70419    39.462429    35.561448    26.646185 
   84800    231.59264   -365.53838       229892   -22579.049    1646.4458   -24225.494   -853.55504    473.32667    39.463599    35.561477    26.659595 
   85000    232.57037   -237.62127       229892   -22561.369    1653.3967   -24214.765    -380.6333    473.32796    39.462726    35.560317    26.661743 
   85200    235.31795   -313.91936       229892   -22556.024    1672.9299   -24228.954   -703.30614     474.3744    39.459476    35.557548    26.651839 
   85400    227.10674   -421.87983       229892   -22650.731    1614.5545   -24265.286   -1089.7632    475.01149    39.458767    35.553209    26.649112 
   85600     232.7311   -593.21537       229892   -22613.525    1654.5394   -24268.064    -1749.557    475.36581    39.460042    35.553027    26.643026 
   85800    230.30066   -425.43712       229892   -22599.805    1637.2608   -24237.066   -1140.9383    476.30916    39.459606    35.552116    26.634052 
   86000    229.75181   -456.82639       229892   -22560.816    1633.3589   -24194.175    -1279.534    477.43494    39.460149     35.55064    26.657693 
   86200    238.39233   -400.47307       229892   -22506.689    1694.7864   -24201.476   -1022.5995    477.16535    39.460382    35.550427    26.676544 
   86400    237.15794   -388.95412       229892   -22595.345    1686.0108   -24281.356   -982.77347    479.37652     39.45927    35.551189    26.695349 
   86600    237.14221   -393.20108       229892   -22524.042    1685.8989   -24209.941   -999.09931    480.18631    39.458655    35.552298    26.712576 
   86800    228.63246   -385.11693       229892   -22562.464    1625.4012   -24187.866   -994.04419     482.1516    39.457345    35.554835    26.721129 
   87000     236.2152   -499.27184       229892   -22536.978    1679.3087   -24216.287   -1405.6152    483.07371    39.457464    35.556539    26.717105 
   87200     237.7552   -590.80852       229892   -22509.281    1690.2568   -24199.537   -1789.5506    485.51767    39.457128    35.554592    26.731876 
   87400     227.7238   -499.85718       229892   -22619.041    1618.9413   -24237.983    -1417.001    482.55966    39.455679    35.553814    26.697056 
   87600    235.24988    -359.1895       229892   -22514.843     1672.446   -24187.289   -909.05932    485.23693    39.454321    35.552833     26.70697 
   87800    236.42061   -493.47616       229892   -22615.283     1680.769   -24296.052   -1382.3569    487.09073    39.453705    35.552441    26.717927 
   88000    239.72769   -353.36293       229892    -22584.16    1704.2797    -24288.44   -802.29752    487.65136    39.454528    35.551705    26.726254 
   88200     232.4602   -504.36094       229892   -22590.563    1652.6135   -24243.177   -1460.7134    486.99465    39.454749    35.550874    26.738663 
   88400    242.60586   -268.85142       229892   -22513.199    1724.7414    -24237.94   -512.99555    486.89044    39.454526    35.549696    26.727011 
   88600    233.54263   -317.40171       229892   -22562.931    1660.3087   -24223.239   -724.04963    490.77752    39.456703    35.548277    26.731821 
   88800    231.58915   -404.01936       229892    -22587.81     1646.421   -24234.231   -1062.6466    491.03321    39.455283    35.547787     26.75757 
   89000    233.29188   -232.71854       229892   -22597.665    1658.5261   -24256.191   -357.01852    490.63921    39.456368    35.549582    26.777899 
   89200    238.67519   -230.81617       229892   -22590.257    1696.7973   -24287.054   -339.88566    491.59847    39.455266    35.550537    26.791477 
   89400    235.81447   -506.55726       229892   -22530.112    1676.4598   -24206.572   -1472.4446    492.45395    39.454593    35.550747     26.81081 
   89600    228.51634   -322.71948       229892   -22670.228    1624.5757   -24294.804   -722.56042    493.40677    39.454065    35.550812    26.804554 
   89800    239.67637   -331.72555       229892   -22582.741    1703.9149   -24286.656   -782.29753    496.40267    39.451587      35.5497    26.808717 
   90000    236.74492   -382.93741       229892   -22613.316    1683.0745   -24296.391   -924.44303    495.64958    39.451796    35.547972    26.821062 
   90200    232.14824   -283.43057       229892   -22622.164    1650.3957    -24272.56   -576.92429    495.60115    39.450127     35.54979    26.824418 
   90400    239.82142   -604.01314       229892   -22554.771    1704.9461   -24259.718   -1853.6608    496.26139     39.44864    35.549305    26.822639 
   90600    236.86003   -361.30387       229892   -22565.878    1683.8929   -24249.771   -895.73727    496.60211    39.447854    35.546833    26.834814 
   90800    237.60044    -254.9111       229892   -22552.189    1689.1566   -24241.345   -473.18487    496.78109    39.449847    35.545846    26.842831 
   91000    233.73355   -248.52357       229892    -22579.79     1661.666   -24241.456   -457.36143    497.59779    39.450654    35.547102     26.84216 
   91200    237.99818   -357.03208       229892   -22640.778    1691.9843   -24332.762   -908.33312    496.67806    39.451763    35.548887     26.82839 
   91400    234.28323   -227.91196       229892    -22575.67    1665.5738   -24241.244   -343.53856    497.96434     39.45397    35.550663    26.828574 
   91600    238.97919   -297.65651       229892   -22507.495    1698.9585   -24206.453   -628.76681    501.42081    39.454458    35.550424    26.828442 
   91800    240.98458    -267.3133       229892   -22558.207    1713.2153   -24271.422   -508.40641    500.91795    39.454659    35.550946    26.839777 
   92000    235.60163   -338.41688       229892   -22557.693    1674.9466   -24232.639   -793.94118    500.92298    39.454646    35.550693    26.859002 
   92200    235.47856   -244.55134       229892   -22580.363    1674.0717   -24254.435   -440.90078    503.17469    39.455119    35.549571    26.886394 
   92400    238.74819   -286.29675       229892   -22557.234    1697.3163    -24254.55   -609.97599    504.11505    39.455612       35.551    26.879579 
   92600    241.80764   -400.77618       229892   -22520.345    1719.0666   -24239.411   -1024.9794    504.33465    39.457276    35.551337    26.870628 
   92800    228.93074   -383.30529       229892   -22599.699    1627.5217   -24227.221   -967.54402    504.02438    39.458536      35.5521    26.874756 
   93000    235.87695   -249.94225       229892   -22596.003     1676.904   -24272.907   -438.15081    503.52958    39.457033     35.55383    26.873625 
   93200    238.04432   -423.36885       229892   -22554.048    1692.3123   -24246.361   -1135.7509    505.35091    39.456788    35.554031    26.856804 
   93400    229.67101   -353.11199       229892   -22642.594    1632.7845   -24275.379   -866.18445    508.25084    39.455474    35.552861    26.848438 
   93600    235.05312   -475.92434       229892   -22619.036    1671.0471   -24290.083   -1326.8227    508.02126    39.454525    35.553536    26.852188 
   93800    234.81418   -440.55704       229892   -22657.556    1669.3485   -24326.905   -1185.2169     509.1835    39.454668    35.552204    26.845908 
   94000    228.95328   -509.22995       229892   -22665.254     1627.682   -24292.936   -1458.7892    509.97489    39.453323    35.552144    26.840077 
   94200    234.99441   -347.49352       229892   -22609.075    1670.6298   -24279.705   -770.53457    510.79821    39.453207    35.551663     26.82367 
   94400    231.70572   -413.50928       229892   -22631.302    1647.2497   -24278.552   -1074.3738    511.34555    39.453262    35.551321    26.805846 
   94600    233.78937   -418.29224       229892   -22639.325    1662.0629   -24301.388   -1071.8051    511.54557    39.450664    35.551174    26.794095 
   94800    237.33725   -317.93495       229892    -22602.86    1687.2856   -24290.146    -707.8583    509.66908    39.451059    35.549588    26.784065 
   95000    232.98926   -402.91324       229892   -22649.693    1656.3747   -24306.068   -1065.4803    510.89346    39.450202    35.548023    26.798071 
   95200    232.64885   -529.65088       229892   -22598.266    1653.9546   -24252.221   -1536.2522    511.76277    39.451785     35.54911    26.801281 
   95400    239.81166   -255.91896       229892   -22544.982    1704.8768   -24249.859   -467.32954    510.88018    39.451092    35.548435    26.807834 
   95600    236.26354   -468.02644       229892   -22558.582    1679.6523   -24238.234   -1332.8307    513.18029    39.450083    35.548986     26.80628 
   95800    241.38188   -331.47468       229892    -22570.92    1716.0398    -24286.96   -786.64679    513.32062    39.449284    35.549435     26.81092 
   96000    234.59651   -416.91659       229892    -22555.82     1667.801   -24223.621    -1120.534    513.78549    39.449208    35.550602    26.840397 
   96200    240.55739   -266.98633       229892   -22527.803    1710.1783   -24237.981   -523.38111    515.63178    39.447381    35.552147     26.83555 
   96400    235.62156    -396.9568       229892   -22606.026    1675.0883   -24281.114   -1009.4422    516.93545    39.447392    35.551985    26.835447 
   96600    235.33003   -372.05466       229892   -22633.094    1673.0158    -24306.11   -924.58698     518.8012    39.449804    35.552086    26.838745 
   96800    231.24061   -338.47179       229892   -22585.232    1643.9431   -24229.175   -781.64263    519.52316     39.45131    35.551567    26.850051 
   97000    233.40848   -276.81531       229892   -22587.876     1659.355   -24247.231   -512.92341    519.45695    39.451506    35.552062    26.885044 
   97200    229.65254   -202.17985       229892   -22595.743    1632.6532   -24228.396   -294.13418    521.12065      39.4542    35.550947     26.87283 
   97400    228.65925   -412.86018       229892   -22573.901    1625.5917   -24199.493   -1090.1197    521.50921    39.454481    35.549667    26.877714 
   97600     239.6087   -239.38756       229892   -22557.173    1703.4338   -24260.607   -409.24943    522.05315    39.456763    35.551935    26.856241 
   97800    241.10192   -195.13041       229892   -22578.373    1714.0495   -24292.422   -218.53383    521.41638     39.45518    35.551803    26.844315 
   98000    230.24785   -382.60795       229892   -22599.378    1636.8854   -24236.264   -962.94587    522.48456    39.454566    35.550136    26.832487 
   98200    234.28371   -384.61875       229892   -22619.516    1665.5772   -24285.093   -937.60811    523.51483    39.455386    35.551279    26.833486 
   98400    235.64835   -457.74338       229892     -22530.2    1675.2788   -24205.478   -1274.8892    524.10048    39.456001     35.55086     26.82383 
   98600    232.20954   -330.15097       229892   -22542.547    1650.8315   -24193.379   -761.38447    527.40441    39.456066    35.551234    26.814372 
   98800    229.79708   -309.67212       229892   -22550.882    1633.6808   -24184.563    -645.4258    525.20295    39.456149    35.551459    26.819079 
   99000    234.46252    -367.9637       229892   -22628.092    1666.8484    -24294.94   -864.37889    526.15776    39.454384    35.552241    26.830312 
   99200    236.32781   -580.70265       229892   -22580.255    1680.1092   -24260.365   -1752.1675    526.80425     39.45345    35.554036    26.832671 
   99400    234.86766   -332.73325       229892   -22577.353    1669.7287   -24247.082   -791.34112    524.81949    39.453134    35.555064     26.82448 
   99600    241.20778   -410.87646       229892   -22603.415    1714.8021   -24318.217   -1064.8341    526.45024    39.452468    35.556253    26.840286 
   99800    231.69385   -286.17098       229892   -22595.282    1647.1653   -24242.448   -577.88154    525.97402    39.452168     35.55666    26.846532 
  100000     231.3402   -460.32107       229892   -22596.588    1644.6511   -24241.239   -1262.7248     526.6603    39.453692    35.556376    26.854016 
  100200    230.81784   -280.55932       229892   -22653.425    1640.9376   -24294.363   -552.58271    525.30523    39.454541    35.554863    26.863426 
  100400     237.7195   -390.79756       229892   -22568.805    1690.0031   -24258.808   -954.57431    526.45568    39.455193    35.558708    26.877078 
  100600    234.35595   -462.41661       229892    -22628.41    1666.0908   -24294.501   -1289.3459    527.24251    39.454944    35.559789    26.864044 
  100800    231.30779   -272.06366       229892   -22662.282    1644.4207   -24306.702   -548.23501    527.63732    39.456781    35.562302    26.889662 
[...]
 3975800    222.24023   -74.975238       229892   -24646.428    1579.9573   -26226.385    189.60807    4652.1359    38.763245    36.515569     26.90338 
 3976000    225.41729   -105.22088       229892    -24686.64    1602.5438   -26289.183    117.12833    4650.8375    38.762319     36.51374    26.904928 
 3976200    220.90729   -150.66566       229892   -24687.783    1570.4811   -26258.264    -59.31015    4650.7096    38.762234    36.513811    26.911196 
 3976400    218.30834   -14.941466       229892   -24722.378    1552.0046   -26274.383    479.96742    4649.9944    38.760061    36.513739    26.910324 
 3976600      224.113   -163.80124       229892    -24709.65    1593.2713   -26302.921   -141.34673    4650.1778    38.760701    36.516845    26.911881 
 3976800     224.2601   -224.54647       229892   -24627.219     1594.317   -26221.536   -383.45839    4651.7713    38.759135    36.515877    26.906337 
 3977000    215.84823   -153.30811       229892   -24749.464    1534.5151   -26283.979    -60.19191    4650.5449    38.754623     36.51582    26.913092 
 3977200    224.12501    2.5830051       229892   -24648.514    1593.3567   -26241.871    528.60023    4649.7913     38.75216    36.515467     26.92169 
 3977400    219.93108   -42.243594       229892   -24667.095     1563.541   -26230.636    384.21939    4649.5142     38.74767    36.511032    26.916379 
 3977600    226.02636   -200.28771       229892    -24688.09    1606.8738   -26294.964   -284.72138    4650.8122    38.745235    36.510936    26.923936 
 3977800    226.71917   -29.481043       229892   -24647.234    1611.7992   -26259.033    417.85964    4650.0375    38.741497    36.509139    26.914489 
 3978000     218.1545    24.693548       229892   -24706.381    1550.9109   -26257.292    638.28553    4650.3252    38.738377    36.507385    26.923338 
 3978200    223.76539   -146.85909       229892   -24644.094    1590.8001   -26234.894   -51.705667    4651.5458    38.738889    36.506334      26.9204 
 3978400    222.61676   -126.11777       229892   -24683.966    1582.6342     -26266.6    36.441164    4650.8855    38.734908    36.503126    26.919702 
 3978600    220.16879    40.645545       229892   -24668.522     1565.231   -26233.753    674.61036    4651.1438    38.735628    36.501015    26.929244 
 3978800    223.11001   -87.025095       229892   -24649.973    1586.1408   -26236.114    160.37404    4650.9637    38.734011    36.502226    26.929939 
 3979000    230.27719   -128.11021       229892   -24672.449     1637.094   -26309.543    49.531194    4650.9776    38.729992    36.500852    26.926836 
 3979200    219.88552   -208.56811       229892   -24718.572    1563.2171   -26281.789   -294.46312    4651.5892    38.728323    36.501985     26.90782 
 3979400    224.40369   -104.29512       229892   -24686.919    1595.3379   -26282.257     109.7585    4650.3201    38.728755     36.50274    26.916103 
 3979600    227.64233   -2.7082646       229892   -24700.919    1618.3621   -26319.282    529.75075    4650.4298    38.728101    36.503768    26.902351 
 3979800    226.73444   -102.85641       229892   -24688.093    1611.9078   -26300.001    114.66121    4650.6015    38.728108    36.502411    26.904958 
 3980000    228.24714   -119.69795       229892    -24691.22    1622.6618   -26313.882    48.345193    4652.1214    38.729852    36.504243    26.903494 
 3980200    222.23834   -97.981481       229892   -24668.148    1579.9439   -26248.092    142.53246    4650.9702    38.729595    36.503362     26.91114 
 3980400    222.41018   -128.76277       229892   -24674.439    1581.1656   -26255.605    13.930492    4651.0975    38.728358    36.504468     26.91413 
 3980600     225.8915    -113.7471       229892   -24628.027    1605.9151   -26233.942    51.961156    4651.1421    38.728199    36.504261    26.910664 
 3980800    231.71729   -7.2898391       229892   -24640.106     1647.332   -26287.438    475.04462    4651.3831    38.728621    36.503232    26.911994 
 3981000    222.30861   -31.970324       229892   -24667.846    1580.4435    -26248.29    404.28948    4650.2691    38.730662    36.501964    26.909358 
 3981200    226.74747   -111.29589       229892   -24644.497    1612.0003   -26256.497     62.47821    4651.4347    38.730033    36.501483    26.910118 
 3981400    225.28122   -129.78827       229892    -24643.94    1601.5765   -26245.517    4.6894586    4650.6995     38.73175    36.506448    26.902157 
 3981600    223.96126   -48.795404       229892   -24690.959    1592.1925   -26283.151    339.96345    4650.2261    38.731524    36.510862    26.897671 
 3981800     224.6775   -57.092037       229892   -24665.015    1597.2844     -26262.3    279.62998    4651.9565    38.732648    36.507541    26.904956 
 3982000    220.45048   -131.77608       229892   -24712.182    1567.2336   -26279.416   -29.262422    4651.7375    38.733627    36.508609    26.914547 
 3982200    219.69153   -67.998295       229892   -24731.869    1561.8381   -26293.708    223.39726    4650.0114    38.736639    36.507577    26.915918 
 3982400    229.70635    -183.6194       229892   -24662.984    1633.0357   -26296.019   -184.95317    4651.3839    38.738429    36.505087    26.913044 
 3982600    221.91266   -31.204707       229892    -24689.15    1577.6286   -26266.778    375.58115    4651.1671    38.737881    36.504897    26.908472 
 3982800    225.74005   -182.08132       229892   -24624.422    1604.8384    -26229.26   -174.41544    4650.1652    38.737974    36.501223    26.902147 
 3983000     224.0262   -148.89778       229892   -24620.388    1592.6542   -26213.042   -70.383636    4650.6038    38.737634    36.498081    26.914829 
 3983200    224.26684    45.152713       229892   -24647.172     1594.365   -26241.537    670.26338    4648.5518     38.74079    36.494373    26.916451 
 3983400    228.43902     25.22638       229892   -24598.114     1624.026    -26222.14    615.87357    4649.5274     38.74216    36.491619    26.907579 
 3983600    223.38009   -72.514315       229892   -24653.341    1588.0609   -26241.402    228.18943    4649.9986     38.74417    36.490429    26.922225 
 3983800    227.68908    36.816258       229892   -24641.529    1618.6945   -26260.223    690.61167    4649.4671    38.746615    36.488785    26.918209 
 3984000    220.52723    4.6488252       229892   -24684.007    1567.7792   -26251.786    545.73334    4649.8673    38.746561    36.483678     26.91296 
 3984200    224.96075      -68.636       229892   -24648.115    1599.2982   -26247.413     279.3037    4649.8276    38.748112    36.481874    26.919262 
 3984400    226.86642   -71.998304       229892   -24674.686     1612.846   -26287.532    209.66116    4649.8336     38.74677    36.477259    26.908635 
 3984600    225.49764   -26.357605       229892   -24674.779     1603.115   -26277.894    416.02244    4649.9819    38.748383    36.476225    26.911646 
 3984800    226.62111   -30.282115       229892   -24660.045    1611.1021   -26271.147     373.1346     4650.993    38.745548    36.475623    26.910427 
 3985000    228.70389   -186.45556       229892   -24673.961     1625.909    -26299.87   -193.26889    4650.5501    38.746885    36.471351    26.908201 
 3985200    230.14748   -50.994676       229892   -24645.365    1636.1718   -26281.537    307.67185    4651.7601    38.745033    36.466007    26.907787 
 3985400    225.11751   -14.138998       229892   -24658.286    1600.4126   -26258.698    469.08324    4650.9812    38.747064    36.459852    26.903581 
 3985600     229.1284   -83.738744       229892   -24624.598    1628.9269   -26253.525    149.74947    4650.7636    38.746343    36.456993    26.898277 
 3985800    224.90614   -148.70684       229892   -24646.539    1598.9099   -26245.449   -37.692782    4651.6567    38.748422    36.453704    26.896598 
 3986000    231.94029   -107.68283       229892   -24544.072    1648.9173   -26192.989    70.502968    4649.9085    38.745026    36.449804    26.901842 
 3986200    233.14558   -87.570409       229892   -24572.018     1657.486   -26229.504    191.78166    4650.9166    38.744606    36.446915    26.894579 
 3986400    221.17166    27.340024       229892   -24684.231    1572.3606   -26256.591    608.12176    4649.3487    38.745124    36.447766    26.894491 
 3986600     223.6642   -104.47748       229892   -24660.903    1590.0807   -26250.984    115.11032    4651.2147    38.745691    36.447374    26.894015 
 3986800    224.11744   -68.586426       229892   -24649.876    1593.3029   -26243.179    251.62217    4650.7407    38.745456    36.447533     26.89737 
 3987000    222.85021    50.301999       229892   -24619.542    1584.2939   -26203.836    697.85613    4648.7236    38.746882    36.448424     26.90149 
 3987200    218.47036    -89.26867       229892   -24744.787    1553.1565   -26297.944    150.11922    4650.2567     38.74609    36.449334    26.905081 
 3987400    223.13103   -27.674827       229892   -24672.546    1586.2902   -26258.837    418.33348      4649.88    38.747225    36.446738    26.910208 
 3987600    225.77886   -44.893919       229892   -24627.469    1605.1143   -26232.583      299.922    4651.2481    38.745619    36.446795    26.901656 
 3987800    225.63959    -31.43971       229892   -24666.888    1604.1242   -26271.013     383.6135    4651.9376    38.744623     36.44629    26.910747 
 3988000    226.86935    -106.4148       229892   -24638.873    1612.8668    -26251.74    108.98479    4652.2914    38.745263    36.446428    26.907224 
 3988200    226.43268   -103.02212       229892   -24648.903    1609.7624   -26258.666    86.162243    4652.4522    38.747873    36.444356    26.912469 
 3988400    219.58549   -66.890874       229892   -24651.951    1561.0842   -26213.035    239.70738    4651.5346    38.745183    36.442699    26.914096 
 3988600    222.00408   -9.7103715       229892   -24694.827    1578.2785   -26273.105    478.96062    4651.7609    38.750561    36.440096    26.917616 
 3988800    225.73885   -71.294869       229892   -24688.232    1604.8299   -26293.062    195.49667     4652.171    38.750958      36.4393    26.919322 
 3989000    227.92309   -79.483588       229892   -24628.373    1620.3581   -26248.731    206.45558    4652.3362    38.752796    36.438157     26.90899 
 3989200    222.04544    -87.05794       229892   -24672.097    1578.5725   -26250.669    179.99126    4652.6805    38.752552     36.43588    26.910266 
 3989400    226.69581    2.7192841       229892   -24680.718    1611.6331   -26292.351    522.24161    4651.4175    38.754924    36.435121    26.912517 
 3989600    230.17801    11.147114       229892   -24612.308    1636.3889   -26248.697    540.94362     4650.955    38.752161    36.438721    26.903642 
 3989800     227.1071   -69.399429       229892   -24656.574    1614.5571   -26271.131    231.86114    4653.3052    38.755197    36.438061    26.900201 
 3990000    226.08695   -31.130885       229892   -24683.056    1607.3046   -26290.361    387.17203    4651.3994    38.753525    36.438737    26.912999 
 3990200    214.73608    31.968523       229892   -24709.179    1526.6086   -26235.787    602.22602    4650.6623    38.755088    36.438953    26.906277 
 3990400    222.31615   -72.137269       229892   -24643.079    1580.4971   -26223.576    225.72978    4651.7133    38.755076    36.440485    26.901912 
 3990600    221.15466   -86.279709       229892   -24678.407    1572.2398   -26250.647    189.96696    4652.0081    38.754079    36.439596    26.913396 
 3990800    231.04014   -21.669498       229892   -24626.636     1642.518   -26269.154    420.00248    4651.5598    38.751958    36.442155    26.903008 
 3991000    225.03135   -153.39115       229892    -24644.83    1599.8001    -26244.63   -107.17726    4652.4798    38.752303    36.444199    26.903202 
 3991200    226.03167    5.7244457       229892   -24603.259    1606.9116   -26210.171    549.14794    4651.4744    38.751606    36.447172    26.898215 
 3991400    224.06919    -114.1216       229892   -24597.884    1592.9598   -26190.843     46.56942    4651.8727    38.752651    36.449443    26.902032 
 3991600    223.46307   -194.00271       229892   -24652.203    1588.6508   -26240.854   -206.26347    4651.0242    38.752555     36.45208     26.89992 
 3991800    217.40905    38.753898       229892   -24737.669    1545.6114    -26283.28    661.93815    4649.0693    38.753644    36.456319    26.889721 
 3992000    223.35945   -27.279745       229892    -24664.55    1587.9141   -26252.464    403.84678    4649.9174     38.75289     36.45794    26.897484 
 3992200    223.01876    33.593594       229892    -24671.39    1585.4921   -26256.882    646.98901    4650.7429    38.751379     36.45934    26.899265 
 3992400    223.68894    33.625943       229892   -24675.506    1590.2566   -26265.763    657.02076    4649.7208    38.751105    36.459623    26.902201 
 3992600    229.79671   -108.63306       229892   -24658.585    1633.6781   -26292.263    99.362145    4651.5717    38.750679    36.461276    26.893936 
 3992800    225.50469   -149.18817       229892   -24661.171    1603.1651   -26264.336   -79.882364    4652.9875    38.753364    36.464071    26.898875 
 3993000    213.84509   -91.947104       229892   -24757.719    1520.2744   -26277.994    168.98037    4650.2462     38.75113    36.463605    26.902293 
 3993200    222.15124   -58.429841       229892   -24647.126    1579.3247   -26226.451    256.45209    4649.8225    38.749892    36.463988    26.894502 
 3993400    228.10214   -7.2772327       229892   -24625.099     1621.631    -26246.73    439.14089    4650.9149    38.750583    36.464706    26.893735 
 3993600    226.43003   -16.293059       229892   -24649.821    1609.7436   -26259.564     443.1438      4650.88    38.752309    36.467738    26.902449 
 3993800    228.03522   -104.88192       229892   -24652.172    1621.1553   -26273.328    98.086596    4650.6002    38.750704    36.467186    26.895515 
 3994000    226.77035    -129.2451       229892   -24656.397    1612.1631    -26268.56    22.205429    4651.8207    38.748139    36.468735    26.900159 
 3994200    223.44475   -62.273105       229892   -24695.028    1588.5206   -26283.549    271.18766    4650.3992    38.746712    36.471097     26.90011 
 3994400    229.02453   -37.320064       229892   -24645.944    1628.1885   -26274.133    367.46994    4650.1219    38.749219    36.473069    26.904637 
 3994600    216.45853   -27.821264       229892   -24700.201    1538.8539   -26239.055    400.15821     4651.285    38.748933    36.477736    26.904537 
 3994800    229.46656    84.948088       229892   -24641.406     1631.331   -26272.737    855.89741    4649.3229    38.750993    36.477257    26.910071 
 3995000    232.22252   -92.808738       229892   -24618.805    1650.9238   -26269.728    144.03234    4652.7019    38.752542    36.477034    26.905458 
 3995200    217.46797   -155.26753       229892   -24708.225    1546.0302   -26254.255    -73.13803    4652.7479    38.752762     36.47889    26.891642 
 3995400    226.60469   -39.605915       229892    -24622.85    1610.9853   -26233.836     371.5437    4653.3517    38.749738    36.479179    26.884539 
 3995600    227.36673    2.5470749       229892   -24583.784    1616.4028   -26200.187    511.63317    4651.6803    38.752478    36.480269    26.890546 
 3995800    226.39363    27.517786       229892    -24604.59    1609.4848   -26214.075     587.3442    4651.3677    38.753186    36.479387    26.883047 
 3996000    233.47515   -65.570114       229892   -24532.835     1659.829   -26192.664    289.60286    4651.6692    38.752719    36.478409    26.878678 
 3996200    223.07056    49.279116       229892   -24593.063    1585.8604   -26178.923    716.16903    4650.2405    38.754774    36.481302    26.880832 
 3996400     224.3083   -115.98823       229892   -24681.919    1594.6598   -26276.579    58.205308    4653.1766    38.753173    36.483708    26.884095 
 3996600    222.17489   -108.38218       229892   -24642.635    1579.4928   -26222.128    77.039623    4651.8986    38.752731    36.481986    26.895423 
 3996800    217.45517   -17.204769       229892   -24693.893    1545.9392   -26239.832    459.24185     4652.092     38.75576    36.481345    26.895257 
 3997000     224.8777   -76.078195       229892   -24566.451    1598.7077   -26165.158    208.92769    4651.5771    38.755066    36.482893    26.879964 
 3997200    221.24165   -169.41872       229892   -24630.507    1572.8582   -26203.365   -187.26734    4652.0539    38.753965    36.483303    26.877569 
 3997400    219.89964   -68.871563       229892   -24692.291    1563.3175   -26255.608    196.79444    4650.7247    38.753796    36.486592    26.875731 
 3997600    223.58725    -8.241938       229892   -24652.837    1589.5336   -26242.371    503.46581    4651.1801    38.754559    36.488166    26.881912 
 3997800    220.69213   -140.52017       229892   -24763.107    1568.9516   -26332.059   -35.500959    4651.5678    38.752936    36.491398    26.887716 
 3998000     222.0685    -55.75412       229892     -24660.6    1578.7365   -26239.336    332.38221    4651.4474    38.753285    36.490989     26.88774 
 3998200    223.55818   -4.5143543       229892   -24665.129    1589.3269   -26254.456    469.48684    4650.8483    38.753384    36.491992    26.880867 
 3998400    233.81089   -31.014917       229892   -24568.017    1662.2159   -26230.233    401.87924    4652.9729    38.752234    36.490735    26.880142 
 3998600    224.50925   -101.17413       229892   -24679.715    1596.0883   -26275.803    123.48915     4652.836    38.751565    36.488679    26.886771 
 3998800     228.1511   -83.500352       229892   -24641.694    1621.9791   -26263.673    213.80755    4652.9052    38.751821    36.489071    26.888313 
 3999000    229.03145   -71.926035       229892   -24599.524    1628.2377   -26227.762    228.92468    4652.2307    38.750363    36.489265    26.891443 
 3999200    225.56138   -20.400607       229892   -24676.162    1603.5682    -26279.73    439.49443    4651.1315    38.753462    36.486269    26.898893 
 3999400    219.54434   -96.007581       229892   -24705.031    1560.7916   -26265.822    104.47228    4652.5044    38.753204    36.486055    26.889361 
 3999600    217.83081   -107.54148       229892   -24710.511    1548.6098    -26259.12    96.241579    4653.7345     38.75767    36.485753    26.890493 
 3999800    224.61796    -91.12499       229892   -24635.292    1596.8612   -26232.154    149.65806     4652.302    38.755745    36.485982    26.891843 
 4000000    229.62898   -20.563944       229892   -24593.429    1632.4857   -26225.915     422.3025    4652.6451    38.759251     36.48654    26.894064 
Loop time of 6913.06 on 120 procs for 4000000 steps with 9010 atoms

Performance: 499.924 ns/day, 0.048 hours/ns, 578.615 timesteps/s
98.1% CPU use with 120 MPI tasks x no OpenMP threads

MPI task timing breakdown:
Section |  min time  |  avg time  |  max time  |%varavg| %total
---------------------------------------------------------------
Pair    | 0.19662    | 1625.8     | 5848.2     |4572.4 | 23.52
Neigh   | 0.32562    | 103.14     | 395.57     |1259.7 |  1.49
Comm    | 27.231     | 2765.9     | 6193       |3933.7 | 40.01
Output  | 80.78      | 80.851     | 82.26      |   1.5 |  1.17
Modify  | 157.63     | 2285.2     | 6761.9     |5341.8 | 33.06
Other   |            | 52.21      |            |       |  0.76

Nlocal:    75.0833 ave 232 max 0 min
Histogram: 55 5 25 5 0 0 0 0 4 26
Nghost:    602.167 ave 987 max 0 min
Histogram: 10 3 7 2 8 16 26 18 18 12
Neighs:    0 ave 0 max 0 min
Histogram: 120 0 0 0 0 0 0 0 0 0
FullNghs:  7408.43 ave 29024 max 0 min
Histogram: 70 20 0 0 0 0 0 2 15 13

Total # of neighbors = 889012
Ave neighs/atom = 98.6695
Neighbor list builds = 427858
Dangerous builds = 0
write_data 		${DIR}/data.${NAME}_run
write_data 		run_13/data.${NAME}_run
write_data 		run_13/data.ibeam_cooling_13_run
Total wall time: 1:55:31
