
### Dimensions ###


### IMPORT ATOMS ###
read_data ../Box_Setup/data.Ibeam_235K
  orthogonal box = (0 0 0) to (78.752 72.9753 40.0024)
  6 by 5 by 4 MPI processor grid
  reading atoms ...
  9010 atoms
  reading velocities ...
  9010 velocities
group water type 2
2386 atoms in group water
group graphite type 1
6624 atoms in group graphite


# Define potential
#
pair_style          sw
pair_coeff * * MLC_e.sw C mW

# Add velocity/set timestep
#

fix		1 graphite setforce 0.0 0.0 0.0
velocity 	graphite set 0.0 0.0 0.0
velocity            water create ${START_TEMP} ${SEED} rot yes dist gaussian
velocity            water create 235 ${SEED} rot yes dist gaussian
velocity            water create 235 2344 rot yes dist gaussian
timestep            5.0

# Define output
#
compute 1 water msd
compute 2 water temp


thermo	            100
thermo_style custom step c_2 press vol etotal ke pe c_1[4] density

# Neighbor lists
#
neigh_modify        delay 0 every 1 check yes


# Set fixes
#
fix                 2 water momentum 10 linear 1 1 1 rescale
fix                 3 all nve
fix                 4 water temp/csvr ${START_TEMP} ${START_TEMP} 500.0 928347
fix                 4 water temp/csvr 235 ${START_TEMP} 500.0 928347
fix                 4 water temp/csvr 235 235 500.0 928347

# Run 0.05 ns equilibration
#
dump                1 all custom 100 ${DIR}/eq.${NAME}.dump id type x y z vx vy vz
dump                1 all custom 100 run_13/eq.${NAME}.dump id type x y z vx vy vz
dump                1 all custom 100 run_13/eq.ibeam_cooling_13.dump id type x y z vx vy vz
run                 10000
Neighbor list info ...
  update every 1 steps, delay 0 steps, check yes
  max neighbors/atom: 2000, page size: 100000
  master list distance cutoff = 6.67472
  ghost atom cutoff = 6.67472
  binsize = 3.33736, bins = 24 22 12
  1 neighbor lists, perpetual/occasional/extra = 1 0 0
  (1) pair sw, perpetual
      attributes: full, newton on
      pair build: full/bin/atomonly
      stencil: full/bin/3d
      bin: standard
Per MPI rank memory allocation (min/avg/max) = 0.4724 | 3.952 | 4.75 Mbytes
Step c_2 Press Volume TotEng KinEng PotEng c_1[4] Density 
       0          235   -397.42353       229892   -22660.138    1670.6695   -24330.807            0   0.88510766 
     100    229.62535   -243.10415       229892   -22655.925    1632.4599   -24288.385   0.79359718   0.88510766 
     200    234.48622   -327.47864       229892   -22675.226    1667.0169   -24342.243    1.2106507   0.88510766 
     300    234.00547   -412.08344       229892   -22664.327    1663.5991   -24327.926     1.537175   0.88510766 
     400    230.53549   -320.28741       229892   -22665.731    1638.9302   -24304.661    1.9417228   0.88510766 
     500    233.50915   -335.35114       229892   -22644.273    1660.0707   -24304.344     2.228144   0.88510766 
     600    239.33376   -317.29194       229892   -22577.702    1701.4793   -24279.181    2.5759177   0.88510766 
     700    236.69888   -346.48642       229892   -22577.161    1682.7472   -24259.909    3.0177495   0.88510766 
     800    237.89998   -394.30122       229892   -22558.608    1691.2861   -24249.894    3.2749891   0.88510766 
     900    233.05849   -163.16889       229892   -22578.014    1656.8669   -24234.881    3.7320749   0.88510766 
    1000    237.88412   -473.71044       229892   -22615.343    1691.1734   -24306.517    4.0278249   0.88510766 
    1100    235.53192   -505.99963       229892   -22588.924     1674.451   -24263.375    4.3831656   0.88510766 
    1200    236.99192   -252.65882       229892   -22600.443    1684.8305   -24285.273    4.8698529   0.88510766 
    1300    237.22231   -311.23373       229892   -22560.847    1686.4684   -24247.315    5.2586738   0.88510766 
    1400    240.66399    -355.5277       229892   -22591.963    1710.9361   -24302.899    5.5255057   0.88510766 
    1500    229.89879     -450.857       229892   -22626.207    1634.4038   -24260.611    5.7346804   0.88510766 
    1600    235.74385   -178.29621       229892   -22612.228    1675.9577   -24288.186    6.0591787   0.88510766 
    1700    235.27849    -197.5189       229892   -22627.323    1672.6494   -24299.973    6.2613691   0.88510766 
    1800    237.77962   -270.05836       229892    -22595.42    1690.4305   -24285.851    6.5927652   0.88510766 
    1900    237.11623   -327.46845       229892   -22550.688    1685.7143   -24236.403    6.9357731   0.88510766 
    2000    237.75022   -358.40979       229892   -22516.515    1690.2215   -24206.737    7.3619852   0.88510766 
    2100    231.12009   -332.58496       229892    -22610.01    1643.0864   -24253.097    7.7951205   0.88510766 
    2200    238.74077   -272.33281       229892    -22583.81    1697.2635   -24281.073    8.0621202   0.88510766 
    2300    233.82673    -449.8067       229892   -22555.769    1662.3285   -24218.097    8.4025538   0.88510766 
    2400    239.74624   -414.22145       229892   -22563.238    1704.4116   -24267.649    8.6816676   0.88510766 
    2500    233.82489   -471.27039       229892   -22602.119    1662.3154   -24264.434    8.8022674   0.88510766 
    2600    233.52614   -248.79162       229892   -22609.624    1660.1915   -24269.816    9.2447905   0.88510766 
    2700    234.00883   -456.20459       229892   -22612.524    1663.6231   -24276.147    9.6595421   0.88510766 
    2800    241.95028   -412.15105       229892   -22558.823    1720.0807   -24278.903    9.9938348   0.88510766 
    2900    241.90206   -122.11552       229892   -22574.951    1719.7378   -24294.689    10.254298   0.88510766 
    3000    238.32491   -442.70196       229892   -22570.436    1694.3071   -24264.743    10.425244   0.88510766 
    3100    238.79523    -482.9523       229892   -22552.166    1697.6507   -24249.817    10.764501   0.88510766 
    3200    233.27819   -208.98913       229892     -22607.6    1658.4288   -24266.029    11.043046   0.88510766 
    3300    231.45044   -288.42452       229892   -22680.092    1645.4349   -24325.527    11.404657   0.88510766 
    3400    235.44717   -360.43125       229892   -22616.052    1673.8486     -24289.9    11.662157   0.88510766 
    3500    233.84079   -372.23302       229892   -22603.886    1662.4284   -24266.314    12.022236   0.88510766 
    3600    235.54647   -438.48099       229892   -22592.741    1674.5545   -24267.295    12.459045   0.88510766 
    3700    241.16523   -333.91952       229892   -22566.856    1714.4996   -24281.356    12.826876   0.88510766 
    3800    235.86333   -46.219301       229892   -22573.206    1676.8071   -24250.013    13.224099   0.88510766 
    3900    237.40498   -387.88864       229892   -22570.948    1687.7671   -24258.715     13.61175   0.88510766 
    4000    239.60396   -513.94403       229892   -22607.919    1703.4001   -24311.319    14.053484   0.88510766 
    4100    233.80503   -269.30808       229892   -22584.697    1662.1742   -24246.871    14.360678   0.88510766 
    4200    230.26925   -258.84675       229892   -22569.724    1637.0375   -24206.761    14.631292   0.88510766 
    4300    233.51963   -363.07924       229892   -22646.354    1660.1453   -24306.499    14.884296   0.88510766 
    4400    232.76988   -471.56774       229892   -22608.751     1654.815   -24263.566    15.310066   0.88510766 
    4500    232.66291   -313.85155       229892   -22630.761    1654.0546   -24284.815    15.564883   0.88510766 
    4600    236.64145   -460.57458       229892   -22677.371    1682.3389    -24359.71    15.997008   0.88510766 
    4700    235.69917   -320.31196       229892   -22616.866    1675.6401   -24292.506    16.427741   0.88510766 
    4800     237.1606   -329.17114       229892   -22587.042    1686.0297   -24273.072    16.483052   0.88510766 
    4900    234.72506   -441.37151       229892   -22537.314    1668.7149   -24206.029    16.778147   0.88510766 
    5000    231.08757   -298.82692       229892   -22592.599    1642.8551   -24235.454    17.245893   0.88510766 
    5100    236.51755   -369.00038       229892   -22551.036    1681.4581   -24232.494    17.785028   0.88510766 
    5200    232.06035   -400.19381       229892   -22596.726    1649.7709   -24246.496    18.209487   0.88510766 
    5300    232.87242   -285.26859       229892   -22661.674     1655.544   -24317.218    18.764494   0.88510766 
    5400    234.72743   -440.02117       229892   -22658.209    1668.7317   -24326.941    19.316738   0.88510766 
    5500    238.02798    -515.2335       229892   -22654.962    1692.1961   -24347.158    19.683687   0.88510766 
    5600    233.71888   -137.97524       229892   -22683.371    1661.5617   -24344.933     20.20684   0.88510766 
    5700    232.02076   -551.89504       229892   -22657.988    1649.4894   -24307.478    20.765322   0.88510766 
    5800    232.28455   -349.06116       229892   -22638.204    1651.3648   -24289.569    21.257745   0.88510766 
    5900    229.76625   -173.74645       229892   -22654.965    1633.4616   -24288.426    21.578534   0.88510766 
    6000    233.94918   -383.71118       229892   -22674.322     1663.199   -24337.521    21.713389   0.88510766 
    6100    234.42038   -337.08721       229892   -22705.497    1666.5489   -24372.046    22.246718   0.88510766 
    6200     227.4192   -355.33115       229892   -22728.772    1616.7759   -24345.548    22.784193   0.88510766 
    6300    236.70016   -374.72303       229892   -22656.685    1682.7564   -24339.441    22.960865   0.88510766 
    6400    233.22079   -399.35053       229892    -22694.09    1658.0207    -24352.11    23.138333   0.88510766 
    6500    231.97049   -355.18743       229892    -22707.24     1649.132   -24356.372    23.572662   0.88510766 
    6600    232.85435    -348.3527       229892    -22688.76    1655.4156   -24344.176    23.975875   0.88510766 
    6700    226.73783    -416.8181       229892   -22713.313    1611.9318   -24325.245    24.421483   0.88510766 
    6800    234.46746   -301.47694       229892   -22692.269    1666.8836   -24359.153    24.774734   0.88510766 
    6900     233.3455   -453.47196       229892   -22626.451    1658.9073   -24285.358    25.203309   0.88510766 
    7000    231.30547   -378.47144       229892   -22630.638    1644.4042   -24275.042    25.380101   0.88510766 
    7100    234.25241   -246.12873       229892   -22638.404    1665.3548   -24303.759    25.265239   0.88510766 
    7200    232.28537    -370.5259       229892    -22696.73    1651.3706     -24348.1    25.345312   0.88510766 
    7300    231.32836   -172.26496       229892   -22736.958     1644.567   -24381.525     25.18235   0.88510766 
    7400    231.55051    -392.0939       229892   -22693.621    1646.1463   -24339.767    25.408587   0.88510766 
    7500    232.90856   -412.64531       229892   -22660.926     1655.801   -24316.727    25.553233   0.88510766 
    7600    234.31323   -113.72495       229892   -22621.877    1665.7871   -24287.664    25.879169   0.88510766 
    7700    241.57059   -353.99939       229892   -22643.991    1717.3814   -24361.372    26.346464   0.88510766 
    7800    228.58664   -237.91316       229892   -22703.706    1625.0754   -24328.781    26.554276   0.88510766 
    7900    236.32434   -293.08932       229892   -22662.576    1680.0845   -24342.661    26.918931   0.88510766 
    8000    237.60403   -294.97194       229892   -22599.897    1689.1822    -24289.08     27.40034   0.88510766 
    8100    239.38498   -370.40557       229892   -22586.502    1701.8433   -24288.346    28.054285   0.88510766 
    8200    230.88014   -332.19234       229892   -22609.106    1641.3805   -24250.487    28.541606   0.88510766 
    8300    239.81965   -191.77926       229892   -22557.763    1704.9335   -24262.696    28.682026   0.88510766 
    8400     235.7973   -283.30514       229892    -22545.01    1676.3377   -24221.348    29.130915   0.88510766 
    8500    240.00961   -353.62938       229892   -22579.517     1706.284   -24285.801    29.433643   0.88510766 
    8600    236.88099   -361.22345       229892   -22589.659    1684.0419   -24273.701    29.777141   0.88510766 
    8700    235.51764   -188.85814       229892   -22608.738    1674.3495   -24283.087    30.237693   0.88510766 
    8800    233.79795   -276.24928       229892   -22613.396    1662.1238   -24275.519    30.326922   0.88510766 
    8900    231.44612   -220.61679       229892   -22645.954    1645.4041   -24291.358    30.319379   0.88510766 
    9000     233.9427   -316.64789       229892   -22605.585    1663.1529   -24268.738    30.414142   0.88510766 
    9100    238.12352    -356.9133       229892    -22639.85    1692.8753   -24332.725    30.672642   0.88510766 
    9200    235.32119   -417.86576       229892   -22588.406    1672.9529   -24261.359    30.679648   0.88510766 
    9300    231.03343   -291.70935       229892    -22648.66    1642.4703   -24291.131    30.930849   0.88510766 
    9400    234.37971   -285.06891       229892   -22614.902    1666.2597   -24281.162    31.350392   0.88510766 
    9500    231.32866    -418.1462       229892    -22653.69    1644.5691   -24298.259    31.710268   0.88510766 
    9600    234.55777   -246.22135       229892   -22652.054    1667.5256   -24319.579    31.830497   0.88510766 
    9700    231.86757   -420.16753       229892   -22601.191    1648.4003   -24249.591     31.94785   0.88510766 
    9800    231.34631   -387.83586       229892   -22532.177    1644.6946   -24176.871    32.356299   0.88510766 
    9900    235.64541   -365.60804       229892   -22562.855    1675.2579   -24238.113    32.816082   0.88510766 
   10000    231.80454   -429.47604       229892   -22552.769    1647.9523   -24200.722    33.053066   0.88510766 
Loop time of 18.3829 on 120 procs for 10000 steps with 9010 atoms

Performance: 235.001 ns/day, 0.102 hours/ns, 543.983 timesteps/s
98.1% CPU use with 120 MPI tasks x no OpenMP threads

MPI task timing breakdown:
Section |  min time  |  avg time  |  max time  |%varavg| %total
---------------------------------------------------------------
Pair    | 0.00049591 | 4.3096     | 15.421     | 242.7 | 23.44
Neigh   | 0.00043225 | 0.1402     | 0.5226     |  46.4 |  0.76
Comm    | 0.040839   | 7.5448     | 16.959     | 210.7 | 41.04
Output  | 0.18066    | 0.18091    | 0.19185    |   0.2 |  0.98
Modify  | 0.35984    | 6.0429     | 18.011     | 284.7 | 32.87
Other   |            | 0.1646     |            |       |  0.90

Nlocal:    75.0833 ave 232 max 0 min
Histogram: 54 6 25 5 0 0 0 0 4 26
Nghost:    604.817 ave 1003 max 0 min
Histogram: 10 7 3 0 10 20 27 13 20 10
Neighs:    0 ave 0 max 0 min
Histogram: 120 0 0 0 0 0 0 0 0 0
FullNghs:  7468.33 ave 29122 max 0 min
Histogram: 70 20 0 0 0 0 0 2 15 13

Total # of neighbors = 896200
Ave neighs/atom = 99.4673
Neighbor list builds = 570
Dangerous builds = 0
write_data 	    ${DIR}/data.${NAME}_eq
write_data 	    run_13/data.${NAME}_eq
write_data 	    run_13/data.ibeam_cooling_13_eq

undump              1
unfix               4



################################################
#######         Run Simulation         #########
################################################

reset_timestep      0
timestep	    10.0
log                 ${DIR}/log.run_${NAME}
log                 run_13/log.run_${NAME}
log                 run_13/log.run_ibeam_cooling_13
