
# Set production fixes - Nose/Hoover
#
fix                 4 water temp/csvr ${START_TEMP} ${END_TEMP} 500.0 928347
fix                 4 water temp/csvr 235 ${END_TEMP} 500.0 928347
fix                 4 water temp/csvr 235 225 500.0 928347


## divide "droplet" into core and surface
#region		core_reg cylinder z 135 135 44.6 20 INF units box
#region		surface_reg cylinder z 135 135 44.6 20 INF units box side out
#group		core dynamic all region core_reg
#group		surface dynamic all region surface_reg

## compute pressure core
#compute        peratom_core core stress/atom NULL
#compute        p_core core reduce sum c_peratom_core[1] c_peratom_core[2] c_peratom_core[3]
#variable       press_core equal -(c_p_core[1]+c_p_core[2]+c_p_core[3])/(3*1249982.5)


## compute pressure surface
#compute        peratom_surf surface stress/atom NULL
#compute        p_surf surface reduce sum c_peratom_surf[1] c_peratom_surf[2] #c_peratom_surf[3]
#variable       press_surf equal -(c_p_surf[1]+c_p_surf[2]+c_p_surf[3])/(3*42395)

## compute total pressure of drop
compute        peratom water stress/atom NULL
compute        p water reduce sum c_peratom[1] c_peratom[2] c_peratom[3]
variable       press equal -(c_p[1]+c_p[2]+c_p[3])/(3*58187)


# compute order parameter
compute        3 all orientorder/atom nnn NULL cutoff 3.5

# compute center of mass of bridge
compute 	4 water com

# Run simulation
thermo_style        custom step c_2 press vol etotal ke pe v_press c_1[4] c_4[*]
thermo              200
dump		     1 water custom 400 ${DIR}/prod.${NAME}.dump id type x y z vx vy vz c_3[*] c_peratom[*]
dump		     1 water custom 400 run_15/prod.${NAME}.dump id type x y z vx vy vz c_3[*] c_peratom[*]
dump		     1 water custom 400 run_15/prod.ibeam_cooling_15.dump id type x y z vx vy vz c_3[*] c_peratom[*]
run                 ${STEPS}
run                 4000000
Neighbor list info ...
  update every 1 steps, delay 0 steps, check yes
  max neighbors/atom: 2000, page size: 100000
  master list distance cutoff = 6.67472
  ghost atom cutoff = 6.67472
  binsize = 3.33736, bins = 24 22 12
  2 neighbor lists, perpetual/occasional/extra = 1 1 0
  (1) pair sw, perpetual
      attributes: full, newton on
      pair build: full/bin/atomonly
      stencil: full/bin/3d
      bin: standard
  (2) compute orientorder/atom, occasional, copy from (1)
      attributes: full, newton on
      pair build: copy
      stencil: none
      bin: none
Per MPI rank memory allocation (min/avg/max) = 0.8658 | 6.238 | 7.207 Mbytes
Step c_2 Press Volume TotEng KinEng PotEng v_press c_1[4] c_4[1] c_4[2] c_4[3] 
       0    235.57403   -361.39042       229892   -22674.454    1674.7504   -24349.204   -882.16091    26.373998    39.437127    35.561906    26.719845 
     200    228.06193   -320.26961       229892   -22705.663    1621.3452   -24327.008   -703.98955    27.389766    39.436833    35.563113    26.713365 
     400    226.84512   -362.98247       229892   -22689.067    1612.6946   -24301.762   -887.69374    27.707818    39.436708    35.564986    26.717121 
     600    239.27433   -278.39781       229892   -22572.339    1701.0567   -24273.396   -538.26271    29.202486    39.434893    35.564576    26.717818 
     800    238.43974   -400.51232       229892   -22573.467    1695.1234   -24268.591   -1040.0504     30.67201    39.434338    35.566626    26.730796 
    1000    230.37959   -516.71999       229892   -22642.566    1637.8219   -24280.388   -1497.3078    31.338129    39.434314    35.567242    26.722236 
    1200    236.11368   -379.30663       229892   -22619.189    1678.5869   -24297.776   -938.28373    32.866051    39.435113    35.565244    26.728487 
    1400    233.93621   -567.94769       229892   -22630.456    1663.1068   -24293.563    -1668.065    33.720605    39.436747    35.564272    26.727089 
    1600     232.5994   -361.61578       229892    -22617.05    1653.6031   -24270.653   -861.75408    34.797615    39.439437    35.561788    26.731246 
    1800    242.61691   -374.58118       229892   -22589.235    1724.8199   -24314.055   -927.47953    34.820064    39.439826    35.564014     26.73033 
    2000    242.78301   -267.86955       229892   -22502.062    1726.0007   -24228.062   -526.05011    35.994609    39.439326    35.565058     26.73273 
    2200    231.51991   -475.70523       229892   -22561.937    1645.9288   -24207.866   -1299.5843    37.389511    39.443017     35.56517    26.746659 
    2400    235.10151   -480.32251       229892   -22560.301    1671.3912   -24231.692     -1330.84     38.33124    39.443068    35.568645    26.754844 
    2600     236.2014   -307.93706       229892     -22610.4    1679.2106    -24289.61   -658.98383    39.691179    39.443839    35.568041    26.752607 
    2800    239.76801   -338.20095       229892   -22520.908    1704.5664   -24225.474    -771.2756    40.414573     39.44396    35.568368    26.761042 
    3000    236.60934   -364.43556       229892   -22527.564    1682.1107   -24209.675   -871.19009    41.865818    39.445025    35.568952    26.758182 
    3200    238.05174   -403.32661       229892   -22619.477    1692.3651   -24311.842   -1012.1692    42.204091     39.44576    35.570303    26.774809 
    3400    236.86012   -381.33819       229892   -22626.011    1683.8936   -24309.905   -939.64311    42.582974    39.445298    35.570075    26.775675 
    3600    231.14206    -403.7313       229892   -22619.407    1643.2425   -24262.649   -1078.9484    43.981327      39.4445    35.567831     26.78217 
    3800    238.25907   -283.35093       229892   -22569.508     1693.839   -24263.347   -567.51826    44.843934    39.444583    35.568097    26.775974 
    4000    235.54348   -368.47125       229892   -22618.966    1674.5332     -24293.5   -910.69641    46.210344    39.445102    35.566999     26.79815 
    4200    234.22655   -336.77947       229892   -22574.302    1665.1709   -24239.473   -813.05465    46.684209    39.443531    35.568279    26.768437 
    4400    232.58645   -359.18926       229892   -22575.194     1653.511   -24228.705   -883.71048    47.460346    39.443259     35.56599    26.771105 
    4600    233.20136     -307.286       229892   -22653.273    1657.8826   -24311.156   -683.04437    48.642292    39.444221    35.566939    26.777354 
    4800    234.92779   -521.42225       229892   -22546.239    1670.1561   -24216.395   -1480.3295     48.94774    39.444394    35.567671    26.775899 
    5000    235.73038   -300.25244       229892   -22576.029    1675.8619   -24251.891   -594.84018    50.567164    39.444096    35.567927    26.791051 
    5200    232.40308   -455.32509       229892   -22557.671    1652.2074   -24209.879   -1243.1417    51.998994    39.444882    35.566497    26.793255 
    5400    236.72787   -544.62098       229892   -22606.883    1682.9533   -24289.837   -1596.0521    52.736547    39.445923    35.566188    26.792407 
    5600    233.79971    -435.1858       229892   -22619.732    1662.1364   -24281.868   -1161.7184      53.7726      39.4457    35.566725    26.773691 
    5800    236.34729   -426.96573       229892    -22555.23    1680.2477   -24235.478    -1107.091    54.529236    39.446512    35.567565    26.774612 
    6000    239.73262   -219.00632       229892   -22604.861    1704.3148   -24309.176   -338.04334    55.909313    39.445691    35.568359    26.757064 
    6200    230.42311   -475.43051       229892   -22620.075    1638.1314   -24258.206   -1356.8802    57.524012    39.443528    35.571754    26.749796 
    6400     227.1853   -419.11145       229892   -22619.412     1615.113   -24234.525   -1107.9929    58.016821    39.442783    35.574709    26.749343 
    6600    231.86781   -369.98819       229892   -22608.364    1648.4021   -24256.766   -876.96911    59.645295    39.441895    35.573803    26.766436 
    6800    232.84309    -379.1529       229892    -22588.02    1655.3355   -24243.355   -920.25932    61.345946    39.441163    35.575566    26.752978 
    7000    235.44455   -454.78214       229892   -22569.188    1673.8299   -24243.018   -1247.3512     61.93291    39.441825    35.574384    26.778419 
    7200    226.23569   -389.72715       229892   -22698.349     1608.362   -24306.711   -996.36846    61.997122    39.441624    35.574286    26.774363 
    7400     232.1584    -462.5294       229892   -22624.058    1650.4679   -24274.526   -1275.0799    63.244978    39.439618     35.57314    26.750421 
    7600    243.48601   -209.32458       229892   -22564.561    1730.9985    -24295.56   -256.60704    63.496137    39.438733      35.5709    26.744333 
    7800    225.15232   -430.64363       229892   -22682.142    1600.6601   -24282.802   -1145.8726    65.123082    39.437839    35.568355    26.740883 
    8000    241.81321    -437.4657       229892   -22550.854    1719.1062    -24269.96   -1201.2387    66.254069    39.437645    35.567327    26.755689 
    8200    235.96183    -243.6563       229892   -22582.724    1677.5074   -24260.231   -405.02285    67.114071    39.437111    35.567742    26.747908 
    8400    232.08499   -293.71742       229892   -22545.325     1649.946   -24195.271   -643.85931    68.296913    39.435265    35.568755    26.745243 
    8600    236.94808   -283.69871       229892   -22583.363    1684.5189   -24267.881    -579.3819    68.682857    39.433743    35.570687    26.730289 
    8800    234.29995   -524.18976       229892   -22588.194    1665.6927   -24253.886   -1487.4777    70.497837    39.433787    35.571092    26.711698 
    9000    232.59763   -417.68506       229892   -22564.446    1653.5905   -24218.036   -1098.3034    70.790284    39.433628    35.569574    26.714326 
    9200    239.18809   -287.75782       229892   -22511.273    1700.4436   -24211.717   -604.86513    71.498175      39.4339    35.569277     26.71484 
    9400    239.27484   -193.83674       229892   -22542.407    1701.0603   -24243.467   -215.37771    73.173961    39.432762     35.56804    26.710501 
    9600    235.08666   -274.28596       229892   -22591.699    1671.2856   -24262.985   -529.68827    74.468109    39.432182    35.567896    26.719618 
    9800     232.8645   -377.19426       229892   -22481.439    1655.4877   -24136.926   -949.61709     75.30445    39.433457    35.568893    26.742156 
   10000    236.19518   -336.33059       229892   -22540.457    1679.1663   -24219.624   -805.88767    76.648129    39.436115    35.569037    26.750187 
   10200    240.66607   -238.18597       229892    -22463.33    1710.9509   -24174.281   -402.23384    77.610056    39.437549    35.574097    26.745985 
   10400    234.96379   -390.09223       229892   -22461.176    1670.4121   -24131.588   -1009.4345    79.254369    39.440221    35.573115    26.728125 
   10600    228.21313   -361.38347       229892   -22527.011    1622.4201   -24149.431   -879.36452    80.111414    39.440934    35.569839    26.726217 
   10800    231.84603   -435.80224       229892    -22587.35    1648.2472   -24235.597   -1173.4906    80.869657    39.439363     35.56979    26.716486 
   11000    231.99566   -343.93984       229892   -22582.444     1649.311   -24231.755   -798.28975    82.797468    39.439029    35.569087    26.696923 
   11200    231.47545   -262.90079       229892   -22609.534    1645.6127   -24255.147   -513.04504    84.509641    39.437549    35.571527    26.702586 
   11400    234.41547   -372.02336       229892   -22584.474    1666.5139   -24250.988   -903.69614    85.895635     39.43857    35.571749    26.702118 
   11600    235.54591   -306.74927       229892   -22507.978    1674.5505   -24182.528   -657.96768     87.55286    39.439158    35.571111     26.67685 
   11800    234.22247   -277.10223       229892   -22477.245    1665.1418   -24142.387   -585.95627    88.799761     39.43876    35.572001    26.663815 
   12000    236.91284   -411.65953       229892   -22474.948    1684.2684   -24159.217   -1092.7488     90.10155    39.438591    35.572687    26.688745 
   12200    234.85214   -435.58215       229892   -22486.376    1669.6184   -24155.994   -1158.1485    90.588051    39.440293    35.573508    26.707069 
   12400    231.83166   -336.08935       229892    -22503.46     1648.145   -24151.605   -759.92776    92.007073    39.439245    35.573779    26.699068 
   12600    233.79084   -376.44144       229892     -22447.6    1662.0733   -24109.674    -960.3915    92.557318    39.440247    35.573848     26.69555 
   12800    235.20502   -357.59387       229892   -22494.004    1672.1271   -24166.131   -841.86804    93.823067    39.439947    35.575476    26.697817 
   13000    233.36621   -433.75887       229892   -22564.756    1659.0545    -24223.81    -1155.613    94.626082    39.441336    35.576808    26.700808 
   13200    230.44567   -363.91948       229892   -22608.854    1638.2917   -24247.146   -908.11736    95.132812    39.442847    35.579623    26.697622 
   13400    232.83673   -405.27105       229892   -22689.105    1655.2903   -24344.395   -1034.5707    95.962913    39.443068    35.579361     26.70105 
   13600    234.11908   -373.54075       229892   -22599.232    1664.4069   -24263.638    -935.2892     97.46124    39.444231    35.580699    26.697233 
   13800    237.85033    -338.9144       229892   -22551.243    1690.9332   -24242.176    -811.9824    98.053407    39.445386    35.582429    26.696401 
   14000    239.51586   -365.35972       229892   -22500.634    1702.7738   -24203.408   -891.14246    98.897051    39.446415    35.585954     26.69198 
   14200    238.19114    -561.9276       229892    -22575.22    1693.3561   -24268.576   -1635.0295    100.86629     39.44797    35.587466    26.695555 
   14400     226.6646   -333.70857       229892   -22636.603    1611.4112   -24248.014   -759.72592    102.49317    39.447537    35.589527     26.69116 
   14600    234.47205   -290.39489       229892   -22603.639    1666.9162   -24270.556   -603.74317    102.89971    39.447052    35.591659    26.693258 
   14800    241.53227   -111.85379       229892   -22545.815    1717.1089   -24262.924     51.28792    104.02703    39.446228    35.591015    26.684133 
   15000     234.8653    -300.6664       229892   -22611.927    1669.7119   -24281.639   -676.10505    104.41076    39.445479    35.591082    26.661957 
   15200    234.56774    -335.4779       229892   -22579.602    1667.5965   -24247.198   -821.94999    104.97075    39.444991    35.589715    26.673497 
   15400    235.45558    -219.7139       229892   -22650.825    1673.9083   -24324.733   -333.52954    106.05021    39.447911    35.587987     26.68775 
   15600    241.36987    -325.7988       229892   -22539.577    1715.9544   -24255.531   -782.71201    107.87419    39.448488    35.588602    26.694499 
   15800    229.27483   -467.61061       229892   -22567.037     1629.968   -24197.005   -1291.6078    109.10008    39.448147    35.589799    26.695519 
   16000    236.52372   -442.18383       229892   -22584.406     1681.502   -24265.908   -1180.3602    110.26022    39.450813     35.59088    26.708375 
   16200    232.24579   -265.30111       229892   -22536.326    1651.0892   -24187.415    -523.1218    111.94393    39.452702    35.590105    26.703978 
   16400    233.23682   -333.87423       229892   -22595.022    1658.1347   -24253.157    -775.3027    113.87684    39.453633    35.590545    26.708897 
   16600    241.57614   -398.72105       229892   -22517.339    1717.4208    -24234.76   -1064.7588    115.08398    39.452324    35.590204    26.706922 
   16800    235.71237    -384.9014       229892   -22579.429    1675.7339   -24255.163   -933.06764    114.94782    39.452349     35.58957    26.741585 
   17000    228.88164   -463.27394       229892   -22609.737    1627.1727    -24236.91   -1293.7427    115.48478    39.453939    35.587446    26.748064 
   17200    235.11138   -507.56808       229892    -22588.71    1671.4613   -24260.171    -1449.805    116.64917    39.451462    35.586482    26.770072 
   17400    229.59175   -336.47474       229892   -22677.632     1632.221   -24309.853   -770.95818     117.1013    39.448938     35.58743    26.765829 
   17600    239.94356   -431.83733       229892     -22571.3    1705.8144   -24277.115   -1147.1649    117.34223    39.448043    35.587122    26.769177 
   17800    241.09813   -290.27005       229892   -22571.709    1714.0225   -24285.732   -603.70004     117.6274    39.448279    35.586991    26.736853 
   18000    235.64215   -374.86295       229892   -22526.832    1675.2347   -24202.067    -922.6029    118.69847    39.448353    35.587105    26.723662 
   18200    236.46318   -365.44743       229892   -22550.337    1681.0716   -24231.409    -869.9421    121.81673    39.447392     35.58665    26.699317 
   18400    236.71725   -441.22913       229892   -22511.107    1682.8779   -24193.985    -1153.658     123.6842    39.445091    35.585855    26.706079 
   18600    232.90288   -328.15558       229892   -22502.812    1655.7606   -24158.573   -769.17964    125.92366    39.444274    35.584374    26.712859 
   18800    233.60593   -339.43661       229892   -22557.393    1660.7587   -24218.152   -810.26972    128.69315    39.444209    35.584659    26.687393 
   19000    233.22027   -302.24842       229892   -22523.943     1658.017    -24181.96   -641.89751    129.49093    39.443192    35.587226    26.686147 
   19200    240.42354   -157.86049       229892   -22542.128    1709.2267   -24251.354   -73.378923    129.76589    39.443591    35.584843    26.686751 
   19400    242.52281   -187.93039       229892   -22509.789    1724.1509    -24233.94    -208.5513    132.16555    39.444718    35.582586    26.647936 
   19600     232.9116   -437.82731       229892   -22510.917    1655.8226   -24166.739   -1158.5414    133.29588    39.444976    35.582231    26.635393 
   19800    235.60806   -152.35674       229892   -22502.486    1674.9923   -24177.478   -52.766094    134.96609    39.445514    35.581978    26.628422 
   20000    235.30351   -183.57288       229892    -22518.93    1672.8272   -24191.757   -160.74255    134.37377    39.445038    35.580421    26.627835 
   20200    231.94037   -417.81542       229892   -22592.509    1648.9179   -24241.427   -1086.6955    135.82519    39.442719    35.577767    26.645492 
   20400    232.29472   -419.41149       229892   -22467.289     1651.437   -24118.726   -1110.4794    135.61553    39.443635    35.576245    26.658165 
   20600     236.1208   -511.72597       229892   -22567.609    1678.6375   -24246.246    -1428.998    136.54619      39.4461    35.575834    26.669901 
   20800     234.3304   -332.26833       229892   -22502.563    1665.9091   -24168.472   -816.32297    138.30664    39.448408    35.574122    26.669024 
   21000    236.95291   -270.19758       229892   -22509.628    1684.5532   -24194.181   -503.94353    139.39663    39.448164    35.572014    26.659218 
   21200    234.13682   -491.81833       229892   -22505.071     1664.533   -24169.604   -1397.5519    140.84637    39.448221     35.56886    26.651684 
   21400    238.38998   -287.17877       229892   -22514.944    1694.7697   -24209.713   -602.91363    142.01565    39.449076    35.567196    26.639635 
   21600    238.64752   -320.94755       229892   -22433.831    1696.6005   -24130.432   -714.28998    142.38611    39.448103     35.56859    26.668915 
   21800    238.52192   -312.78421       229892   -22534.674    1695.7076   -24230.381   -686.17839    142.20918    39.445265    35.569895    26.658582 
   22000    233.21444    -305.2677       229892    -22593.81    1657.9756   -24251.786    -651.7574    144.09943    39.445597    35.570152    26.654707 
   22200      230.585   -398.31998       229892   -22622.703    1639.2822   -24261.985   -1023.5065     144.4733    39.443652     35.57093     26.63956 
   22400     238.5363   -423.63789       229892   -22468.859    1695.8099   -24164.669   -1113.8738    145.91903    39.442174    35.572692      26.6502 
   22600    234.75608     -226.014       229892   -22514.771    1668.9354   -24183.707   -290.53726    147.25782    39.442882      35.5718     26.64306 
   22800    238.58653    -476.6227       229892   -22472.769     1696.167   -24168.936   -1267.0018    147.67372    39.443593    35.568824    26.646365 
   23000    232.27039   -91.842297       229892   -22538.035    1651.2641   -24189.299    173.23849    148.75783    39.445437    35.567591    26.643684 
   23200    237.90591   -475.56015       229892   -22487.354    1691.3283   -24178.682    -1314.558    151.50036    39.446987    35.569845    26.638442 
   23400    238.47154   -461.71648       229892   -22499.945    1695.3495   -24195.295   -1249.9682    153.15555    39.446598    35.571962    26.652599 
   23600    238.27046   -393.15212       229892   -22479.469    1693.9199   -24173.389   -1027.6055    153.22507    39.446223    35.572795    26.658829 
   23800    240.40855   -429.97876       229892   -22516.026    1709.1202   -24225.146   -1139.1804    153.13837     39.44733    35.575088    26.650985 
   24000     233.6457   -370.51715       229892   -22554.037    1661.0415   -24215.079   -920.77639    155.91928    39.449101    35.575381    26.653313 
   24200    239.09687   -416.38307       229892   -22560.461    1699.7951   -24260.256    -1066.373    155.76118    39.450256    35.573222    26.661569 
   24400    233.64174   -247.89994       229892   -22607.499    1661.0133   -24268.512   -430.18203    155.34735    39.452755    35.576564      26.6539 
   24600    231.26605   -366.44796       229892   -22640.599     1644.124   -24284.723   -845.93134    155.86958     39.45315    35.579893    26.656237 
   24800     234.6456     -258.032       229892   -22613.448      1668.15   -24281.598   -446.40786     156.8101      39.4535    35.579853    26.668511 
   25000    234.92732   -333.98175       229892   -22643.666    1670.1528   -24313.819    -719.5226     157.1696    39.453344     35.58023    26.667572 
   25200    223.45878   -380.13912       229892   -22782.931    1588.6203   -24371.551   -962.38647    157.53417    39.454307    35.579225    26.661641 
   25400    238.81079   -420.61889       229892    -22616.83    1697.7613   -24314.591   -1099.1905    159.52822    39.456583    35.578036    26.648015 
   25600    241.20068   -313.59584       229892   -22528.164    1714.7516   -24242.916   -680.83553    162.18819      39.4558    35.577066    26.675232 
   25800    234.20312   -398.06049       229892   -22567.012    1665.0043   -24232.016   -1008.9442    162.54888    39.453003    35.576051    26.678984 
   26000    242.15295   -465.86779       229892   -22631.649    1721.5215   -24353.171   -1262.8067    163.26743    39.453325    35.574493    26.673329 
   26200     229.9693   -337.45485       229892   -22601.452    1634.9051   -24236.357   -753.83595    163.97711    39.453251    35.575392    26.690012 
   26400    236.39532   -157.40441       229892    -22636.43    1680.5892   -24317.019    -28.22326    163.67829    39.455054    35.576011    26.704064 
   26600    235.91167    -489.9503       229892   -22537.814    1677.1508   -24214.965   -1347.8602     164.8914    39.455104     35.57556    26.692336 
   26800    231.56495   -394.87059       229892   -22535.324     1646.249   -24181.573   -1011.2273    166.85594    39.453411    35.575035    26.683596 
   27000    237.50039   -294.95093       229892   -22463.332    1688.4454   -24151.778   -588.39505    166.23432    39.451722    35.574613    26.686993 
   27200    233.69475   -407.53855       229892   -22538.367    1661.3902   -24199.757   -1053.1856    165.69591    39.450269    35.575611     26.70375 
   27400    238.92453   -534.54469       229892    -22495.64    1698.5699    -24194.21   -1552.9912    168.38512     39.44867     35.57535     26.71559 
   27600    231.08662   -526.50476       229892    -22628.06    1642.8484   -24270.908   -1508.7442    168.57483    39.448611    35.576494    26.719671 
   27800    232.99662    -356.7882       229892   -22509.157     1656.427   -24165.584   -823.84992    169.72865    39.448693    35.578516    26.713224 
   28000    233.14731   -475.41159       229892   -22590.779    1657.4983   -24248.278   -1308.3358    171.86151    39.447338    35.580154    26.719903 
   28200    243.10453   -271.67143       229892   -22582.455    1728.2865   -24310.741   -546.52534    172.40221     39.44643    35.581268    26.738032 
   28400    229.56191   -338.15889       229892   -22594.596    1632.0089   -24226.605   -724.50295     173.5603    39.444634    35.583127     26.74541 
   28600    231.36234   -521.70034       229892    -22621.87    1644.8085   -24266.679   -1469.4047    173.89765    39.445046    35.584391    26.747812 
   28800    234.98825   -491.96423       229892   -22606.955     1670.586   -24277.541   -1367.6798    175.58789    39.445242    35.584804    26.731955 
   29000    232.23971   -432.79354       229892    -22569.62     1651.046   -24220.666   -1193.4512    176.22803    39.445229    35.585509    26.713867 
   29200    238.45657     -266.762       229892   -22554.047    1695.2431    -24249.29   -494.11239    176.83917    39.446825    35.586328    26.723477 
   29400    238.54843   -497.40011       229892   -22542.821    1695.8962   -24238.717   -1381.3828    177.60422    39.447505    35.586786    26.705089 
   29600    233.59522   -310.38243       229892   -22542.933    1660.6826   -24203.616   -676.36422    179.42146    39.448006    35.588875    26.705827 
   29800     231.4234   -445.20511       229892   -22582.187    1645.2426    -24227.43   -1193.0133    180.34388    39.449028    35.587704     26.71558 
   30000    230.49104   -276.71998       229892   -22645.805    1638.6142   -24284.419    -534.2116    181.07739     39.44806    35.585356    26.728334 
   30200    236.56019   -492.36039       229892   -22539.325    1681.7613   -24221.086   -1396.0403    181.67952    39.447482    35.583815    26.704928 
   30400    232.45963   -427.68827       229892   -22570.474    1652.6094   -24223.084   -1145.2954    182.65865    39.449107      35.5837     26.69696 
   30600    235.06762   -367.80421       229892   -22641.824    1671.1503   -24312.974     -914.237    183.42777    39.450641    35.582649    26.702062 
   30800    237.33915   -356.36743       229892   -22628.339    1687.2991   -24315.638   -903.12219    184.42645    39.450947    35.583235    26.723208 
   31000     231.7468   -301.88504       229892   -22619.335    1647.5417   -24266.877   -630.95531    184.57252    39.450421    35.584058    26.737829 
   31200    231.92177   -235.67614       229892   -22611.073    1648.7857   -24259.859   -344.11463    185.97571    39.449994    35.583775    26.733592 
   31400    239.88251   -286.13176       229892   -22555.361    1705.3804   -24260.741   -572.10292    187.37857      39.4491    35.582045    26.739197 
   31600    236.82128   -209.25697       229892     -22575.2    1683.6174   -24258.817   -260.82901    188.74399    39.449527    35.581552    26.746037 
   31800    238.91462   -456.44673       229892   -22477.254    1698.4995   -24175.753    -1204.215    188.92709    39.450849    35.580708     26.74925 
   32000    232.72591   -302.22004       229892   -22593.619    1654.5025   -24248.121   -653.78845    191.21749    39.450551    35.581272    26.773577 
   32200    232.79675   -492.48853       229892   -22601.357    1655.0061   -24256.363   -1369.8366    192.59449    39.452308    35.581171    26.778262 
   32400    237.15371   -396.15552       229892   -22629.531    1685.9807   -24315.512   -1027.0751    194.40565      39.4506    35.582637    26.798863 
   32600    238.03036   -442.22208       229892   -22561.872    1692.2131   -24254.086   -1202.5958     195.1356     39.44909    35.585449     26.79527 
   32800    234.02604   -273.96491       229892   -22555.243    1663.7454   -24218.989   -517.20152     195.6648    39.448334    35.584571    26.802273 
   33000    235.83285   -397.76847       229892   -22508.918    1676.5904   -24185.508    -966.0492    197.84896    39.446706    35.586206    26.816832 
   33200    236.12307   -218.30753       229892   -22537.087    1678.6537   -24215.741   -314.31837    197.72415    39.445654    35.586621    26.817929 
   33400    235.12343   -332.15178       229892    -22627.78     1671.547   -24299.327   -746.96403    199.06513    39.443051    35.587601    26.810995 
   33600    230.27292   -301.87247       229892   -22635.864    1637.0636   -24272.928   -593.78805     199.6694    39.444236    35.590464      26.8063 
   33800    243.05236   -710.76268       229892   -22477.835    1727.9156    -24205.75   -2268.4919    200.59367     39.44479    35.592877     26.79816 
   34000    231.80707   -339.45474       229892   -22589.804    1647.9703   -24237.775   -770.79887    198.78967    39.443831    35.594199    26.802431 
   34200    230.46106   -286.26705       229892    -22575.86    1638.4011   -24214.261   -543.39523    198.65596    39.444264    35.592564     26.79705 
   34400    231.74853   -294.13993       229892   -22596.063     1647.554   -24243.617   -561.64894     199.4249    39.444083    35.592157    26.774569 
   34600    238.54447   -245.49522       229892   -22486.485     1695.868   -24182.353   -420.05034    200.08677    39.443995    35.592077    26.787875 
   34800    232.04605   -259.85272       229892    -22527.17    1649.6692   -24176.839    -485.1337    201.79327    39.444157    35.592059    26.785366 
   35000    228.65777   -476.40754       229892   -22586.382    1625.5811   -24211.963   -1321.8022     204.0075    39.444189    35.591929     26.76074 
   35200    239.41359   -380.15444       229892   -22529.847    1702.0468   -24231.894   -908.92332    203.44291    39.443232    35.589803    26.746104 
   35400    234.80572   -299.37051       229892   -22545.609    1669.2883   -24214.898   -602.19008    204.57391    39.444918    35.588317    26.728026 
   35600     238.7022   -376.63934       229892   -22584.882    1696.9893   -24281.871   -925.45576    205.78827    39.445251     35.58828    26.728382 
   35800    243.45287   -378.91338       229892   -22477.127    1730.7629    -24207.89   -921.53973    205.95429      39.4463    35.590177    26.718364 
   36000    235.23792   -358.79323       229892   -22622.138    1672.3609   -24294.499   -873.08501    207.45908    39.446537    35.589016    26.721469 
   36200    235.57894   -411.34428       229892   -22646.354    1674.7854    -24321.14   -1059.6587    207.76305    39.446674    35.587285    26.737354 
   36400    230.82861   -226.09871       229892   -22584.686    1641.0142     -24225.7   -318.46774    208.71463    39.447772    35.584376    26.740353 
   36600     237.7959    -336.6358       229892   -22575.426    1690.5462   -24265.972   -768.31062    210.96708     39.44737     35.58106    26.763174 
   36800    236.91644   -349.28626       229892   -22627.435    1684.2939   -24311.729   -798.46108    212.39355    39.446843    35.578422    26.768553 
   37000    230.73352   -497.27007       229892   -22649.833    1640.3381   -24290.171   -1382.4979    213.07167    39.444808    35.577415    26.766806 
   37200     228.5723   -287.36179       229892   -22656.824    1624.9735   -24281.798   -539.48854    213.89978    39.443996    35.575945    26.774381 
   37400    237.52419   -320.85826       229892   -22622.055    1688.6146   -24310.669   -725.17398     213.7866     39.44376    35.574638    26.789557 
   37600    232.32556   -384.97052       229892   -22643.542    1651.6563   -24295.199   -909.44258    215.60067    39.442276    35.576933    26.825182 
   37800     230.4958   -284.45807       229892   -22684.609    1638.6481   -24323.257    -516.1024    216.80159    39.443748    35.578513    26.817582 
   38000    233.74629   -286.75957       229892   -22566.353    1661.7566    -24228.11   -522.20053    216.65709    39.443132    35.577831    26.817959 
   38200    228.64379   -324.62035       229892   -22592.833    1625.4817   -24218.314   -747.08678    217.35815    39.442695    35.574889     26.81664 
   38400    228.72373   -406.49053       229892   -22529.764      1626.05   -24155.814   -1028.3629    217.18172    39.441987    35.573557     26.81696 
   38600    237.05399   -461.50262       229892   -22597.344    1685.2718   -24282.616   -1251.1894    217.64215    39.440498    35.574519    26.817137 
   38800    232.96622   -247.49307       229892   -22605.434    1656.2109   -24261.645     -410.572    219.92913    39.437618    35.576222    26.826453 
   39000     237.0001   -275.87723       229892   -22563.134    1684.8887   -24248.022   -505.34459    219.91197    39.435132    35.577918     26.82448 
   39200    230.00712   -440.82487       229892   -22649.507     1635.174   -24284.681     -1152.51    220.79273    39.435029    35.577978     26.83024 
   39400    233.38461   -327.74439       229892    -22644.69    1659.1853   -24303.875   -724.27894    220.24945    39.436115    35.576116    26.845524 
   39600    235.82314   -391.83362       229892   -22573.362    1676.5214   -24249.884   -1012.6724    221.52771    39.433753    35.576033    26.841948 
   39800    233.81216   -241.71306       229892   -22615.851    1662.2249   -24278.076   -438.82897    222.66711    39.433021    35.576862    26.835603 
   40000    232.94141   -569.76976       229892   -22581.676    1656.0345    -24237.71   -1664.6368    222.43651    39.433039    35.579135    26.837487 
   40200    234.52106   -383.01102       229892   -22590.666    1667.2646    -24257.93   -1002.3302    224.45473    39.430253    35.576896    26.841974 
   40400    230.54014   -370.46683       229892   -22617.885    1638.9633   -24256.848   -887.87014    225.34337      39.4294    35.575336    26.852179 
   40600     237.7261   -310.41365       229892   -22535.466      1690.05   -24225.516   -672.86265    225.06129    39.430172    35.575317    26.838391 
   40800    233.06639    -682.2623       229892   -22627.581     1656.923   -24284.504    -2129.502    226.34735     39.42994    35.575866    26.834012 
   41000    236.84006     -444.342       229892   -22586.144    1683.7509   -24269.895    -1150.182    227.58429    39.430419    35.577585    26.865887 
   41200     235.3651   -286.36757       229892   -22501.266    1673.2651   -24174.531   -558.41837    229.84514    39.430763     35.57657    26.863188 
   41400    240.40566   -239.17261       229892   -22526.466    1709.0996   -24235.565   -433.39679    231.61237    39.427779    35.574636    26.857477 
   41600    233.94886   -428.57175       229892   -22542.337    1663.1967   -24205.533   -1130.5828    232.65485    39.428154    35.573398    26.866395 
   41800    234.90267   -535.82953       229892   -22556.098    1669.9776   -24226.076   -1587.4051    232.95498    39.428804    35.573101    26.874815 
   42000    235.58541   -338.27925       229892   -22595.453    1674.8313   -24270.284    -764.0402    233.04367    39.430163    35.573868    26.897239 
   42200    235.63707   -324.56337       229892   -22619.044    1675.1986   -24294.243   -688.88231    235.00385     39.43046    35.575822    26.912615 
   42400    233.95148   -346.62689       229892   -22548.371    1663.2154   -24211.586   -847.00775    234.60131    39.429917    35.576922    26.925234 
   42600    235.36369   -443.21101       229892   -22561.632    1673.2551   -24234.888   -1182.6826    236.15877    39.429283    35.577681    26.923416 
   42800     236.1807   -317.76706       229892   -22546.668    1679.0634   -24225.731   -728.64149    236.69565    39.430344    35.577696    26.925159 
   43000    230.94776   -467.44797       229892   -22556.186    1641.8612   -24198.048   -1272.8103    238.34323    39.428937    35.578245    26.919056 
   43200    230.56485   -213.08777       229892   -22556.986     1639.139   -24196.125   -295.33279    239.04257    39.429555     35.57754    26.939713 
   43400     234.9505   -260.50074       229892   -22542.173    1670.3176   -24212.491   -461.87153    240.98122    39.429609     35.57705    26.950541 
   43600    233.83372   -430.79346       229892   -22588.492    1662.3782   -24250.871   -1157.4327    242.48004    39.430943    35.578455    26.965735 
   43800    236.28117   -491.58942       229892   -22640.113    1679.7776    -24319.89   -1345.6205    244.42069    39.431741    35.578443    26.958969 
   44000    231.17419   -185.86244       229892   -22695.506     1643.471   -24338.977   -230.06683    246.35938    39.432144    35.577426    26.979893 
   44200    233.82321   -414.02239       229892   -22647.481    1662.3035   -24309.785   -1062.7508    245.98796    39.434739    35.577711    26.951244 
   44400    232.16485   -388.21362       229892   -22662.994    1650.5138   -24313.508   -978.13355    247.40056    39.435051    35.579418    26.954661 
   44600     233.8291   -359.37768       229892   -22671.749    1662.3453   -24334.095   -885.52501    250.00402     39.43365    35.578745    26.938829 
   44800    236.11989   -396.02765       229892   -22691.564    1678.6311   -24370.195   -1013.9378    248.60678    39.433388    35.577776    26.948763 
   45000    230.78858   -177.96604       229892   -22632.816    1640.7295   -24273.545   -145.30063    248.52292     39.43426    35.577307    26.946572 
   45200     237.4968   -476.81346       229892   -22590.652    1688.4199   -24279.072   -1319.2371    249.15642    39.431558    35.576103    26.955706 
   45400    232.33923   -403.78414       229892    -22663.43    1651.7535   -24315.183   -1009.4007    250.29916     39.43489    35.573676    26.934374 
   45600    239.25205   -379.25514       229892   -22554.013    1700.8983   -24254.911   -931.55319    251.54954    39.434921    35.572904    26.911566 
   45800    239.05671   -391.78367       229892   -22592.679    1699.5096   -24292.189   -973.05632    252.28089    39.431962    35.572637    26.900981 
   46000    236.81391   -296.60733       229892   -22522.837     1683.565   -24206.402   -597.02477    253.30219    39.431197    35.572988    26.897851 
   46200    231.48104    -331.6715       229892   -22483.888    1645.6524    -24129.54   -732.96147    255.75179    39.432234    35.573398    26.886173 
   46400    229.25315   -380.33079       229892   -22559.412    1629.8138   -24189.225   -970.83944    257.46481     39.43061    35.573754    26.889911 
   46600    230.71929   -423.46045       229892   -22552.258     1640.237   -24192.495   -1095.1037     258.7679    39.430113    35.574236    26.880461 
   46800    240.78608   -380.27399       229892   -22521.472    1711.8041   -24233.277   -935.32737     258.4842    39.430234    35.574716    26.872838 
   47000    232.89532   -320.89375       229892   -22518.082    1655.7069   -24173.789   -684.27823    258.48508    39.429927    35.575099     26.86935 
   47200    233.49236    -459.0759       229892   -22606.664    1659.9513   -24266.615   -1254.2461    259.23676    39.428933    35.574271    26.871706 
   47400    233.70195   -428.74514       229892    -22560.11    1661.4414   -24221.552   -1125.8564    260.81765    39.428114    35.574355    26.866451 
   47600    237.23516   -397.67135       229892   -22615.821    1686.5598   -24302.381   -1030.9354    261.71144    39.426966    35.572088    26.859105 
   47800    232.92571   -392.54318       229892   -22626.389    1655.9229   -24282.312   -964.66695    262.24096    39.425632    35.571192     26.86105 
   48000    229.79439    -388.6986       229892   -22631.757    1633.6616   -24265.418   -938.88872    262.63795    39.428058    35.571427    26.882772 
   48200    239.90572   -327.44497       229892    -22639.53    1705.5454   -24345.076   -761.85307     263.4235    39.429928    35.572797    26.876811 
   48400    231.31931   -338.36269       229892   -22618.249    1644.5027   -24262.751   -750.23357    264.48721    39.430652    35.573471    26.874157 
   48600    231.35201   -572.77164       229892   -22674.998    1644.7351   -24319.734   -1675.2696    265.48417    39.430953    35.573344     26.88094 
   48800    230.79628   -335.56987       229892   -22606.298    1640.7843   -24247.082   -766.30775    265.79855    39.432729    35.573909    26.888316 
   49000    233.18946   -406.90691       229892   -22591.656     1657.798   -24249.454    -1070.714    266.48116     39.43429    35.572249    26.878946 
   49200    236.64422   -455.14939       229892   -22524.747    1682.3586   -24207.106   -1255.3042    267.96653    39.432282    35.572685    26.872492 
   49400    235.55067   -355.74743       229892   -22616.366    1674.5843    -24290.95   -827.42446    269.21584    39.433032    35.573672    26.854498 
   49600    232.87717   -302.33779       229892   -22579.396    1655.5778   -24234.974   -646.29828    269.75362    39.431077    35.576216    26.841416 
   49800    233.74037   -445.61488       229892    -22590.24    1661.7145   -24251.954   -1196.0416    271.23213    39.429251    35.574948    26.846718 
   50000    235.15738   -280.15183       229892   -22596.863    1671.7884   -24268.651   -586.07753    270.77597    39.427647    35.574213    26.864876 
   50200    236.00313   -340.69158       229892   -22503.632     1677.801   -24181.433   -821.59391    271.34754    39.427729    35.576242    26.857823 
   50400    237.00024     -526.008       229892   -22568.522    1684.8897   -24253.412   -1530.3952    273.18895    39.429876     35.57806    26.862394 
   50600    243.52347   -271.34039       229892   -22507.537    1731.2648   -24238.802   -550.91632    274.09684    39.430935    35.578573    26.873121 
   50800    230.22927   -214.83467       229892   -22687.404    1636.7533   -24324.157   -319.84726     275.8024    39.431561    35.580003    26.858398 
   51000    230.50216    -199.1566       229892   -22644.666    1638.6933   -24283.359   -266.23213    275.77532    39.430681    35.579335    26.841341 
   51200    230.87886   -314.80466       229892    -22651.54    1641.3714   -24292.911   -692.61546    276.91464     39.43076    35.580008    26.836865 
   51400    232.06639   -288.41988       229892    -22608.93    1649.8138   -24258.744   -591.52013    280.12832    39.427729    35.580921    26.837527 
   51600     226.9428   -456.32927       229892    -22632.79     1613.389   -24246.179   -1213.1579    281.77393    39.426736    35.581389    26.857411 
   51800    224.95379   -164.43265       229892   -22623.782    1599.2487   -24223.031   -90.147609    281.55253    39.425321    35.582297    26.851505 
   52000    229.15172   -298.58472       229892   -22668.639    1629.0927   -24297.732   -652.99104    282.65285    39.425973    35.581368    26.857073 
   52200    227.16117   -427.65961       229892    -22632.85    1614.9414   -24247.792   -1134.3282    283.47566     39.42672    35.582726    26.875882 
   52400    226.69017   -405.36473       229892   -22681.783     1611.593   -24293.376      -1043.8    284.43042    39.427523    35.580232    26.881689 
   52600    236.49988   -394.36951       229892   -22549.259    1681.3325   -24230.591   -999.78615    285.70135    39.426762    35.577775    26.870636 
   52800    241.93099   -422.62945       229892   -22507.797    1719.9435   -24227.741   -1107.6601     288.2175    39.425617    35.577004    26.868629 
   53000    234.63594   -489.48335       229892   -22502.007    1668.0814   -24170.088   -1365.0503    288.20127    39.425988    35.576983    26.857844 
   53200    238.90511   -423.13717       229892   -22615.475    1698.4318   -24313.907   -1071.1608    288.05792    39.428116    35.576233    26.843329 
   53400    236.38683   -387.85361       229892   -22615.281    1680.5288   -24295.809   -987.84792    289.18383    39.427075    35.577826    26.849528 
   53600    228.32188   -358.78616       229892    -22720.74    1623.1932   -24343.933   -858.61463    290.74885    39.428402    35.578745    26.856091 
   53800    232.56899   -335.51618       229892   -22668.306    1653.3869   -24321.692   -775.64793    291.49196     39.43134    35.580933    26.861698 
   54000    238.07415   -266.92174       229892   -22667.798    1692.5244   -24360.322   -508.33198    290.89104    39.431561    35.580653    26.878277 
   54200    235.50717    -344.3251       229892   -22589.536    1674.2751   -24263.811   -773.09575    292.32748     39.43082    35.582412    26.886542 
   54400    240.23181   -317.51041       229892   -22552.358    1707.8636   -24260.221    -721.5923    295.04941    39.429094    35.581849    26.891305 
   54600    232.73681   -321.67216       229892   -22591.454      1654.58   -24246.034   -733.45502    295.19402     39.42832    35.582194    26.884393 
   54800    236.40916   -330.29715       229892   -22584.733    1680.6876    -24265.42   -771.21313    297.02629    39.427664    35.580698    26.893372 
   55000    236.63472    -424.4338       229892   -22574.404    1682.2911   -24256.695   -1113.8693    299.63823    39.425178    35.582528    26.891891 
   55200    232.73878   -301.92612       229892   -22712.458    1654.5939   -24367.052   -653.73168    301.70421    39.425206    35.583634    26.884257 
   55400    232.64168    -279.5454       229892   -22682.575    1653.9037   -24336.478   -587.12493    301.23201    39.425268    35.583357    26.879877 
   55600    236.39787   -333.05689       229892   -22629.094    1680.6073   -24309.701   -725.67024     302.8371    39.427022    35.583336    26.870498 
   55800     242.2366   -415.86665       229892   -22511.084    1722.1161     -24233.2   -1099.3492     304.7766    39.427698    35.583844    26.855243 
   56000    239.29294   -358.96645       229892   -22522.654     1701.189   -24223.843   -877.76156    304.92722    39.427864    35.585077    26.849792 
   56200    235.48279   -358.91792       229892   -22512.168    1674.1018   -24186.269   -792.77169     304.3035    39.426568    35.586305    26.843401 
   56400    230.50152    -422.2394       229892    -22604.93    1638.6888   -24243.618   -1114.0779    306.64755    39.424459    35.589135    26.850454 
   56600    229.24795   -331.69876       229892   -22692.365    1629.7769   -24322.142   -744.90674     308.1403     39.42466    35.593192    26.849074 
   56800    233.00077   -409.45622       229892    -22652.01    1656.4565   -24308.467   -1098.4002    307.78606    39.424614     35.59395     26.85752 
   57000    232.37261    -233.0685       229892   -22716.873    1651.9908   -24368.864   -355.27088    309.16709    39.426865    35.594544    26.851073 
   57200    238.36801   -287.10665       229892   -22651.825    1694.6135   -24346.439   -595.58131    311.03288    39.427319    35.596899     26.83527 
   57400     228.6873   -314.37572       229892   -22676.752    1625.7911   -24302.543   -656.12666    311.72197    39.425703    35.596271    26.818289 
   57600    234.15407   -455.07016       229892   -22673.659    1664.6556   -24338.314   -1242.0904    311.67549    39.426573    35.592539    26.816579 
   57800     239.6645   -281.54283       229892   -22607.407    1703.8306   -24311.238   -552.78511    311.83972    39.426519    35.594312    26.810675 
   58000    235.42967   -462.66442       229892   -22597.873    1673.7241   -24271.597   -1265.1668     311.5439    39.426223    35.595118    26.818714 
   58200    233.53007   -431.28432       229892    -22544.85    1660.2194    -24205.07   -1140.4214    312.28748    39.429343    35.594961    26.804647 
   58400    231.89733   -337.27616       229892   -22563.266    1648.6119   -24211.878    -805.4855    312.45438    39.432461    35.595572    26.813356 
   58600    232.71667   -345.99856       229892   -22582.321    1654.4368   -24236.758    -817.5237    313.28642    39.430106    35.595485     26.81531 
   58800    233.11456   -245.37731       229892   -22595.861    1657.2655   -24253.127   -387.92379    313.75623    39.428578    35.595606    26.833129 
   59000    236.46539   -214.73819       229892   -22546.736    1681.0873   -24227.823   -302.08964    315.62202    39.428473     35.59647     26.83611 
   59200    239.95935   -480.99617       229892    -22621.92    1705.9267   -24327.847   -1367.6102    317.12036    39.428664    35.596028    26.849525 
   59400    234.87957   -316.40257       229892    -22617.12    1669.8134   -24286.933   -682.29629    317.09591    39.429728     35.59355    26.845281 
   59600    232.43258   -483.70213       229892   -22674.144    1652.4171   -24326.561   -1362.1077    316.97853    39.429445    35.590971    26.851196 
   59800    241.74361    -144.9018       229892   -22632.289    1718.6114   -24350.901   -6.4094394    318.01387    39.430042     35.59084    26.875621 
   60000    232.83533    -215.8798       229892   -22601.185    1655.2803   -24256.466   -286.45569    318.74382    39.431419    35.589108    26.870916 
   60200    234.69555   -361.19781       229892   -22649.575    1668.5051    -24318.08   -866.49809    319.62945    39.433339    35.587695    26.880291 
   60400    238.88815   -243.90998       229892   -22626.068    1698.3113   -24324.379   -450.08266    319.40032    39.434021    35.586583    26.867524 
   60600    234.29327   -250.05979       229892   -22600.013    1665.6452   -24265.658   -439.46608      320.635    39.434373    35.585795    26.854859 
   60800    240.58113   -441.18261       229892   -22531.861     1710.347   -24242.208   -1204.9643    320.43116    39.436124    35.584007    26.860551 
   61000    233.36901   -323.43354       229892   -22629.892    1659.0745   -24288.967   -711.08918    321.89645    39.435971    35.585598    26.857947 
   61200    237.20622   -188.79991       229892   -22596.076    1686.3541   -24282.431   -191.05415    320.57638    39.435068    35.585294    26.863258 
   61400    230.77059   -369.16625       229892   -22580.448    1640.6016    -24221.05   -899.86532    321.92134    39.434184    35.587572    26.861264 
   61600    235.64133   -468.34131       229892   -22587.918    1675.2289   -24263.147   -1338.9451    323.47696    39.433975    35.587378    26.861348 
   61800    233.92248   -361.16371       229892   -22637.065    1663.0092   -24300.075   -871.49072    324.40964    39.433163    35.586625    26.845765 
   62000    241.96309   -224.47558       229892   -22557.991    1720.1718   -24278.163   -304.45165     323.8827    39.435208    35.587513    26.852718 
   62200    237.99657   -309.74916       229892    -22575.97    1691.9729   -24267.943   -665.89812    326.98061    39.435015    35.586536    26.859095 
   62400    239.06083   -276.81425       229892   -22649.086    1699.5389   -24348.625   -580.26195     328.2958    39.437148    35.584462    26.848108 
   62600    231.92099    -444.4588       229892   -22664.179    1648.7802   -24312.959   -1195.0979     328.7533    39.437539    35.586048    26.846359 
   62800    230.99935   -335.37835       229892   -22718.118    1642.2279   -24360.346   -808.12544    329.66836    39.439717    35.586117    26.847839 
   63000    237.97587   -240.77493       229892   -22621.767    1691.8257   -24313.593   -431.03264    331.40921    39.438538    35.587083    26.881148 
   63200     234.0797     -343.887       229892    -22650.39    1664.1269   -24314.517   -802.90123    331.77529    39.440025    35.585343    26.872196 
   63400    238.14551   -259.29796       229892    -22689.48    1693.0317   -24382.511   -477.94506    332.60606    39.441541    35.584491     26.86825 
   63600     233.5423   -369.58022       229892    -22684.74    1660.3064   -24345.046   -932.53056    333.88298    39.441881    35.585732    26.863292 
   63800    231.22976   -227.21644       229892   -22681.095     1643.866   -24324.961   -356.96754     334.6351    39.442287    35.587168     26.85084 
   64000    239.17017   -284.41643       229892   -22596.347    1700.3162   -24296.663   -570.34186    334.85117     39.44291    35.590826    26.860786 
   64200    239.96978   -290.09675       229892    -22562.97    1706.0009   -24268.971   -635.40875    334.41895    39.443175    35.590464    26.842764 
   64400    234.27502   -129.27809       229892   -22644.375    1665.5155    -24309.89    32.227631    335.73026    39.444566    35.591716     26.81718 
   64600    233.62487    -249.7744       229892   -22659.277    1660.8934   -24320.171   -425.65835     336.5832    39.443643    35.592332    26.802686 
   64800    229.28052   -530.53469       229892   -22653.292    1630.0084     -24283.3   -1511.5847    338.10333    39.442891    35.593379    26.789688 
   65000    237.45419   -387.59241       229892   -22545.613    1688.1169    -24233.73   -971.21182    338.96335    39.443088    35.593805    26.774987 
   65200    231.93467    -313.5792       229892    -22596.18    1648.8773   -24245.057   -680.46137    339.55733    39.442277    35.593388    26.782269 
   65400    233.56876    -377.1725       229892   -22625.821    1660.4945   -24286.316   -922.56685    340.45038    39.441904    35.593083    26.770683 
   65600    236.36005   -363.76548       229892   -22561.895    1680.3385   -24242.234   -868.11735    342.06102    39.440105     35.59489    26.777235 
   65800    236.76536    -452.5009       229892   -22565.445    1683.2198   -24248.665   -1205.6205    342.62878    39.438866    35.594559    26.773138 
   66000    235.69623   -372.34269       229892   -22558.158    1675.6191   -24233.777    -967.1847    343.48178    39.438744    35.593654    26.770805 
   66200    229.90326   -411.66267       229892   -22604.451    1634.4356   -24238.887   -1053.5013    344.55514    39.436634    35.593475    26.772075 
   66400     235.8316   -302.12554       229892   -22556.176    1676.5816   -24232.757   -619.24636    345.85871    39.436121    35.592475    26.782465 
   66600    230.80279   -426.87587       229892   -22613.531    1640.8306   -24254.361   -1147.2427    346.80227    39.434724    35.590052     26.76387 
   66800    230.78678   -424.72338       229892   -22612.561    1640.7167   -24253.278   -1091.5267    348.80746    39.433935    35.591496    26.741722 
   67000    228.07195   -376.05953       229892   -22673.784    1621.4164     -24295.2   -905.58524    348.32129     39.43438    35.589859    26.722701 
   67200    232.01911   -437.96008       229892   -22592.435    1649.4776   -24241.913   -1137.5832    348.19806    39.433761    35.588065    26.715209 
   67400    239.07417   -517.42551       229892   -22565.846    1699.6337   -24265.479   -1482.6423    349.44209     39.43283    35.588439    26.728462 
   67600    240.40637   -339.69294       229892   -22547.532    1709.1047   -24256.637   -769.11992    350.56229    39.433832    35.588929    26.736985 
   67800    230.85504   -252.35445       229892   -22551.977     1641.202   -24193.179   -418.73809    351.77916    39.434496    35.590021    26.721782 
   68000    233.27591   -402.36224       229892   -22662.018    1658.4126   -24320.431   -1018.2552    352.05688    39.435458    35.588281     26.72299 
   68200    231.41157   -221.30979       229892   -22623.247    1645.1585   -24268.406   -323.24295    353.34945    39.434916    35.589201    26.717888 
   68400     226.6538   -389.32433       229892   -22536.489    1611.3345   -24147.823   -1003.3717    354.31032    39.433373    35.588035    26.714573 
   68600    235.24854     -361.303       229892   -22568.934    1672.4364   -24241.371   -844.00943      355.729    39.432224    35.587158    26.705774 
   68800    239.26812   -355.75567       229892    -22563.22    1701.0125   -24264.232   -855.87202    355.90623    39.432387     35.58771    26.717392 
   69000    237.63806   -466.45205       229892   -22590.807    1689.4241   -24280.231   -1291.1235    357.23568    39.429759    35.590057     26.72414 
   69200     230.3378   -218.53582       229892   -22662.053    1637.5248   -24299.578   -273.10669    357.34018    39.427956    35.591742    26.723382 
   69400    227.98326   -447.60982       229892   -22703.882    1620.7859   -24324.668   -1205.8069    359.39813    39.426418    35.591663    26.696527 
   69600    237.20465    -390.2142       229892   -22543.787    1686.3429    -24230.13   -956.60193    360.71912    39.427281    35.593229    26.710898 
   69800    233.42987   -333.06838       229892   -22598.476    1659.5071   -24257.983   -737.87515    360.64994    39.427695    35.590456    26.706641 
   70000    231.66953    -327.1228       229892   -22676.658    1646.9924    -24323.65   -742.59043     361.4775    39.428134    35.590265    26.711994 
   70200    240.95703   -444.48873       229892    -22562.82    1713.0194    -24275.84   -1196.7757    363.11544    39.427747    35.590716     26.71559 
   70400    236.74112   -361.97666       229892   -22544.199    1683.0475   -24227.247   -888.80249    361.58608    39.429484    35.588968    26.689603 
   70600    234.24477    -283.1004       229892   -22590.516    1665.3004   -24255.817   -578.76035    362.00315     39.43069    35.587358    26.681128 
   70800    236.49393   -311.01573       229892    -22575.06    1681.2902    -24256.35   -659.28971     363.1031    39.430779    35.585965    26.681162 
   71000    229.52865   -292.26894       229892   -22598.577    1631.7724    -24230.35   -592.53862     363.9458    39.428377    35.584649    26.674119 
   71200    227.99681   -426.26525       229892   -22593.961    1620.8822   -24214.844   -1112.0657    366.43975    39.427452    35.585489    26.689753 
   71400    233.73125   -209.70785       229892   -22597.489    1661.6497   -24259.138   -289.36785    366.73959     39.42741    35.585192    26.671348 
   71600    236.72981   -365.55255       229892   -22502.978    1682.9671   -24185.945      -885.06     366.0624    39.425068     35.58456    26.665988 
   71800    230.36813   -180.02552       229892   -22593.645    1637.7405   -24231.386   -134.01218    366.61777    39.427375    35.582961    26.686825 
   72000    237.60694   -332.42966       229892   -22626.765    1689.2028   -24315.968    -706.3058    367.77301    39.430581    35.585338    26.687444 
   72200    240.72181   -460.61813       229892   -22505.982    1711.3472   -24217.329    -1261.589    367.64432    39.428821    35.588132    26.710225 
   72400    234.78659   -393.23628       229892   -22540.719    1669.1523   -24209.872   -986.20125    368.57998    39.427611    35.588512    26.705464 
   72600    236.17939   -215.77413       229892   -22529.649    1679.0541   -24208.703   -284.41904    370.18049    39.428981    35.587149    26.697563 
   72800     241.6911   -312.70744       229892   -22564.152    1718.2381    -24282.39   -657.00175    369.27315    39.426984    35.586245    26.711667 
   73000     236.0887   -371.70326       229892   -22620.574    1678.4093   -24298.983   -886.23916    370.95656    39.425224    35.585655    26.731726 
   73200    234.97196   -509.41924       229892   -22570.287    1670.4702   -24240.757   -1494.6626    372.47468     39.42134    35.586027    26.767884 
   73400    233.03719   -292.97142       229892   -22529.481    1656.7154   -24186.197    -554.1458    371.32974    39.419718    35.588229    26.773343 
   73600    235.43795   -324.32535       229892   -22574.465     1673.783   -24248.248   -690.50964     372.1105    39.418875    35.589827    26.763992 
   73800    228.89758   -333.48599       229892   -22660.776     1627.286   -24288.062   -745.49724    374.37769     39.41784    35.589391    26.741109 
   74000    229.28929   -294.33187       229892    -22650.72    1630.0708   -24280.791   -577.29695    374.58932    39.414903    35.589619    26.738037 
   74200    239.30476   -296.05537       229892   -22527.308    1701.2731   -24228.581   -554.85668    375.34843     39.41498    35.587666    26.719584 
   74400    236.10287    -312.9196       229892   -22559.366    1678.5101   -24237.876   -711.25538    375.47377    39.414515    35.585039    26.716735 
   74600    230.30104   -175.63136       229892   -22628.338    1637.2635   -24265.602   -175.65786    377.01539      39.4127    35.588427    26.728098 
   74800    231.08314    -269.3328       229892   -22647.596    1642.8236    -24290.42   -466.13536     378.6237    39.413912    35.587572    26.727622 
   75000    241.13162   -585.94302       229892   -22667.008    1714.2606   -24381.269     -1729.66    378.89856    39.413713    35.587749    26.741839 
   75200     235.0283   -476.07527       229892   -22594.959    1670.8707    -24265.83   -1291.1049    380.55212    39.410985    35.588536     26.74403 
   75400      224.859    -465.6709       229892   -22662.509    1598.5748   -24261.084   -1253.9812    379.53473    39.410143    35.588453    26.728956 
   75600    233.42766   -260.40547       229892   -22641.187    1659.4914   -24300.679   -440.32079    380.96459    39.409118    35.587892     26.72596 
   75800    237.07965    -289.9775       229892   -22588.872    1685.4542   -24274.326   -570.27838    378.71023    39.407974    35.587457    26.737161 
   76000    237.46396   -458.83101       229892   -22558.827    1688.1864   -24247.013   -1221.5912    379.98344     39.40705     35.58772    26.758776 
   76200    227.29937   -311.90684       229892   -22661.242    1615.9239   -24277.166   -659.25172    380.57997    39.408122    35.590398    26.771989 
   76400    235.07563   -373.31361       229892   -22623.553    1671.2072    -24294.76   -905.39134     380.8665    39.408006    35.590757    26.775532 
   76600    228.74515   -437.34838       229892   -22580.668    1626.2023    -24206.87   -1124.0815     383.6125    39.407065    35.590082    26.773989 
   76800    235.87211   -505.69544       229892   -22591.482    1676.8695   -24268.351   -1392.1681    384.29468    39.408533    35.590433    26.762907 
   77000    235.34405   -338.82194       229892   -22615.795    1673.1155    -24288.91   -767.05445    385.17995    39.407341    35.591874    26.752926 
   77200    239.05012   -351.40214       229892   -22566.202    1699.4627   -24265.664   -848.18148    385.50992    39.403941    35.592433    26.753013 
   77400    228.74531   -337.63839       229892   -22552.507    1626.2035   -24178.711   -800.05662    385.01502    39.404335    35.594469        26.75 
   77600    227.79622   -343.36393       229892   -22524.979    1619.4562   -24144.435   -786.59654    385.05354    39.405691    35.592627    26.754071 
   77800    233.56222   -317.73472       229892   -22531.609     1660.448   -24192.057   -700.45982     385.5292    39.406481    35.592834    26.789987 
   78000    233.84078   -488.50916       229892   -22515.093    1662.4284   -24177.522   -1357.8414    385.98767    39.404922    35.591916    26.815762 
   78200    236.85273   -333.88339       229892   -22532.085     1683.841   -24215.926    -755.0503    388.29185    39.404365    35.592269    26.829815 
   78400    234.86496   -322.90368       229892   -22486.878    1669.7095   -24156.587   -725.72084    386.60458    39.403051     35.59356    26.832983 
   78600    233.05748   -326.29562       229892   -22527.113    1656.8597   -24183.973    -758.4978    388.04473    39.402528    35.592396     26.84209 
   78800     235.7501   -298.38453       229892   -22502.626    1676.0022   -24178.628   -607.31709     387.2456    39.404309    35.594383    26.858981 
   79000    233.48463   -268.70047       229892   -22534.617    1659.8964   -24194.514   -493.16988    388.07018    39.405606    35.595985    26.867739 
   79200    240.68866   -370.89749       229892   -22485.222    1711.1115   -24196.334   -919.58825    387.39852    39.406343    35.596038    26.881512 
   79400    233.00451   -272.94013       229892   -22494.727    1656.4831    -24151.21   -558.17768    388.90124     39.40665    35.596013    26.871722 
   79600    232.00765   -236.32065       229892   -22577.648    1649.3962   -24227.044   -405.03088     390.9873    39.406551    35.596422     26.87922 
   79800    228.69664   -439.03051       229892   -22573.632    1625.8575   -24199.489   -1136.8378    391.66817    39.403832      35.5935    26.853384 
   80000    232.52491   -284.93118       229892   -22576.569    1653.0735   -24229.642    -584.6496    392.53117    39.403837     35.59428    26.869239 
   80200    233.90816   -420.32317       229892    -22586.19    1662.9074   -24249.098   -1122.3969    391.60055    39.404248    35.593615    26.861643 
   80400    232.79283   -354.41167       229892   -22589.818    1654.9782   -24244.797   -842.63018    392.37251    39.405203    35.592041    26.865234 
   80600    231.82699   -343.65346       229892   -22616.018    1648.1119    -24264.13   -823.44527    392.34146    39.405687    35.592363    26.862697 
   80800    236.77819   -485.42332       229892   -22573.307    1683.3111   -24256.618   -1355.2765    394.31936    39.408418    35.589738    26.853706 
   81000    228.89468   -371.57846       229892   -22595.983    1627.2653   -24223.248   -943.27551     395.1002    39.409386    35.589218       26.844 
   81200     237.0983   -496.36521       229892   -22530.462    1685.5868   -24216.049   -1387.7068    395.46624     39.40934    35.587567    26.857143 
   81400    233.86461   -321.13928       229892   -22505.856    1662.5978   -24168.454   -698.17234    397.47411    39.409928    35.587742    26.856046 
   81600    235.00678   -502.89648       229892   -22600.271    1670.7177   -24270.989   -1423.5513    398.11414    39.412408    35.589768    26.863692 
   81800    228.14275   -362.78383       229892   -22662.531    1621.9197   -24284.451   -917.56642    399.86346    39.414403    35.591173    26.850613 
   82000      233.703   -524.15594       229892   -22571.123    1661.4488   -24232.572   -1490.5544    400.43606    39.413091    35.589713    26.870542 
   82200    237.63786   -461.16922       229892   -22481.268    1689.4227    -24170.69   -1251.7589    401.76307    39.411028    35.586177    26.876448 
   82400    237.97704   -416.67817       229892   -22569.948    1691.8339   -24261.782   -1116.2192     402.7245    39.412302    35.585076    26.902884 
   82600     238.6631   -435.78716       229892   -22483.422    1696.7113   -24180.133   -1131.2913     402.3652    39.412514    35.584016     26.91281 
   82800    227.11248   -469.76245       229892   -22566.353    1614.5953   -24180.948   -1306.4318    405.26341    39.413507    35.582269    26.917555 
   83000    242.04722   -299.05354       229892   -22468.262    1720.7698   -24189.032   -619.40561    405.79023    39.415461    35.580328    26.931398 
   83200     238.0441   -259.17733       229892   -22538.387    1692.3107   -24230.697   -456.66653    405.79363    39.417481    35.580377    26.911309 
   83400     233.3182   -274.19646       229892   -22572.212    1658.7132   -24230.925   -523.88996    404.93839    39.418002    35.580259    26.928561 
   83600    226.62091   -416.44029       229892   -22653.561    1611.1006   -24264.661   -1075.1797     407.0552    39.418752    35.581662    26.918975 
   83800    235.94904   -356.04686       229892   -22594.228    1677.4164   -24271.644     -846.924    406.80372    39.418316     35.58347    26.927516 
   84000     234.1953   -325.70235       229892   -22567.246    1664.9487   -24232.194   -739.92992    407.23297    39.417076    35.584771    26.930548 
   84200    236.53623   -509.59566       229892   -22560.681    1681.5909   -24242.272   -1439.3655    409.15346    39.415732    35.587046    26.962262 
   84400    238.57746   -310.21321       229892   -22644.738    1696.1025   -24340.841   -710.00102     408.1919    39.414104    35.588092    26.969417 
   84600     236.2914   -349.57687       229892   -22585.971    1679.8504   -24265.821   -770.36252    408.78973    39.412206    35.586766    26.971429 
   84800    232.73217   -352.03256       229892   -22599.871     1654.547   -24254.418   -809.91065    407.69011    39.411959    35.585802     26.95913 
   85000    234.57137   -398.39419       229892    -22544.16    1667.6223   -24211.782   -1003.8844     408.6247    39.412107    35.588189    26.950738 
   85200    234.32307   -457.88679       229892   -22543.065    1665.8571   -24208.922   -1258.9553    408.43279    39.410911    35.586979    26.961756 
   85400    228.83488    -255.4126       229892   -22651.026    1626.8403   -24277.866   -433.55498    408.06892     39.41057    35.587012    26.957439 
   85600    238.14732    -211.8771       229892   -22605.324    1693.0445   -24298.368   -331.18957    408.64726    39.410346    35.586711    26.959344 
   85800    231.00194   -375.41503       229892   -22634.028    1642.2464   -24276.274   -925.77239    411.34175    39.409799    35.587811    26.950251 
   86000    229.21128    -241.4224       229892   -22573.806    1629.5162   -24203.322   -418.38932    411.76115    39.409844    35.588404    26.933189 
   86200    234.74586   -435.36166       229892    -22528.48    1668.8627   -24197.342   -1154.8823    414.02582    39.408219    35.585686    26.950914 
   86400    235.42278    -425.5998       229892   -22602.666    1673.6752   -24276.341   -1151.2122    415.20604    39.408713    35.584822    26.929138 
   86600    238.45404   -308.65754       229892   -22563.589    1695.2251   -24258.814    -651.5893    414.77613    39.407127    35.587506    26.917972 
   86800    233.82341   -406.05186       229892   -22662.595    1662.3049   -24324.899   -1035.9943    416.00918    39.404996    35.588107    26.930181 
   87000    230.30133    -143.0006       229892   -22576.441    1637.2655   -24213.707   -60.880295    416.81216    39.406059    35.588815    26.939824 
   87200    232.02642   -428.34783       229892   -22513.849    1649.5297   -24163.379   -1111.4643    418.61974    39.407094    35.587433    26.910679 
   87400    233.02223   -434.93431       229892   -22624.335    1656.6091   -24280.944   -1180.3687     419.3378    39.404767    35.588873    26.921182 
   87600    237.37898   -320.72131       229892    -22530.26    1687.5823   -24217.843   -692.42986    417.95608    39.404455    35.589204    26.921528 
   87800    235.64669   -363.70842       229892   -22582.915    1675.2669   -24258.182   -884.75852    419.23861    39.404107    35.587284     26.92169 
   88000    231.30493   -248.93197       229892   -22589.201    1644.4004   -24233.601   -420.77495    420.43762     39.40568    35.590825    26.924107 
   88200    229.97436    -311.8976       229892   -22608.172    1634.9411   -24243.114   -649.35417    419.64644    39.404818    35.593975    26.931083 
   88400    239.67185   -471.60033       229892   -22535.065    1703.8828   -24238.948   -1263.4566    422.86388    39.407507    35.595595    26.925331 
   88600    240.34854   -307.54539       229892   -22598.057    1708.6935   -24306.751   -642.33065    422.11771    39.407811    35.596428    26.912191 
   88800    234.20371    -411.8245       229892   -22632.589    1665.0085   -24297.597   -1098.2052    422.30779    39.407059    35.595299    26.927459 
   89000    234.61994   -291.64227       229892   -22606.861    1667.9676   -24274.828   -609.95764    424.31727    39.405197     35.59389       26.938 
   89200    235.72723   -260.39915       229892    -22617.65    1675.8396    -24293.49   -463.14635    424.50096    39.403883    35.594662    26.947332 
   89400     234.3271   -358.35595       229892   -22568.396    1665.8857   -24234.281   -861.06858    423.34945    39.404643    35.593319    26.945038 
   89600    228.60908   -431.38738       229892   -22675.597     1625.235   -24300.832    -1154.119    422.63298     39.40625    35.593531    26.936183 
   89800    238.06945   -253.64758       229892   -22586.311    1692.4909   -24278.801   -441.80947    422.82441    39.408491    35.593728    26.940781 
   90000      235.258   -323.99176       229892   -22586.545    1672.5037   -24259.049   -713.46632    424.42368    39.410904    35.594162    26.928543 
   90200    238.22586   -333.27488       229892   -22637.253    1693.6029   -24330.856   -778.74548    425.41736    39.410338    35.595035    26.931473 
   90400     233.4204   -218.01991       229892   -22552.667    1659.4398   -24212.107   -322.78643    424.69382    39.410475    35.593307    26.941283 
   90600    231.93955   -327.83914       229892   -22548.169    1648.9121   -24197.081   -756.92229    426.72717    39.410311    35.593752    26.939208 
   90800    236.99519   -259.67481       229892   -22564.655    1684.8538   -24249.509   -473.84029    427.06847    39.410071    35.595429    26.958395 
   91000     224.3758    -361.3551       229892   -22600.516    1595.1396   -24195.656   -867.22137    429.06849    39.410804    35.597548     26.96767 
   91200    226.35605   -253.72686       229892   -22659.211    1609.2177   -24268.428   -490.83912      431.071    39.410582    35.601421     26.97237 
   91400    230.45018   -384.10433       229892   -22595.065    1638.3238   -24233.389   -939.65242    433.35927    39.408947    35.602832    26.966491 
   91600    241.00889   -390.50326       229892   -22523.808    1713.3881   -24237.196   -990.29579    433.16534    39.409096    35.604835    26.963728 
   91800      235.612   -415.32407       229892    -22539.98    1675.0203       -24215   -1075.1272    435.26261    39.410386    35.605368    26.941467 
   92000    232.29097   -447.81459       229892   -22518.344    1651.4104   -24169.754   -1181.3961     435.5797    39.412188    35.603814    26.954009 
   92200     234.1515   -247.46054       229892   -22520.103    1664.6373    -24184.74   -423.80778     435.6355    39.413103    35.603804     26.95663 
   92400     231.2284    -392.6817       229892   -22500.346    1643.8563   -24144.202   -1026.5405     436.0516    39.413964    35.604325    26.968541 
   92600    240.92143   -305.15102       229892   -22497.494    1712.7663    -24210.26   -673.57121    435.38195    39.413642    35.602789    26.966503 
   92800    236.38495   -303.08406       229892   -22593.453    1680.5154   -24273.969   -630.64569    436.73385    39.412331    35.601849    26.970651 
   93000    232.33806   -292.04762       229892   -22612.538    1651.7452   -24264.283   -596.28939    435.69406    39.413108    35.601449    26.963285 
   93200    233.21426   -356.66412       229892   -22593.401    1657.9743   -24251.375   -884.80257    436.07809     39.41195    35.599884    26.944962 
   93400    228.60191   -317.36927       229892   -22670.094     1625.184   -24295.278   -736.72869    436.23579    39.411569    35.599637    26.928431 
   93600    233.51104   -254.71252       229892   -22627.974    1660.0842   -24288.058   -450.06183    438.53745    39.411499    35.598844    26.910206 
   93800    228.82497   -343.51787       229892   -22652.639    1626.7698   -24279.409   -830.67361    440.10696    39.411849    35.598372    26.914258 
   94000    232.41499   -304.77094       229892   -22675.995    1652.2921   -24328.287   -640.72263    441.91913    39.413118     35.59794    26.903245 
   94200    234.75778   -330.85258       229892   -22552.958    1668.9475   -24221.905   -758.47415    442.28103    39.414459    35.599759    26.902249 
   94400    231.99138   -329.48187       229892   -22619.012    1649.2805   -24268.293   -730.47964    443.13017    39.412932    35.599701    26.914467 
   94600    231.23485   -414.09783       229892   -22611.787    1643.9022   -24255.689   -1117.7592    445.05506    39.412249     35.59704    26.904091 
   94800    237.92764   -383.91924       229892   -22580.875    1691.4828   -24272.358   -937.71865    444.05674    39.411729    35.597199    26.908872 
   95000    230.10892   -396.87237       229892   -22601.438    1635.8977   -24237.335   -1002.5669     445.9504    39.410466    35.596205     26.89891 
   95200    235.16846   -480.77346       229892   -22584.366    1671.8671   -24256.234   -1329.0858    447.09655    39.411449    35.594916    26.915272 
   95400    236.91185   -471.25488       229892   -22529.242    1684.2613   -24213.504   -1295.8976     447.3179    39.410981    35.593198    26.914838 
   95600    236.17383    -485.8175       229892   -22555.847    1679.0145   -24234.862   -1366.7298    449.59872    39.410174    35.592932     26.91569 
   95800    241.62235   -372.80202       229892   -22522.081    1717.7494   -24239.831   -965.50363    450.91498    39.409768    35.592232    26.918341 
   96000    239.82347   -61.824491       229892   -22510.263    1704.9607   -24215.224    287.41173    451.26373    39.410503    35.592257    26.935953 
   96200    237.39571   -245.22881       229892   -22422.772    1687.7012   -24110.473   -423.06439    453.74859    39.410102    35.591215    26.919203 
   96400    235.54178   -381.92459       229892   -22500.577    1674.5211   -24175.098   -974.99642    454.51648    39.410658    35.590335    26.891199 
   96600    233.36064   -290.02491       229892   -22539.707    1659.0149   -24198.722   -585.69722     453.7586    39.411138    35.589027    26.891685 
   96800    239.04529   -260.47577       229892   -22507.882    1699.4284    -24207.31   -495.17344    454.99167    39.412196    35.585641    26.871858 
   97000    231.72892   -357.12335       229892   -22526.521    1647.4147   -24173.936   -844.85501     455.4063    39.412882    35.585525    26.864724 
   97200     233.1928   -407.39142       229892    -22554.62    1657.8217   -24212.442   -1080.6697    455.09473    39.413412    35.585317     26.86518 
   97400    235.61622   -361.89514       229892   -22548.144    1675.0504   -24223.194   -932.45075    455.94108    39.414241    35.585903    26.859445 
   97600    238.91046   -283.39047       229892   -22504.732    1698.4699   -24203.202   -554.18536    456.70324     39.41577     35.58604    26.863445 
   97800    235.21915    -357.6217       229892   -22495.345    1672.2275   -24167.573   -841.19199    457.50356    39.416639    35.584543    26.871738 
   98000    231.05034    -425.9141       229892   -22567.959    1642.5905    -24210.55    -1138.457    459.90137    39.414944    35.583659    26.871248 
   98200    234.60026   -275.72999       229892   -22583.061    1667.8277   -24250.888   -541.44985    460.46415    39.412301    35.583314    26.866847 
   98400    237.63871    -401.2093       229892   -22518.629    1689.4287   -24208.058   -1016.7563    461.88083    39.413249    35.582758    26.872794 
   98600    229.03544   -416.04968       229892   -22576.588     1628.266   -24204.854   -1111.9238    461.74437    39.413651    35.582027    26.883267 
   98800    235.94974   -507.97436       229892   -22536.986    1677.4215   -24214.408   -1460.2055    460.61535    39.413218     35.58129    26.865925 
   99000    226.78736   -450.10229       229892   -22588.691    1612.2839   -24200.975   -1246.3786    461.08348    39.411807    35.580259    26.852172 
   99200    232.60063   -452.64086       229892   -22540.111    1653.6118   -24193.723    -1252.824    461.26921    39.410476    35.579543    26.866278 
   99400    238.14058   -296.41699       229892   -22514.556    1692.9966   -24207.552   -633.43443    462.20111    39.410157    35.578799    26.858679 
   99600    235.58371   -411.55577       229892   -22504.602    1674.8192   -24179.421   -1070.1423    464.80373    39.409762    35.577865     26.85364 
   99800    240.11658   -468.60786       229892    -22534.24    1707.0444   -24241.285     -1272.78    465.81553    39.410844    35.581036    26.841288 
  100000    234.92916   -322.83619       229892   -22586.997    1670.1659   -24257.163   -746.07657    466.68971    39.410085    35.579494    26.829195 
  100200    233.07087   -392.74615       229892   -22651.464    1656.9549   -24308.419   -994.18526    467.33403    39.410216     35.58054    26.826375 
  100400    240.60406   -434.66665       229892   -22532.196    1710.5101   -24242.706    -1174.974    466.35541    39.407571    35.582013    26.828846 
  100600    230.63597    -401.4931       229892   -22554.463    1639.6446   -24194.107    -1034.109    467.02431    39.409757    35.582382    26.827608 
  100800    238.55714   -516.17625       229892   -22582.294     1695.958   -24278.252    -1515.217    469.13732    39.410281    35.582998    26.814362 
[...]
 3975800    222.23093   -164.17381       229892   -24666.414    1579.8913   -26246.305   -116.18387    6002.0781    40.074439    35.891368    26.616801 
 3976000    223.93456   -153.69844       229892   -24713.094    1592.0028   -26305.097   -97.787624    6001.6895    40.075423    35.891244    26.616899 
 3976200    220.15996   -64.878546       229892   -24697.681    1565.1682   -26262.849    254.37494    6000.9448    40.075927    35.891963    26.614487 
 3976400    221.93127   -215.64705       229892   -24731.913    1577.7609   -26309.674   -348.54014    6002.0974    40.077181    35.892819    26.603206 
 3976600    224.19886   -142.19969       229892   -24723.412    1593.8817   -26317.294   -34.309782    6003.5324    40.078623    35.893134     26.59172 
 3976800    225.59266    -57.35329       229892    -24646.43    1603.7905   -26250.221    281.63022    6003.0759    40.079409    35.894232      26.5927 
 3977000     220.8404    7.3453317       229892   -24765.814    1570.0056    -26335.82    556.02815    6000.6866    40.080108    35.893812    26.611084 
 3977200    221.15793   -204.60438       229892   -24674.224     1572.263   -26246.487   -309.60147    6003.4586    40.080404    35.893154    26.611833 
 3977400    225.45982   -102.42619       229892   -24685.088    1602.8461   -26287.934    133.42432    6003.3348    40.081092    35.894173    26.635502 
 3977600    222.29528   -126.29683       229892   -24717.589    1580.3487   -26297.938   -4.8757586    6002.1918    40.080662    35.894665    26.637209 
 3977800    227.80812   -99.332671       229892   -24691.047    1619.5408   -26310.588    142.06058    6002.8471    40.079957    35.895187    26.631928 
 3978000    222.85617   -56.962861       229892   -24749.019    1584.3362   -26333.355    304.55766    6003.6774    40.079976    35.895086    26.643015 
 3978200    228.81221   -67.444021       229892   -24686.904    1626.6791   -26313.583    242.25703    6002.0798    40.080203    35.894743     26.64037 
 3978400    221.35084    11.509296       229892   -24725.605    1573.6345    -26299.24     556.0164    6004.1086    40.079788    35.894485    26.639462 
 3978600    219.35395   -181.03645       229892   -24706.499    1559.4381   -26265.937   -199.79972    6002.6711    40.078893    35.895293    26.645214 
 3978800    222.63029   -71.960881       229892   -24670.263    1582.7304   -26252.994    217.40261    6005.9203    40.078843    35.895046    26.637684 
 3979000    222.58234   -111.43056       229892   -24699.497    1582.3895   -26281.887    45.316912    6003.7928    40.079414    35.894914     26.62342 
 3979200    221.37398   -70.087111       229892   -24740.624     1573.799   -26314.423    222.29762    6002.6119    40.079974    35.895075    26.636656 
 3979400    228.43979   -55.223435       229892   -24710.639    1624.0314   -26334.671    283.60961    6002.1902    40.080453    35.893626    26.636271 
 3979600    220.43886     -35.4053       229892   -24712.892     1567.151   -26280.043    390.83673    6004.0714    40.080517    35.893376    26.631357 
 3979800     224.5264   -132.16222       229892   -24703.004    1596.2102   -26299.214   -36.540205     6002.554    40.081127    35.893291    26.636985 
 3980000    224.86515   -122.22108       229892   -24717.822    1598.6185    -26316.44    40.376219    6003.5932    40.081964    35.892627    26.640797 
 3980200     230.0295    -113.1164       229892   -24699.704    1635.3331   -26335.037    65.317115    6002.3055    40.082701    35.894069    26.639437 
 3980400    221.89215   -49.868586       229892   -24707.566    1577.4828   -26285.049    306.40986    6003.5278    40.083414    35.894061    26.630332 
 3980600    223.92883   -101.64194       229892   -24640.903     1591.962   -26232.865    116.71016    6002.5701    40.082756    35.893267    26.620984 
 3980800    221.59508   -110.36858       229892   -24652.629    1575.3708   -26227.999    47.113573    6002.1085     40.08317    35.892555    26.615487 
 3981000     223.7629   -19.595037       229892   -24658.482    1590.7824   -26249.264    440.93989    6001.0895     40.08347    35.891823    26.622527 
 3981200    225.07956   -25.324069       229892   -24655.987    1600.1428    -26256.13    407.94184     6004.711    40.084266    35.891119    26.617433 
 3981400    225.75997   -127.86308       229892   -24638.101      1604.98   -26243.081    23.400119    6003.0492    40.084106    35.889971     26.63642 
 3981600    215.50278   -116.82272       229892   -24694.379    1532.0593   -26226.438    39.482754    6003.7013     40.08511    35.889717     26.62702 
 3981800    229.71528   -54.530892       229892   -24675.646    1633.0992   -26308.745    332.22139    6003.9843    40.084897    35.890994    26.624078 
 3982000    225.27454   -164.53231       229892   -24727.923     1601.529   -26329.452   -161.88677    6004.6528    40.085512    35.890448    26.621114 
 3982200    222.11841   -60.838735       229892   -24746.091    1579.0913   -26325.183     266.2611    6003.1033    40.086309    35.890376    26.617883 
 3982400    224.85089   -116.66575       229892   -24680.691    1598.5171   -26279.209     51.12672    6001.5276    40.085861    35.891044     26.61573 
 3982600    221.70759   -87.513728       229892   -24698.034    1576.1707   -26274.205    157.68133    6004.8578    40.085976    35.890518    26.608435 
 3982800    228.35747    -210.7439       229892   -24646.133    1623.4462   -26269.579   -245.16265    6003.5247    40.087246    35.890805    26.610968 
 3983000    222.77991   -78.683392       229892   -24628.179    1583.7941   -26211.973    220.52777    6002.9848    40.086978     35.88964      26.6251 
 3983200      227.235    20.302973       229892    -24654.63    1615.4663   -26270.096    569.27068    6002.8907     40.08803    35.890282    26.624734 
 3983400    232.20495    5.8433385       229892   -24616.227    1650.7989   -26267.026    545.06862    6002.8977    40.088849    35.889298    26.626946 
 3983600    224.35275    -254.3758       229892   -24678.453    1594.9757   -26273.429   -488.49332    6003.7274     40.08973    35.889475    26.629392 
 3983800    222.81847   -99.318131       229892    -24663.19    1584.0682   -26247.258    124.93692    6003.4762    40.091133    35.889476     26.62455 
 3984000    226.00479   -128.62087       229892   -24697.555    1606.7205   -26304.275    1.9480132    6003.4356    40.091586    35.890064    26.609331 
 3984200    227.64008   -115.99393       229892    -24682.31    1618.3462   -26300.656    70.264875    6004.6421    40.091313    35.889273    26.607793 
 3984400    229.68738   -107.23335       229892   -24707.616    1632.9009   -26340.517    83.888285     6003.784    40.091962    35.888602    26.614115 
 3984600     224.1034   -66.020058       229892   -24700.838     1593.203   -26294.041    249.60247    6003.0224    40.093147    35.887884    26.618831 
 3984800    222.79722    -114.8034       229892   -24681.279    1583.9171   -26265.196    74.320769    6001.6537    40.093812    35.886849    26.622262 
 3985000    230.01726    55.438686       229892   -24702.321    1635.2461   -26337.567     738.3438    6001.8014    40.094223    35.887225    26.618882 
 3985200    224.32027     35.86872       229892   -24675.545    1594.7448   -26270.289    600.44046    5999.3768    40.095198    35.886757    26.614626 
 3985400    227.50033   -147.72609       229892   -24693.131    1617.3526   -26310.483   -61.790275    6002.8292     40.09432    35.886496    26.603846 
 3985600    227.08483    -46.85864       229892   -24658.572    1614.3987    -26272.97    312.03763    5999.9791    40.094364    35.886994    26.610323 
 3985800    226.46266    40.612686       229892   -24683.164    1609.9756   -26293.139    627.51904    6001.4742    40.093732    35.887807    26.618695 
 3986000    229.59881   -118.38478       229892   -24574.705    1632.2712   -26206.976    69.136155    6001.2787    40.094199    35.888709    26.617391 
 3986200    228.55393   -170.70816       229892   -24615.998    1624.8429   -26240.841   -206.05455    6002.2906    40.095726    35.888186    26.612701 
 3986400    221.10337   -66.267967       229892   -24738.644    1571.8751   -26310.519    234.39102    6002.7346    40.095891    35.888248    26.601109 
 3986600    221.50065   -53.667019       229892   -24707.972    1574.6995   -26282.672    296.92039    6003.4509    40.096445    35.888771    26.610688 
 3986800    223.23519   -28.255174       229892    -24690.21    1587.0307   -26277.241    378.78625    6002.0477    40.097321    35.888107    26.604271 
 3987000    223.70398   -158.14544       229892    -24664.67    1590.3635   -26255.034   -125.56533    6003.2598     40.09753    35.886876    26.595543 
 3987200    221.46722   -138.01377       229892   -24785.547    1574.4619   -26360.008   -17.729495    6000.8838    40.098673    35.886979    26.589284 
 3987400    225.44093   -64.739341       229892   -24710.218    1602.7119    -26312.93     269.2672    6002.1082    40.099022    35.887898    26.599261 
 3987600    222.06969     30.49543       229892   -24653.676    1578.7449   -26232.421     615.3007    6001.5277    40.099531    35.888453    26.597118 
 3987800    229.89891   -140.86554       229892   -24694.898    1634.4047   -26329.302   -32.705257    6002.9863    40.099918    35.887871    26.600709 
 3988000    229.20667   -158.98036       229892   -24668.974    1629.4834   -26298.458    -128.2655    6001.4586    40.100502    35.888126    26.603509 
 3988200    227.33705   -68.848746       229892   -24672.545    1616.1918   -26288.737    228.74802    6003.5501     40.10113    35.888522    26.591905 
 3988400    226.74384   -159.30407       229892   -24679.468    1611.9745   -26291.443   -136.95091    6002.8014    40.101093    35.889015    26.608797 
 3988600    222.16625   -208.52146       229892   -24728.197    1579.4314   -26307.629   -295.64808    6003.9555    40.101657    35.888794    26.602368 
 3988800    228.87783   -42.672036       229892   -24709.121    1627.1456   -26336.267    321.65995     6003.223    40.102168    35.887386    26.599721 
 3989000    225.77442   -225.98814       229892   -24639.456    1605.0827   -26244.539   -355.90809    6003.1175    40.102233    35.888572    26.600663 
 3989200    227.38634   -110.24029       229892   -24709.245    1616.5422   -26325.788    81.533342     6003.859    40.102959    35.888221    26.606202 
 3989400    222.32544   -40.251288       229892   -24713.388    1580.5631   -26293.951    340.45572    6001.9424    40.102511    35.887262    26.612317 
 3989600    230.60777   -111.52388       229892   -24628.409    1639.4441   -26267.854    92.130101    6003.1313     40.10289    35.886976     26.60069 
 3989800    227.08933   -270.62201       229892   -24672.854    1614.4307   -26287.284   -565.20662    6003.0288    40.104304    35.886955    26.588289 
 3990000     221.2626   -46.420139       229892   -24700.744    1573.0071   -26273.751     319.5142    6000.4745    40.104962    35.887153    26.596121 
 3990200    222.63369   -63.481248       229892   -24729.248    1582.7546   -26312.002    240.65511    6002.4509    40.105322    35.885349    26.603618 
 3990400    226.36577   -41.606275       229892   -24685.524    1609.2867   -26294.811    356.89418    6002.8622     40.10563    35.884236     26.59451 
 3990600    225.60668   -4.1835728       229892   -24723.134    1603.8902   -26327.025     456.0927    6003.4693    40.105951    35.884111    26.604161 
 3990800    224.91277   -82.224543       229892   -24662.757    1598.9571   -26261.714    155.85592    6002.1662    40.107793    35.884039    26.613062 
 3991000    230.09383   -100.54883       229892   -24665.675    1635.7904   -26301.466    108.02679    6002.1632    40.109144    35.883861    26.603249 
 3991200    226.53125    10.255154       229892   -24648.088    1610.4632   -26258.551    565.35686    6001.2153    40.109011    35.884353    26.616706 
 3991400    228.17673   -74.113733       229892   -24626.114    1622.1613   -26248.275    243.03896    6000.7015      40.1089    35.883893    26.611028 
 3991600    226.43567   -92.926267       229892   -24688.228    1609.7837   -26298.011    180.46863    6001.6831    40.108196    35.884126    26.613508 
 3991800    222.43467   -76.368939       229892   -24774.691    1581.3397    -26356.03    208.30439    6003.7833    40.108325    35.884008    26.607654 
 3992000    226.23536   -107.47855       229892   -24700.768    1608.3597   -26309.127    111.65718    6002.9735    40.109279    35.883217    26.606489 
 3992200    229.41418   -64.404788       229892   -24699.546    1630.9587   -26330.504     258.5596    6003.5648    40.110602     35.88276    26.606902 
 3992400    228.63283   -182.31868       229892   -24707.389    1625.4038   -26332.793   -222.25218    6002.6713    40.111879    35.883632    26.591894 
 3992600    223.79066   -55.951675       229892   -24704.984    1590.9797   -26295.964    331.78315    6001.8019    40.112703    35.882285    26.607494 
 3992800    223.96694   -52.074183       229892   -24694.791    1592.2329   -26287.024    278.16392    6001.0737    40.113828    35.881705    26.603972 
 3993000    217.59533   -92.038181       229892   -24800.917    1546.9357   -26347.853    152.79013    6004.1407    40.115224     35.88121    26.594943 
 3993200    223.61277   -76.377717       229892   -24682.969     1589.715   -26272.684    246.59377    6003.2078    40.116875    35.881466    26.588468 
 3993400    225.49117   -8.8986193       229892   -24664.444     1603.069   -26267.513    477.93668    6002.4329    40.117301    35.881771    26.598518 
 3993600    222.85474    -42.65113       229892   -24683.117    1584.3261   -26267.443    346.05635    6003.5218    40.117376    35.881931    26.619813 
 3993800    227.46996   -188.01034       229892   -24694.002    1617.1367   -26311.138   -233.60486    6004.7741    40.117322    35.882011     26.60914 
 3994000    224.60365   -191.95972       229892   -24697.051    1596.7595    -26293.81   -272.94915    6002.9625    40.117568     35.88272    26.600381 
 3994200    221.96989    123.97359       229892   -24753.753    1578.0355   -26331.788    1038.4142    6001.8993    40.118499    35.881797     26.59978 
 3994400    228.13288   -51.050554       229892    -24702.57    1621.8495    -26324.42    290.43205    6002.8758    40.118807    35.880982     26.59266 
 3994600    218.36248   -107.89743       229892   -24745.386    1552.3895   -26297.776    75.367454    6005.4688    40.119503    35.880365    26.589387 
 3994800    226.25024   -83.281753       229892   -24683.474    1608.4654    -26291.94    203.37789    6003.9259    40.120351    35.881038    26.581306 
 3995000    227.85706   -42.858967       229892   -24657.831    1619.8887   -26277.719    338.64743    6003.9212     40.11971    35.880563    26.585251 
 3995200    216.18735   -203.11204       229892    -24757.49     1536.926   -26294.416   -247.69298     6004.967    40.119327    35.880282    26.592195 
 3995400    228.12742   -7.9000426       229892   -24673.771    1621.8107   -26295.582    446.66978     6003.513    40.119239    35.879502    26.582906 
 3995600    230.54914   -109.85209       229892   -24615.874    1639.0273   -26254.901    111.86465     6003.449    40.119123    35.879483    26.599942 
 3995800    230.33954   -173.80515       229892   -24632.229    1637.5372   -26269.767    -141.3406    6004.4879    40.120445    35.878452    26.599138 
 3996000    236.43987   -81.298293       229892   -24561.586    1680.9059   -26242.492    186.49503    6002.6086    40.120935       35.878    26.594886 
 3996200    229.95572   -63.875478       229892   -24624.991    1634.8085   -26259.799     246.6547    6005.5564    40.121534    35.878475    26.586136 
 3996400    219.22217    15.548151       229892   -24717.321    1558.5013   -26275.822    606.07474    6003.0252    40.122397    35.877817    26.594277 
 3996600    223.98525   -66.886759       229892   -24680.419    1592.3631   -26272.783    222.11735    6003.4921    40.123844    35.878716    26.608292 
 3996800    220.73399   -57.278521       229892   -24728.419    1569.2492   -26297.668    299.82207    6002.7822    40.125957    35.878902    26.621137 
 3997000    229.90313    72.572241       229892   -24599.691    1634.4347   -26234.125    789.62597     6003.682    40.126088    35.878541    26.613045 
 3997200    229.94614   -180.31353       229892   -24676.484    1634.7405   -26311.224   -203.45859    6003.3815     40.12654    35.878347    26.614354 
 3997400    221.37905   -93.960559       229892   -24731.942     1573.835   -26305.777    136.33528    6003.3349    40.127634    35.879326    26.616356 
 3997600     225.7786   -192.82971       229892   -24681.519    1605.1124   -26286.632   -263.01057    6003.6604    40.128752    35.879987    26.597934 
 3997800     219.0737   -164.59436       229892   -24805.142    1557.4458   -26362.588   -130.37416    6004.3914    40.130128    35.879127    26.600074 
 3998000    221.84279   -81.053231       229892   -24698.529    1577.1319    -26275.66    205.84943    6004.0016    40.130844    35.879037    26.601154 
 3998200    221.13011   -217.10534       229892   -24712.952    1572.0652   -26285.017   -338.38141    6005.7325    40.132247     35.87937    26.599718 
 3998400    231.27703   -201.28823       229892   -24607.216    1644.2021   -26251.418   -272.91444    6005.4499    40.133011    35.879349    26.588745 
 3998600     221.0099   -144.06389       229892   -24711.023    1571.2106   -26282.233   -41.526405    6005.2565    40.133299     35.88006    26.577497 
 3998800    228.49835     10.19282       229892   -24670.475    1624.4478   -26294.923    508.65417    6003.3705    40.133242    35.880448    26.571022 
 3999000    227.17457   -96.236862       229892   -24630.186    1615.0367   -26245.223    141.80801    6003.8891    40.133979    35.880875    26.573493 
 3999200    220.67842     27.52647       229892   -24700.916    1568.8541    -26269.77    619.96513    6002.1734    40.135707    35.880179    26.567588 
 3999400    226.53274   -98.047233       229892   -24727.349    1610.4738   -26337.823    124.81127    6004.0075     40.13681    35.879532    26.562181 
 3999600     221.6801    -166.2789       229892   -24718.023    1575.9752   -26293.999   -139.16257    6005.6928    40.136748    35.880431    26.562188 
 3999800     226.3246   -35.349269       229892   -24645.096    1608.9941    -26254.09    371.47218    6002.4135    40.136555    35.881556    26.574358 
 4000000    226.61162   -79.036598       229892   -24603.941    1611.0346   -26214.976    195.64683    6002.5994     40.13767    35.881356    26.585291 
Loop time of 7012.82 on 120 procs for 4000000 steps with 9010 atoms

Performance: 492.812 ns/day, 0.049 hours/ns, 570.384 timesteps/s
98.1% CPU use with 120 MPI tasks x no OpenMP threads

MPI task timing breakdown:
Section |  min time  |  avg time  |  max time  |%varavg| %total
---------------------------------------------------------------
Pair    | 0.19725    | 1671.6     | 5717.6     |4660.2 | 23.84
Neigh   | 0.31179    | 104.37     | 399.22     |1261.0 |  1.49
Comm    | 21.912     | 2827.6     | 6139.3     |4001.2 | 40.32
Output  | 80.314     | 80.388     | 81.791     |   1.5 |  1.15
Modify  | 180.94     | 2284.6     | 6865       |5492.9 | 32.58
Other   |            | 44.26      |            |       |  0.63

Nlocal:    75.0833 ave 232 max 0 min
Histogram: 55 5 30 0 0 0 0 0 4 26
Nghost:    602.592 ave 980 max 0 min
Histogram: 10 5 5 0 10 15 27 17 19 12
Neighs:    0 ave 0 max 0 min
Histogram: 120 0 0 0 0 0 0 0 0 0
FullNghs:  7428.45 ave 29051 max 0 min
Histogram: 70 20 0 0 0 0 0 2 14 14

Total # of neighbors = 891414
Ave neighs/atom = 98.9361
Neighbor list builds = 432948
Dangerous builds = 0
write_data 		${DIR}/data.${NAME}_run
write_data 		run_15/data.${NAME}_run
write_data 		run_15/data.ibeam_cooling_15_run
Total wall time: 1:57:11
