
### Dimensions ###


### IMPORT ATOMS ###
read_data ../Box_Setup/data.Ibeam_235K
  orthogonal box = (0 0 0) to (78.752 72.9753 40.0024)
  6 by 5 by 4 MPI processor grid
  reading atoms ...
  9010 atoms
  reading velocities ...
  9010 velocities
group water type 2
2386 atoms in group water
group graphite type 1
6624 atoms in group graphite


# Define potential
#
pair_style          sw
pair_coeff * * MLC_e.sw C mW

# Add velocity/set timestep
#

fix		1 graphite setforce 0.0 0.0 0.0
velocity 	graphite set 0.0 0.0 0.0
velocity            water create ${START_TEMP} ${SEED} rot yes dist gaussian
velocity            water create 235 ${SEED} rot yes dist gaussian
velocity            water create 235 11272 rot yes dist gaussian
timestep            5.0

# Define output
#
compute 1 water msd
compute 2 water temp


thermo	            100
thermo_style custom step c_2 press vol etotal ke pe c_1[4] density

# Neighbor lists
#
neigh_modify        delay 0 every 1 check yes


# Set fixes
#
fix                 2 water momentum 10 linear 1 1 1 rescale
fix                 3 all nve
fix                 4 water temp/csvr ${START_TEMP} ${START_TEMP} 500.0 928347
fix                 4 water temp/csvr 235 ${START_TEMP} 500.0 928347
fix                 4 water temp/csvr 235 235 500.0 928347

# Run 0.05 ns equilibration
#
dump                1 all custom 100 ${DIR}/eq.${NAME}.dump id type x y z vx vy vz
dump                1 all custom 100 run_15/eq.${NAME}.dump id type x y z vx vy vz
dump                1 all custom 100 run_15/eq.ibeam_cooling_15.dump id type x y z vx vy vz
run                 10000
Neighbor list info ...
  update every 1 steps, delay 0 steps, check yes
  max neighbors/atom: 2000, page size: 100000
  master list distance cutoff = 6.67472
  ghost atom cutoff = 6.67472
  binsize = 3.33736, bins = 24 22 12
  1 neighbor lists, perpetual/occasional/extra = 1 0 0
  (1) pair sw, perpetual
      attributes: full, newton on
      pair build: full/bin/atomonly
      stencil: full/bin/3d
      bin: standard
Per MPI rank memory allocation (min/avg/max) = 0.4724 | 3.952 | 4.75 Mbytes
Step c_2 Press Volume TotEng KinEng PotEng c_1[4] Density 
       0          235   -397.42353       229892   -22660.138    1670.6695   -24330.807            0   0.88510766 
     100    230.47597   -218.28055       229892   -22659.395    1638.5071   -24297.902   0.82702841   0.88510766 
     200    232.35635   -284.64873       229892   -22693.798    1651.8752   -24345.673    1.2285248   0.88510766 
     300    232.09418   -395.14272       229892   -22680.925    1650.0114   -24330.936    1.6276316   0.88510766 
     400    231.62109   -250.08202       229892   -22681.597    1646.6481   -24328.245    1.9012921   0.88510766 
     500    235.82998   -355.98911       229892   -22655.498      1676.57   -24332.068    2.1846652   0.88510766 
     600    246.13909   -361.07458       229892   -22600.448    1749.8599   -24350.308    2.5116102   0.88510766 
     700    234.67921   -318.51079       229892   -22608.011     1668.389     -24276.4    2.8940434   0.88510766 
     800    238.19146   -312.98812       229892   -22598.016    1693.3583   -24291.374    3.1457735   0.88510766 
     900    228.28388   -471.75655       229892   -22630.388    1622.9231   -24253.311    3.4070988   0.88510766 
    1000    232.90204   -385.47565       229892   -22664.897    1655.7546   -24320.652    3.7865715   0.88510766 
    1100    230.72404   -365.59109       229892   -22650.601    1640.2707   -24290.871    4.0485547   0.88510766 
    1200    229.00487   -428.78832       229892   -22653.767    1628.0488   -24281.816     4.231107   0.88510766 
    1300    240.16799   -256.96354       229892   -22609.486      1707.41   -24316.896    4.4584917   0.88510766 
    1400    235.44357   -388.90503       229892   -22640.496    1673.8229   -24314.319    4.7023631   0.88510766 
    1500    231.27141   -379.55229       229892   -22671.905    1644.1621   -24316.067    4.8298395   0.88510766 
    1600    234.17887   -431.73188       229892   -22645.785    1664.8319   -24310.617    4.9914284   0.88510766 
    1700    239.23174   -293.28989       229892   -22666.128    1700.7539   -24366.882    5.1641078   0.88510766 
    1800    232.65139   -319.50231       229892   -22627.695    1653.9727   -24281.668    5.3221393   0.88510766 
    1900    239.48489   -420.18326       229892   -22592.861    1702.5536   -24295.414    5.5991972   0.88510766 
    2000    239.12107    -432.7019       229892   -22572.615    1699.9672   -24272.582    5.7819946   0.88510766 
    2100    235.78588   -254.56432       229892   -22666.958    1676.2565   -24343.215    5.9387782   0.88510766 
    2200    238.01202   -398.72638       229892   -22644.801    1692.0827   -24336.884    6.1075328   0.88510766 
    2300    232.85301   -348.70816       229892   -22599.994    1655.4061     -24255.4    6.3515742   0.88510766 
    2400    237.83564   -281.51388       229892   -22604.386    1690.8287   -24295.214    6.7225775   0.88510766 
    2500    236.46778   -427.44682       229892   -22626.176    1681.1043    -24307.28    7.0489925   0.88510766 
    2600    233.76792   -280.23843       229892   -22643.234    1661.9103   -24305.144    7.4232806   0.88510766 
    2700    241.61626   -401.62317       229892   -22640.734    1717.7061    -24358.44    7.5377069   0.88510766 
    2800    242.41199   -281.66654       229892    -22608.78    1723.3631   -24332.143    7.8219653   0.88510766 
    2900    239.98272   -428.51992       229892   -22625.958    1706.0928   -24332.051    8.1996879   0.88510766 
    3000    238.08561   -290.72814       229892   -22624.795    1692.6059     -24317.4    8.5417153   0.88510766 
    3100    238.70942   -330.90942       229892    -22622.65    1697.0406   -24319.691    8.8895988   0.88510766 
    3200    234.52345    -306.8142       229892   -22684.497    1667.2816   -24351.779    9.0892755   0.88510766 
    3300    235.07343   -258.12079       229892    -22760.49    1671.1915   -24431.681    9.2300715   0.88510766 
    3400    238.38227   -453.66566       229892   -22716.395    1694.7149    -24411.11    9.5073445   0.88510766 
    3500     233.9931   -382.87372       229892   -22705.154    1663.5112   -24368.666    9.8457734   0.88510766 
    3600    231.42718    -344.4243       229892   -22685.814    1645.2695   -24331.083    10.089558   0.88510766 
    3700    237.66813    -368.6367       229892   -22655.561    1689.6379   -24345.199    10.118161   0.88510766 
    3800    235.39307   -375.01369       229892   -22645.236     1673.464     -24318.7    10.409793   0.88510766 
    3900    239.15633   -460.52227       229892   -22644.282    1700.2178     -24344.5    10.702456   0.88510766 
    4000    239.25339   -349.89759       229892   -22671.776    1700.9078   -24372.684    10.888848   0.88510766 
    4100    236.00536   -545.36301       229892   -22654.902    1677.8168   -24332.719    11.119826   0.88510766 
    4200    235.42587   -366.77053       229892   -22629.381    1673.6971   -24303.078    11.509952   0.88510766 
    4300    237.23568    -286.0211       229892   -22706.236    1686.5635   -24392.799    11.775644   0.88510766 
    4400    234.43547   -239.17515       229892   -22674.965    1666.6562   -24341.621    11.872534   0.88510766 
    4500    234.70557   -309.62467       229892   -22686.918    1668.5764   -24355.495    12.046525   0.88510766 
    4600    229.75366   -431.84228       229892   -22742.216    1633.3721   -24375.588    12.309744   0.88510766 
    4700    238.83065   -207.66877       229892   -22694.213    1697.9025   -24392.116    12.451408   0.88510766 
    4800    233.48547    -351.5762       229892   -22646.879    1659.9024   -24306.781    12.585636   0.88510766 
    4900    237.08506   -494.63758       229892   -22598.568    1685.4927   -24284.061     12.85766   0.88510766 
    5000    236.87086   -300.28834       229892    -22644.31    1683.9699    -24328.28    13.011034   0.88510766 
    5100    236.36111    -315.6103       229892   -22597.047    1680.3459   -24277.393    13.358475   0.88510766 
    5200    237.02537   -368.37655       229892   -22634.749    1685.0683   -24319.818    13.572607   0.88510766 
    5300    234.04865   -488.19458       229892   -22689.676    1663.9061   -24353.583     13.90935   0.88510766 
    5400    238.64681   -265.11972       229892   -22677.857    1696.5955   -24374.453    14.264741   0.88510766 
    5500    238.93291   -388.41405       229892   -22684.956    1698.6295   -24383.585    14.503677   0.88510766 
    5600    237.41023    -414.4909       229892   -22702.447    1687.8044   -24390.252    14.639548   0.88510766 
    5700    232.45284   -371.78034       229892   -22689.729    1652.5611    -24342.29    15.026272   0.88510766 
    5800    232.51257   -334.59204       229892   -22676.052    1652.9858   -24329.038    15.245701   0.88510766 
    5900    232.30757   -604.27133       229892   -22707.173    1651.5284   -24358.701    15.469184   0.88510766 
    6000    236.22232   -318.52071       229892   -22720.557    1679.3593   -24399.916    16.102786   0.88510766 
    6100    236.10256   -259.88734       229892   -22729.275    1678.5079   -24407.783    16.632333   0.88510766 
    6200    232.26719    -231.2219       229892   -22747.611    1651.2413   -24398.852    16.921454   0.88510766 
    6300    238.09861   -489.47752       229892   -22681.537    1692.6983   -24374.235    17.145122   0.88510766 
    6400    237.16067   -532.54817       229892   -22721.447    1686.0302   -24407.478     17.33707   0.88510766 
    6500    230.98781   -349.30885       229892   -22740.972     1642.146   -24383.118    17.600893   0.88510766 
    6600    235.19188   -485.67488       229892   -22745.844    1672.0336   -24417.878    17.858866   0.88510766 
    6700    228.62986   -288.89235       229892   -22784.921    1625.3827   -24410.304    18.106602   0.88510766 
    6800     229.4763   -270.40595       229892   -22759.443    1631.4003   -24390.843    18.370508   0.88510766 
    6900    234.59661   -285.87423       229892   -22700.987    1667.8017   -24368.789     18.48686   0.88510766 
    7000    234.46115   -453.82162       229892   -22716.849    1666.8387   -24383.688    18.711423   0.88510766 
    7100    232.20045   -233.45139       229892   -22713.541    1650.7669   -24364.308    18.899046   0.88510766 
    7200    230.19203   -359.41453       229892   -22767.537    1636.4886   -24404.026     18.94479   0.88510766 
    7300    224.93461    -511.8916       229892   -22786.415    1599.1123   -24385.527    18.986236   0.88510766 
    7400    231.68468   -294.59552       229892   -22751.028    1647.1001   -24398.128    19.455454   0.88510766 
    7500    227.59764   -413.65049       229892   -22708.287    1618.0444   -24326.331    19.637957   0.88510766 
    7600    232.59749   -285.24616       229892   -22669.515    1653.5895   -24323.104    19.977447   0.88510766 
    7700     231.8937   -357.30398       229892   -22684.658    1648.5861   -24333.244    20.248825   0.88510766 
    7800    229.80518   -385.22723       229892   -22751.009    1633.7384   -24384.748    20.539114   0.88510766 
    7900    237.27298   -472.66481       229892   -22716.821    1686.8287   -24403.649    20.936997   0.88510766 
    8000     238.6925     -395.222       229892   -22654.157    1696.9204   -24351.077    20.934225   0.88510766 
    8100    231.83021   -259.52588       229892   -22636.596    1648.1348   -24284.731    21.167145   0.88510766 
    8200    238.57823   -373.37049       229892   -22667.469     1696.108   -24363.577    21.412889   0.88510766 
    8300    244.15273   -379.66339       229892   -22634.129    1735.7384   -24369.868    21.605122   0.88510766 
    8400    240.59029   -500.64525       229892    -22627.24    1710.4122   -24337.652    22.091257   0.88510766 
    8500    238.80284   -375.68544       229892   -22641.813    1697.7048   -24339.517    22.493716   0.88510766 
    8600    241.38759   -203.06821       229892   -22654.771    1716.0803   -24370.851    22.697607   0.88510766 
    8700    229.63011    -378.9187       229892   -22685.303    1632.4937   -24317.797    23.038133   0.88510766 
    8800    239.96661   -407.29697       229892   -22685.344    1705.9783   -24391.322    23.544146   0.88510766 
    8900    230.47211   -254.59898       229892   -22710.453    1638.4797   -24348.933    23.785155   0.88510766 
    9000    232.55451   -494.45568       229892    -22677.59     1653.284   -24330.874    24.044409   0.88510766 
    9100    235.75491   -367.73926       229892   -22701.267    1676.0364   -24377.304    24.401791   0.88510766 
    9200    239.05586   -227.02065       229892   -22648.657    1699.5036   -24348.161    24.809823   0.88510766 
    9300    233.42125   -361.62453       229892   -22711.456    1659.4458   -24370.901    25.112009   0.88510766 
    9400    242.42795    -501.7155       229892   -22682.849    1723.4766   -24406.326    25.204771   0.88510766 
    9500    231.45531    -183.1556       229892   -22728.868    1645.4695   -24374.338    25.413956   0.88510766 
    9600    236.75915   -323.63823       229892   -22736.454    1683.1757    -24419.63    25.592946   0.88510766 
    9700    234.17497   -284.52469       229892   -22701.121    1664.8042   -24365.925    26.025842   0.88510766 
    9800    237.99211   -238.10748       229892   -22659.406    1691.9411   -24351.347    26.245813   0.88510766 
    9900    237.66567   -372.25379       229892   -22675.328    1689.6204   -24364.948     26.30513   0.88510766 
   10000    235.57403   -361.39042       229892   -22674.454    1674.7504   -24349.204    26.373998   0.88510766 
Loop time of 18.3256 on 120 procs for 10000 steps with 9010 atoms

Performance: 235.736 ns/day, 0.102 hours/ns, 545.684 timesteps/s
98.0% CPU use with 120 MPI tasks x no OpenMP threads

MPI task timing breakdown:
Section |  min time  |  avg time  |  max time  |%varavg| %total
---------------------------------------------------------------
Pair    | 0.00047994 | 4.2481     | 15.523     | 240.2 | 23.18
Neigh   | 0.00040722 | 0.13968    | 0.52252    |  46.1 |  0.76
Comm    | 0.018755   | 7.4298     | 16.769     | 214.4 | 40.54
Output  | 0.16491    | 0.16509    | 0.17176    |   0.2 |  0.90
Modify  | 0.51578    | 6.2238     | 18.03      | 284.2 | 33.96
Other   |            | 0.1192     |            |       |  0.65

Nlocal:    75.0833 ave 232 max 0 min
Histogram: 57 3 29 1 0 0 0 0 4 26
Nghost:    605.058 ave 1008 max 0 min
Histogram: 10 7 3 0 10 20 29 11 20 10
Neighs:    0 ave 0 max 0 min
Histogram: 120 0 0 0 0 0 0 0 0 0
FullNghs:  7452.7 ave 29002 max 0 min
Histogram: 70 20 0 0 0 0 0 2 14 14

Total # of neighbors = 894324
Ave neighs/atom = 99.259
Neighbor list builds = 570
Dangerous builds = 0
write_data 	    ${DIR}/data.${NAME}_eq
write_data 	    run_15/data.${NAME}_eq
write_data 	    run_15/data.ibeam_cooling_15_eq

undump              1
unfix               4



################################################
#######         Run Simulation         #########
################################################

reset_timestep      0
timestep	    10.0
log                 ${DIR}/log.run_${NAME}
log                 run_15/log.run_${NAME}
log                 run_15/log.run_ibeam_cooling_15
