LAMMPS data file via write_data, version 29 Oct 2020, timestep = 150721

4199 atoms
1 atom types

8.491545721145542 257.29645427885237 xlo xhi
8.45697845869232 256.24905556552415 ylo yhi
0.6389713396498067 19.36102866035015 zlo zhi

Masses

1 18.015

Atoms # atomic

1063 1 128.3152768878258 90.33454239962572 7.957018227786729 0 0 1
2344 1 126.24561757929173 90.41331721477918 6.526242801832326 0 0 1
1273 1 132.5408076918472 90.48850390439226 6.5890375388351385 0 0 0
1290 1 122.88226559687934 90.96749009694491 4.9017039907319075 0 0 -1
3271 1 130.13427687406315 91.04632758341828 6.178040301879306 0 0 -1
1641 1 120.73253972665474 92.14191737404876 4.15915712432624 0 0 0
2536 1 125.09731170090456 93.07375261747069 4.664646141720559 0 0 0
3735 1 112.94284133025111 171.8654991846677 17.4228903228916 0 0 -1
1465 1 116.26929093032287 95.73461435267545 17.633253581984025 0 0 -1
304 1 119.81741873251586 96.9867451065306 18.226500817121376 0 0 -1
3993 1 121.47478892366416 93.58814851785048 2.1549722849174824 0 0 -3
1679 1 123.97815843923024 94.89946588058602 2.87577467784775 0 0 0
3528 1 124.26354276874059 97.90070909566734 18.772329471448103 0 0 0
4056 1 125.56697997520322 95.520171458394 0.7867919016867637 0 0 1
2692 1 131.53193013114364 166.37662255912986 6.017292278438995 0 0 -2
3975 1 128.11725737084052 96.79718287393693 1.575294787460125 0 0 1
3312 1 130.45184270143875 145.9782015557729 17.852127251663106 0 0 1
4155 1 129.8276130875357 98.73972358415821 3.41319787072412 0 0 -1
1371 1 110.52640041659423 98.10000462114458 0.7823102257876988 0 0 3
234 1 113.97428072124416 95.67897128358092 2.4521331106389876 0 0 0
670 1 112.98640771917333 99.26923200121733 0.65125279479361 0 0 0
1707 1 117.99030023027291 97.3768584494991 3.8538056348789564 0 0 -1
767 1 115.12133429381942 98.15095959615755 2.194789177216356 0 0 2
1350 1 120.5749064191422 96.40073345887131 2.2239117519266456 0 0 0
173 1 122.58598183255532 98.06728385678896 2.4491110837570016 0 0 -1
2738 1 116.25062582702625 173.24839471622593 5.217139001620293 0 0 1
1495 1 103.81255985222951 103.57359812549203 3.240776343411014 0 0 -2
3560 1 108.90035811547708 100.06387991248918 1.9294199461177153 0 0 -2
280 1 106.78045017010368 100.65389330639233 19.043694573263558 0 0 -3
1546 1 110.2606841063814 102.37426011443475 2.5630574598402505 0 0 0
385 1 112.83442411504986 101.42051785959741 2.0778963014829706 0 0 -2
2283 1 118.9080034842931 100.06946260754164 4.13725974191487 0 0 2
2122 1 121.54840331684274 100.34758895479614 3.20323869755637 0 0 0
2246 1 124.2873287920046 104.56845982908565 3.6492835141712163 0 0 2
774 1 127.852481794766 101.84995281658627 19.29113777856574 0 0 -1
3583 1 127.73264977980931 100.42753435723189 3.4865740928787696 0 0 0
688 1 126.43303608149392 103.9742476856477 1.8006862694442962 0 0 -1
3819 1 101.0354508156752 106.82181027374307 1.436993015923401 0 0 -2
1852 1 102.05514846822791 104.0217597848225 1.18778398148803 0 0 -1
1647 1 105.07220880094901 106.20257197951764 2.606814201058834 0 0 1
1868 1 109.5336848035198 106.48729676172842 2.6949261212065987 0 0 -1
884 1 107.74056978368577 103.2846645559799 18.421338117104376 0 0 -2
1608 1 109.91455885814229 104.40224241713784 0.8214777841884037 0 0 0
249 1 115.30031699856636 104.31618146429622 4.893480851693239 0 0 -1
1259 1 119.66894090241317 105.92453142859381 5.29225744603148 0 0 -2
68 1 119.2165896644346 103.12589290935647 3.327705064765946 0 0 1
2182 1 121.62343594161766 104.53780270740299 2.5803425542382645 0 0 0
1187 1 123.73580317446617 107.21584031575428 2.42220231889209 0 0 1
1322 1 131.25849770210934 104.1833604432239 4.034294282926847 0 0 -1
116 1 132.1869373869576 158.7724065415563 16.10545691515543 0 0 2
1299 1 99.82413529600763 110.46585185511488 5.312832332643917 0 0 1
668 1 98.84128130984857 109.48494273745106 2.5705000395394406 0 0 -1
1349 1 103.4500188074974 107.8699627136557 1.0200306393336362 0 0 2
789 1 107.26142482893682 107.66362918512517 2.9656690200716342 0 0 -2
3030 1 110.9004361780495 110.86656007924631 1.992450213610737 0 0 2
1841 1 110.58987130083119 108.50926209438084 0.699072205235737 0 0 0
1449 1 114.56386779861016 110.5897960989316 4.801316137939523 0 0 -1
899 1 114.67183500270752 106.91519362959566 1.4494903299971083 0 0 0
462 1 115.62869661768579 110.50219653797811 0.7913646458674872 0 0 -1
2610 1 119.2778752227501 107.17144079499629 19.06328573763345 0 0 1
383 1 120.97194311089542 107.61867817573193 2.7392665450023768 0 0 1
1800 1 125.42300860856324 108.4758766427862 4.521842102324979 0 0 0
857 1 131.7621083977294 108.44476403438571 1.7538907216124489 0 0 0
398 1 128.9003262733814 105.42804710550425 3.0854863406004562 0 0 0
3883 1 117.04442992013831 172.532207585608 12.906390227444941 0 0 0
506 1 95.0370999388672 113.97183350983954 3.0306786972600888 0 0 -1
942 1 97.34693197035752 110.16510908921997 18.348932606861553 0 0 0
1234 1 94.09312435246257 113.47422963615466 19.06194158168106 0 0 -1
2529 1 100.74854735451542 112.86984363129814 4.132033808564821 0 0 0
4149 1 103.76141544640149 110.32048979039224 2.9060605828036223 0 0 -1
1216 1 102.59489941763923 112.74880493479951 1.8514585984336316 0 0 0
720 1 106.37510044044193 111.26345519686161 0.7822985132614942 0 0 -1
223 1 109.33525971040135 112.55817957900102 19.171807105944115 0 0 -1
260 1 111.54811803889112 114.37438419914166 18.975312291894006 0 0 0
369 1 113.36203647153121 111.91107482919541 1.9890775548752164 0 0 -1
1509 1 111.54866112880515 115.36559054269216 4.934802460890092 0 0 1
2827 1 117.25124789420984 108.32082041187527 2.1664253936022724 0 0 1
3504 1 117.9589551326216 111.78898430082624 1.123625772321939 0 0 0
91 1 121.23541446607639 110.67421506955232 3.2374350112423627 0 0 -1
318 1 120.74430467260616 109.02777151843405 5.94086226384762 0 0 0
1324 1 123.76268075950448 111.66746867335934 2.679560560732058 0 0 2
730 1 127.80558306714236 112.44308504109723 3.8862390725032943 0 0 0
639 1 129.24057740324292 114.1946949053073 2.785472701728568 0 0 0
128 1 131.12832720846586 112.2751627400469 1.9467635833310497 0 0 2
24 1 93.90998634013852 116.48658523323397 3.6189518785495727 0 0 -1
1368 1 96.38427801346246 117.61610791709383 2.7195409578701595 0 0 0
2687 1 97.54123101484504 114.22493376011282 1.715330436125055 0 0 0
709 1 103.00912494870396 118.31261027453796 4.693499745377376 0 0 -1
1297 1 104.51948863497478 115.10784979101489 1.5620429190773935 0 0 -1
2995 1 108.63038705398519 116.59392555041256 2.5550600855449974 0 0 -3
1265 1 107.03334060294918 114.53049223007409 19.117858711992103 0 0 -1
1099 1 111.52060295028014 116.25487754242806 2.357559332718657 0 0 0
905 1 114.05155784825214 113.77050563258587 17.76564349689371 0 0 -1
561 1 117.93260579876669 114.48848733928592 4.459631259887352 0 0 1
1879 1 121.73933174822685 114.83788710215134 1.8265144747720456 0 0 2
1292 1 126.39450319675328 115.14033135786026 5.008662036569025 0 0 0
252 1 130.3343634473259 116.86000190665271 3.7933028407099116 0 0 0
606 1 89.25984538539755 119.38865634940022 5.105787764989657 0 0 -2
690 1 91.81214352492718 118.54156915009214 5.188357661501837 0 0 1
1183 1 95.43984193087245 119.79207165224193 1.4435420771156027 0 0 -1
1191 1 92.40796223245906 115.89513770683978 1.1679454426387899 0 0 0
1833 1 97.81742925080998 116.39739507135926 0.8363354760723185 0 0 -1
301 1 97.5883110925503 119.71620298728745 4.847547665660953 0 0 0
1545 1 100.21626059043226 117.38872402791522 1.1498926195926924 0 0 -1
69 1 100.19966059645152 118.17217569753439 3.8073307390540774 0 0 1
1653 1 108.24643725336978 119.86626112893671 1.920797794371141 0 0 0
1142 1 106.30107909782613 120.92345249032961 18.833589243855513 0 0 -4
1314 1 110.57318902583475 119.0239708308762 18.63918894693653 0 0 -2
190 1 110.34625302810215 118.15299499523601 5.16766359922992 0 0 0
661 1 113.1481745435632 118.72600860510563 1.1345079434108771 0 0 -1
673 1 120.16883954931586 113.04080100714036 3.805522886818023 0 0 3
3470 1 118.90726597530718 116.97724198369491 4.148192696808293 0 0 2
1366 1 122.86903205907093 112.42385958317276 16.627940166849317 0 0 -2
2290 1 125.33074671978234 117.70745957747992 18.55632252510965 0 0 0
3310 1 130.08092426726947 118.35507129425712 19.279637284476895 0 0 0
1651 1 89.5664175638627 122.03526305796667 3.8340313204294807 0 0 0
246 1 96.42220124506744 121.66470204864244 3.249873923111281 0 0 0
1448 1 99.96164088794478 120.91796957040923 2.8167957576447047 0 0 0
1274 1 104.55711197663406 120.52961857292075 4.325448276842917 0 0 -2
1098 1 104.01339125709276 121.78363490411829 1.9293327547609775 0 0 -1
2450 1 110.11606701223207 121.79884950289905 2.036108613451125 0 0 0
721 1 108.88932202775031 124.07508054536312 1.2809338377887702 0 0 1
1956 1 112.27903047235166 123.75300505595001 19.203591927347286 0 0 0
666 1 118.18035596217317 118.41840761899836 1.876095062365021 0 0 1
1278 1 114.89574368679713 121.21802437446675 16.45801154827078 0 0 2
1520 1 120.95120041207383 122.30605004853983 15.256738897905498 0 0 -2
1970 1 120.3129430682525 125.88822605536288 2.0208050450304813 0 0 1
2805 1 124.82325955725739 115.21597546709734 1.3493714808195016 0 0 0
3097 1 126.91983945056674 118.56879477882624 5.904303261649407 0 0 1
490 1 128.5664857435415 118.95955660252228 3.1999892732109907 0 0 1
2319 1 129.3786106966511 121.7142239863865 1.833266637411136 0 0 1
1445 1 91.37445396957914 123.36096690675467 5.435022990016313 0 0 -1
1111 1 91.47119879153809 127.65359696498851 4.240768295741483 0 0 -2
3183 1 91.04056586756751 122.70717307921342 1.5802517218205834 0 0 -2
282 1 95.9356186370542 123.99972099291514 1.4855756144613403 0 0 -2
1382 1 97.73643231668076 125.88513147627013 1.6095602934720643 0 0 1
189 1 102.0787939573245 124.75408270434588 3.697758973286282 0 0 -2
2628 1 100.2191828296606 125.33995248551813 1.450656719445161 0 0 -2
718 1 104.3363705513414 124.3321202025226 2.769668383548897 0 0 1
1621 1 109.17434859005691 126.60855631514706 18.106104643978156 0 0 0
420 1 111.59977332680145 127.73443676936706 1.6558841737929055 0 0 2
3948 1 114.54834324417084 124.4028277808288 17.51021558838232 0 0 -2
669 1 120.90015348422301 128.55012464991728 1.4647398096173123 0 0 -1
522 1 122.45757317833 124.4266202995224 0.9683017215220479 0 0 2
454 1 127.0805141947391 123.07057789644682 1.9915066907071175 0 0 1
2688 1 129.60161778947773 126.55078277295603 1.6355623955114804 0 0 2
3431 1 132.1889341990535 123.36613865186733 2.1006773501675737 0 0 -2
99 1 128.86773421284428 91.4527997938425 12.127552655431433 0 0 -1
1558 1 91.50164342373954 129.89646001543784 2.280523912562476 0 0 2
1105 1 92.64229563230847 125.34624372900039 4.157883935414109 0 0 -3
118 1 93.83430546021816 128.54408272977858 5.518012288714614 0 0 1
514 1 95.42251518072986 130.16214850542872 3.889243222318394 0 0 -2
1486 1 96.8933382516971 127.61674546502061 3.6391680665143538 0 0 0
45 1 103.0520833921221 129.16424014577458 5.342838644891928 0 0 1
1154 1 101.03798249387526 129.05384447821464 3.4538789689237173 0 0 0
396 1 101.26574039749762 127.63802668173405 1.3405150865163107 0 0 2
941 1 106.69296468337596 129.3378348203802 1.7565456115016476 0 0 2
2050 1 108.33153939010904 127.33498599977099 2.3289232006807046 0 0 1
1304 1 108.12461853561429 133.24867043254156 19.343099073083163 0 0 1
3752 1 108.70838479872147 131.1064634116276 2.181923215189572 0 0 0
2064 1 115.19270885228491 127.74669516172233 2.9267491579798763 0 0 1
2988 1 117.97228352319553 128.67251094969478 1.9401018311187037 0 0 1
1411 1 121.38210699447424 129.99428858119592 3.9266382977317273 0 0 0
793 1 124.13701081237639 128.3665166296387 3.7101912362222746 0 0 -1
2567 1 123.9332518028197 129.63941798205565 1.3727360066553072 0 0 3
2840 1 127.35216683088603 125.5941685178765 2.7813227892587102 0 0 2
1535 1 127.84843385545287 129.31730077157036 2.132088463957114 0 0 2
2745 1 131.73872324359144 169.81753058073147 13.520505964819774 0 0 0
1117 1 88.85427219792089 132.12944122664317 1.4692061103557534 0 0 0
1531 1 94.15830367400756 130.43385534684288 1.5553127919280725 0 0 0
1060 1 100.72518034002698 131.53237478804644 1.9617058056739354 0 0 1
3493 1 103.66514378522668 131.67604732786236 1.4869921098149088 0 0 0
93 1 104.8824675374196 130.26157912664377 3.6915607764713565 0 0 2
2523 1 111.17581981627528 130.71724870556403 1.2379958530626387 0 0 -1
1262 1 113.9439593873348 130.23602414289783 2.8405011859609286 0 0 -1
442 1 117.60520004514314 132.08449916806197 17.87762189613024 0 0 -1
1865 1 117.22823964524679 130.4950694872289 3.8496869544710632 0 0 -1
2631 1 122.15613219005593 133.60257683180075 4.088882154460221 0 0 0
771 1 124.49821779160727 134.4847280036426 2.3195257069545128 0 0 0
1436 1 120.5654134603534 132.2051645320879 2.448026852548312 0 0 -1
212 1 125.10333868905639 129.7498837065434 6.017385631396345 0 0 1
983 1 130.70800871002595 129.8261397118688 2.375123724718433 0 0 2
1253 1 127.03374808064821 131.6002078745719 3.172133033233731 0 0 1
142 1 127.78739183882655 127.60532142353233 4.905999589384098 0 0 1
49 1 132.06158892056737 131.9728378235101 4.039328313417166 0 0 0
1598 1 89.76897534620774 135.48775973683524 2.443080472317781 0 0 0
966 1 88.28216185254738 134.56576483582734 18.830256742705686 0 0 -1
364 1 92.46373798312295 134.3560601487181 2.5586768942639617 0 0 0
208 1 94.5131877947251 133.19371053941654 19.32024129633986 0 0 0
1650 1 98.08896227697207 131.90536164202533 0.7879151219816046 0 0 1
1069 1 97.7060101924719 135.55302830453775 16.625645981964613 0 0 0
630 1 100.64798937130558 137.66423922441686 18.58624086093392 0 0 -1
4 1 96.49089699040074 132.85053171722538 2.9938409827418058 0 0 -1
1514 1 100.12603019720964 136.088897790401 3.850100158698212 0 0 0
1454 1 104.41959668347839 134.37602250972665 2.616832954106766 0 0 1
1503 1 106.53113193945448 134.5573190325793 4.124181414394964 0 0 1
1728 1 108.57635675570012 135.17438146848014 2.655994761838257 0 0 2
1405 1 112.20578036632284 133.39853583900853 1.8192017002541396 0 0 1
306 1 114.19013094391839 135.69675516853897 3.6269837370642044 0 0 0
528 1 117.45913905882969 135.10070734462124 1.4380507546097758 0 0 0
895 1 117.46611558709752 136.42200332978075 5.813583950046955 0 0 2
1141 1 118.087829632214 133.30022190664005 3.3259512263746247 0 0 0
585 1 125.73907847273622 135.31512275833927 4.658687792827016 0 0 2
565 1 129.26932472179902 133.03888123698093 2.5884716591127543 0 0 0
531 1 128.58378108458868 133.02967618733535 18.75473278828301 0 0 0
3195 1 131.64631139522498 170.9118734993253 18.75684438388052 0 0 -1
839 1 88.90712280907856 138.02556391228245 3.2296660888951507 0 0 2
191 1 94.76814897152532 137.22424471509953 19.326803200776634 0 0 0
3608 1 98.80565670486853 137.1112856969341 1.6246321986639651 0 0 0
1168 1 97.07385759397944 135.24450476288442 19.248901462273267 0 0 0
1743 1 98.08008689146278 140.26280795820048 1.2337004958730111 0 0 -2
512 1 102.45784102527726 139.4714162528536 19.259362818482625 0 0 -1
459 1 108.57556747304696 138.00440413685146 2.0431955480078026 0 0 0
1818 1 110.93971073555385 139.00946130739322 2.969033708265708 0 0 0
3945 1 113.56751671217471 139.80175106930974 19.159659124076303 0 0 0
582 1 117.5945873950156 138.17798481480335 4.022154022290204 0 0 1
432 1 121.75556411513766 136.45938834053834 4.709731872814637 0 0 1
1491 1 120.17712424089689 137.33620370888755 2.5574571326753643 0 0 -1
706 1 124.37085241529041 137.69795062705435 5.195461147628698 0 0 0
2675 1 128.45134123155634 135.1667565264303 4.615602521747274 0 0 -1
867 1 129.21596325207497 135.85126082724858 19.234676192734575 0 0 -2
3344 1 131.71298950469034 134.58309609124268 19.28528006460471 0 0 -1
361 1 91.53957237912202 141.06029942608197 0.940870113389749 0 0 -1
1866 1 90.93814756434018 137.85938431219307 0.8438803082547093 0 0 2
1634 1 92.4755870399114 138.91247732671295 16.448837621418498 0 0 0
214 1 95.4093837191784 140.9419209483048 1.7143790011218074 0 0 0
1536 1 98.67786056975612 143.11864990454544 6.982422208091229 0 0 1
1339 1 96.9294190374137 144.82426500030274 8.126884389120697 0 0 1
26 1 99.57239959326859 141.90696541504917 3.372032226865219 0 0 1
594 1 99.10498545596818 144.16120145144754 1.6153458058846222 0 0 1
1606 1 106.10640231653358 139.00282910354844 2.2999754718483363 0 0 -1
3726 1 109.48355100402219 144.50424714434567 4.540004201423438 0 0 1
1395 1 110.26366495307158 142.64298626294158 2.46352313304209 0 0 1
1919 1 113.26279419270391 140.97971770822892 2.9011531237292805 0 0 0
1597 1 112.86865482908219 143.91103724720875 2.1658938279555704 0 0 1
1200 1 116.77180549907341 140.79951488568713 6.038149739310547 0 0 1
813 1 118.90269556298783 140.6033870940722 8.406666601257447 0 0 1
1635 1 119.82290789946003 140.1247493926479 4.029329758801415 0 0 0
3319 1 122.75426530414632 139.61249847041086 3.2487848036434603 0 0 2
1437 1 125.72886129483815 140.11615280856338 3.826711137848347 0 0 1
2166 1 126.448326017343 136.94836171553908 7.447917236518346 0 0 -1
1034 1 128.4326378604704 173.2271530199399 1.3411990087561567 0 0 -1
1498 1 132.02248075254488 141.58670532953755 7.154419748957688 0 0 0
1850 1 128.7896773541808 140.2655980145521 6.937315053607474 0 0 0
377 1 93.6427628826893 143.2812182112143 19.017580712379083 0 0 0
569 1 89.31918107406125 142.60585475610543 1.599072305531281 0 0 -1
1402 1 95.93548987663758 143.27070673612897 3.1336693179797988 0 0 -1
801 1 96.54418331827438 145.1004504159621 1.011015003127994 0 0 -1
1871 1 96.00092702493242 147.31088380778937 2.8403639423982816 0 0 -1
711 1 96.51941165447153 144.5901041256712 16.77117114615409 0 0 -3
232 1 101.76863063161983 141.67132677180635 1.62848638131556 0 0 1
2794 1 108.97295629128901 142.98723994342822 18.343358199745104 0 0 0
1663 1 110.94695914112896 143.7271304442479 16.48405297475845 0 0 0
802 1 109.54109473996533 146.59923547195697 3.1545389639638004 0 0 1
3808 1 120.13560583665691 142.7701581690299 5.015753418742889 0 0 -1
1241 1 122.80851510137838 142.94138661691522 4.128331832243099 0 0 1
1905 1 124.89909606830308 141.92935564382725 5.889349037378073 0 0 -1
3546 1 126.61792234608912 143.73991785433222 5.952431064698555 0 0 2
692 1 129.453617697632 138.58190698867804 2.582864931263647 0 0 -1
3115 1 128.7684391688366 140.72503955327207 4.222049067573588 0 0 0
2974 1 132.3020283701887 144.32599378483914 6.371725519995664 0 0 1
1204 1 90.73601066131648 146.44726575080648 2.7605901825405548 0 0 -2
1750 1 92.92318810590432 147.3952349627037 3.808990294823365 0 0 0
1386 1 94.14771270269827 150.89412648721728 17.15728354179487 0 0 -1
1915 1 99.56387641027439 148.34087719841733 1.0683377168816872 0 0 -1
4154 1 100.74749447535056 146.07124773632717 0.8288155976745724 0 0 1
1538 1 105.20228465157489 147.24115247209076 0.8762577774117535 0 0 0
455 1 105.28110396564324 150.20814731866508 1.8691919756178075 0 0 0
788 1 113.72106619571198 145.76880448047564 4.280537259758932 0 0 0
1564 1 109.28342132526936 150.53483217520636 2.536524271427908 0 0 -3
105 1 116.24292399665605 145.02040340806522 6.183588020234403 0 0 -1
1378 1 118.35962941863136 147.03046167859915 2.4804700515102187 0 0 0
935 1 123.04918687959443 145.94953158128865 3.9848078211723332 0 0 -1
55 1 118.80663700296432 149.00541268713434 6.152669421531654 0 0 0
379 1 131.30864256794413 147.49419784384872 4.4958741892870915 0 0 -1
1555 1 130.0428414602505 145.69342729370862 5.646035670438817 0 0 2
1544 1 91.19656387401564 149.70908723063198 18.804151612774277 0 0 -2
1717 1 98.94647078686204 150.28237469503938 17.079974290276837 0 0 2
1186 1 101.18025468930253 150.48073171419242 1.2805482077862487 0 0 -2
1471 1 102.89325113652019 147.939837944079 4.102225075731872 0 0 1
216 1 107.08007825024488 153.24654493696264 5.122955313896058 0 0 -1
237 1 110.02006423233524 150.8775205439623 5.392790097543099 0 0 -1
940 1 114.15398972428781 151.96082839109513 4.5304612451294615 0 0 2
1256 1 116.96551116777762 147.6078933094311 4.955800157842714 0 0 2
71 1 120.60028467440036 151.2447398080633 4.15185465312916 0 0 0
808 1 125.33766977395352 148.27940896587816 6.048456031936115 0 0 1
859 1 128.7915597391266 146.5249767280492 7.956739721021461 0 0 -1
906 1 128.19610386330683 150.98297299688485 3.935838020719978 0 0 -1
3483 1 132.4612356730881 152.28775563952297 3.2082494107772024 0 0 1
2061 1 132.090980370941 120.19056968121025 17.04571814602544 0 0 2
1358 1 95.08256905045339 154.14030993947455 2.351796117131985 0 0 1
401 1 97.5921889152944 153.35693082780446 1.0293468101348544 0 0 0
1578 1 94.56763187248696 153.93688985591305 5.22371350800051 0 0 -1
632 1 99.53725761555852 152.17102149531334 2.6075435910838007 0 0 -1
150 1 100.42827244306446 148.43783210962928 5.588022921772291 0 0 0
404 1 99.23824109409912 154.90713696505426 5.690623590416524 0 0 0
376 1 103.85998058578214 155.01676540454838 2.3944893705168844 0 0 0
1338 1 105.21709964721019 152.8635426711677 2.9938364669802078 0 0 1
496 1 109.19241222441745 152.94790793562854 7.81421694349939 0 0 0
1912 1 111.90523680030108 152.9651320666711 5.962962352884204 0 0 -1
507 1 114.74119372878313 155.72188602358474 1.5285809245424669 0 0 2
2835 1 117.62332149539178 156.18008649926995 0.9779134131442392 0 0 -2
4022 1 117.07267383053282 152.83767725091124 5.656842623702741 0 0 0
1846 1 118.92140291171017 153.40986762498832 3.609467990501013 0 0 1
314 1 123.39289656043958 151.43443042908146 4.553117585090001 0 0 -2
1079 1 124.11035415571345 153.2493918428481 6.147018908732696 0 0 0
4019 1 126.69086295547929 153.72454611731442 3.1859072427071666 0 0 1
1799 1 129.356090967624 92.89732314813452 4.057638399286183 0 0 0
1094 1 97.52125758843138 157.01444361404035 6.592833121027824 0 0 0
710 1 99.46028865461422 156.88029526906803 3.0629846665643536 0 0 1
1199 1 101.55984188256541 157.61224658241468 5.246205749341178 0 0 0
86 1 105.34379396443832 157.13757070420166 2.4823696529900494 0 0 -3
1604 1 107.5733782295903 157.75612619933298 4.384585488866134 0 0 0
2413 1 106.82341983078682 155.70557566011053 5.875124672297305 0 0 0
22 1 111.17536693815326 154.7221619575532 4.170385225698962 0 0 1
727 1 112.13990367612658 154.3279943888012 1.4679918846549473 0 0 0
3075 1 118.14509135316686 156.6520135461206 16.790081125911858 0 0 -1
2759 1 118.0047392946993 158.34700962661185 14.462033946083508 0 0 1
3961 1 123.04219905946356 155.73792482228203 2.5962440998190295 0 0 0
1688 1 121.71850450772715 157.62778834430281 1.2800753165404515 0 0 0
1237 1 124.86576287440317 155.17032255399008 4.542563760236043 0 0 1
2485 1 128.02365305547556 154.86536900934777 6.54331893314952 0 0 0
2054 1 130.10698209044955 153.33503367729176 3.906004299062823 0 0 1
2124 1 131.4261974043036 156.07822430284907 1.9256063047608896 0 0 1
355 1 100.51862965524235 159.79339969388772 2.342088036554578 0 0 1
1156 1 103.92065311296196 158.7652208875458 4.357867918972557 0 0 0
1032 1 110.33575032143278 159.52212340702212 18.846811626995404 0 0 1
1949 1 111.57939403971349 158.8024408781114 2.792461448499367 0 0 0
1283 1 112.55971873504211 160.98099077942302 18.13998317459328 0 0 -1
1549 1 114.32022777828038 158.2443130471879 1.9717284944004123 0 0 1
1100 1 115.95922320043093 159.00748694172643 4.111702919363798 0 0 0
1862 1 119.44071511652398 157.38123466338388 2.3605948519747137 0 0 0
156 1 117.94504591036103 159.92784861714648 2.4582961656588345 0 0 -1
560 1 126.74738276192028 157.14921079223063 5.619381084764861 0 0 1
3997 1 123.2933954466592 160.08970204166775 5.710784608006853 0 0 0
2309 1 130.55733093095074 159.43356158242298 6.241331364627878 0 0 0
1064 1 101.25103503735268 159.90718877463877 18.552443401550065 0 0 -1
1592 1 104.05475520559166 162.00893527906737 1.995049666966283 0 0 -2
1794 1 105.56748788522428 164.0347893022274 19.08808736696445 0 0 -1
1135 1 106.12554226064081 160.5609332274504 3.4652067895668357 0 0 0
1305 1 107.61424234901256 162.17356053034257 17.935402367825734 0 0 0
671 1 110.16248796340506 163.43000705046882 2.493661189200651 0 0 1
901 1 112.96805879858809 163.35613995136785 1.1325723545406763 0 0 -1
1733 1 115.07456103958896 162.98351639720224 2.8357930764020396 0 0 1
416 1 117.96843275560883 163.60613016615696 1.5927827058972155 0 0 1
2492 1 123.16154055629546 163.43378801250418 6.060263909185847 0 0 0
3046 1 122.00424512511287 160.5899544436644 1.700880448324808 0 0 1
3559 1 124.47043383047277 160.35607499455043 2.9574829865452865 0 0 1
984 1 131.72311581300437 115.46669852744502 10.596851514601573 0 0 -1
2838 1 128.359791248102 163.46538008355492 4.534618091008296 0 0 -2
2831 1 106.21977547115588 163.64657871007296 4.544797138253766 0 0 -1
1485 1 106.839476271191 166.50190836909022 1.6546803009458266 0 0 0
3418 1 109.00555233796346 164.64076548546007 17.714428631246914 0 0 -3
4190 1 114.42267173632338 165.21723517705507 18.330468157783216 0 0 1
431 1 112.7528051631339 166.40024909395424 2.472488546679448 0 0 -3
552 1 111.79263512791299 167.43384078794577 18.3007653210832 0 0 -1
76 1 117.26723500693772 166.09361831621698 0.6572004764911896 0 0 -1
1845 1 118.31624445935037 164.08395988426088 5.26819220347109 0 0 1
851 1 125.24849650582138 165.52522549836627 2.4833598530951972 0 0 -1
1939 1 126.00921179893653 161.21490635052132 5.830145633998342 0 0 1
1188 1 128.71974044823958 165.8847885940561 0.7495179922038373 0 0 0
2272 1 127.83955846243899 165.71680607041526 3.4231402510050444 0 0 0
1826 1 123.64449201426443 172.26337098857545 1.0210417739528246 0 0 1
4007 1 109.63658885395316 169.28876993416972 0.9073897993934791 0 0 0
559 1 110.47353417158149 169.3071112247941 3.6999957206027427 0 0 -1
2967 1 106.86400408744016 169.15928802374142 0.9477843150691281 0 0 0
1035 1 111.44615579541225 171.26438067158793 1.173468131746169 0 0 -1
155 1 117.86255423028922 166.84305468656797 5.634325611568229 0 0 -1
347 1 119.39594855504772 167.61593783046095 1.7864128465373126 0 0 0
896 1 115.75930039420939 166.99415211308704 3.0431086966532472 0 0 0
1596 1 117.87884346202435 168.86161528361572 3.75790387000731 0 0 -1
3973 1 121.19535777868036 166.463495411443 18.717865902650747 0 0 1
840 1 123.28329459620625 167.37386237649113 3.8103617873862357 0 0 0
3099 1 128.4600550276538 104.58348908235449 6.095326505584398 0 0 -3
3751 1 129.91558949715224 168.39815845559053 1.71707123161585 0 0 1
3741 1 111.79495328311084 172.4420156085153 3.482920133413792 0 0 0
2047 1 113.06330557009669 168.6159298384485 4.134416704354374 0 0 2
439 1 113.69777135435291 169.95807330354754 1.767204553638966 0 0 0
2911 1 131.70354888620545 125.42323672044826 18.917493182153223 0 0 2
1638 1 119.70674412853374 170.27847231477287 18.958571636696487 0 0 -1
316 1 121.93785928486369 170.6713155237868 7.1873336468530455 0 0 -1
1257 1 132.62698894937958 111.9849308773376 14.54854768433268 0 0 1
469 1 125.42127412014536 170.5546967697226 19.03048508791381 0 0 1
3954 1 127.90322838647432 170.6636992211041 1.9699435958145592 0 0 1
2510 1 128.18344243343265 171.60368181871826 4.546016709002432 0 0 -2
2876 1 132.6168027940588 115.27556676015404 18.529598519751296 0 0 -1
2902 1 130.42575831959684 120.53652836160778 4.934040761673152 0 0 2
449 1 122.41126386588141 91.7884010178095 7.536768087484691 0 0 -1
130 1 132.1337410729159 150.86225524199597 16.557915029617757 0 0 2
1384 1 131.58464547282028 91.41111227188182 18.916384475859132 0 0 1
4068 1 130.91054217284224 154.20054754813216 6.252787421125612 0 0 -1
2213 1 113.4880616604016 95.97450977889774 18.48471135989697 0 0 -1
1940 1 115.7136886776498 95.36170059453609 4.7853140962062355 0 0 3
3244 1 117.88030890938794 98.01841742052423 8.263150399193705 0 0 1
418 1 117.17691421107459 93.79715812101453 6.372328611773877 0 0 2
736 1 120.15261181851854 96.74085355162258 5.218888630800542 0 0 -2
1444 1 132.51287069207396 134.8089187715133 3.1885682716480552 0 0 1
426 1 126.43625088069277 95.55419775693541 5.571705584230384 0 0 0
2879 1 128.40228851822448 94.327760086066 9.101223570522981 0 0 0
1774 1 129.86717762800825 96.47240953335336 5.361714170775359 0 0 1
2168 1 130.8039718127454 148.04127360174746 9.59819533601794 0 0 0
1390 1 111.22037961154395 96.38433544208087 3.0477222360765577 0 0 -1
1184 1 111.66938909891022 97.79049597669399 5.358003007913272 0 0 0
1893 1 116.09490010118272 98.26491145760073 5.611824706972981 0 0 1
812 1 116.39231047430299 100.98220452385614 7.123441594669395 0 0 0
832 1 121.35682569850609 98.45509178038209 7.247241753150088 0 0 -1
3887 1 124.45647067556554 97.21249222344699 4.562333204233874 0 0 1
1129 1 125.52564188479663 99.25946364936908 7.8111713284243365 0 0 -1
3146 1 123.36203701680171 100.55357354485726 7.473225797982366 0 0 0
930 1 126.98969280935641 96.51997994288618 8.085768693770595 0 0 -1
1783 1 125.5488685279036 99.85995031463472 4.80146582103796 0 0 0
1394 1 122.47378536613714 164.07261821896444 19.250308588730206 0 0 0
1300 1 105.31514088285927 101.24664390455058 2.8067012414532755 0 0 0
15 1 106.59650541103728 100.9814434466868 6.535255151428603 0 0 -1
768 1 103.37130677041547 103.9067854868678 7.9531103687982805 0 0 -2
124 1 106.9545020692191 99.19930271970647 4.243993950940376 0 0 0
2986 1 110.40799662979234 103.14594456125536 5.150275692224494 0 0 2
1764 1 113.48490427387696 99.36550785905897 4.654560094779404 0 0 2
1685 1 113.44018256577047 100.82998863418835 7.090253160826135 0 0 0
3719 1 123.25374722220737 102.06965455893106 4.928701022968464 0 0 -1
2479 1 119.6818091387624 100.85466482158834 6.826241377720736 0 0 0
1407 1 123.44479545868191 104.80848925605218 10.737126204220633 0 0 -1
1337 1 131.84474223230063 163.4924828267635 14.649106539287475 0 0 -1
1873 1 100.24235145582514 105.80279310752157 6.096108839983368 0 0 -2
1880 1 99.65075262554575 108.04736336217246 8.216464528285176 0 0 0
1566 1 102.40744819814425 104.72968306707662 5.51949517643384 0 0 0
1935 1 104.37313369440275 106.71831926212303 5.3508618325062605 0 0 0
679 1 107.52298516308934 103.43298195642866 9.342155811453118 0 0 -3
658 1 106.1702614594491 103.38531491276957 5.327149008978312 0 0 1
1590 1 108.39206711820455 105.03592014471492 4.989567689635325 0 0 0
3124 1 113.12805567459662 103.34991725871016 6.107158338173295 0 0 1
2521 1 117.45518856308718 103.42705355229333 5.942361115678405 0 0 2