

# divide "droplet" into core and surface
region		core_reg cylinder z 135 135 35 20 INF units box
region		surface_reg cylinder z 135 135 35 20 INF units box side out
group		core dynamic all region core_reg
dynamic group core defined
group		surface dynamic all region surface_reg
dynamic group surface defined

# compute pressure core
compute        peratom_core core stress/atom NULL
compute        p_core core reduce sum c_peratom_core[1] c_peratom_core[2] c_peratom_core[3]
variable       press_core equal -(c_p_core[1]+c_p_core[2]+c_p_core[3])/(3*76969.02)


# compute pressure surface
compute        peratom_surf surface stress/atom NULL
compute        p_surf surface reduce sum c_peratom_surf[1] c_peratom_surf[2] c_peratom_surf[3]
variable       press_surf equal -(c_p_surf[1]+c_p_surf[2]+c_p_surf[3])/(3*50030.98)

# compute total pressure of drop
compute        peratom drop stress/atom NULL
compute        p drop reduce sum c_peratom[1] c_peratom[2] c_peratom[3]
variable       press equal -(c_p[1]+c_p[2]+c_p[3])/(3*127000)


# compute order parameter
compute             3 all orientorder/atom nnn NULL cutoff 3.5

# Run 1.0ns simulation
thermo_style        custom step temp press vol etotal ke pe v_press v_press_core v_press_surf
thermo              200
dump		        1 all custom 400 prod.${NAME}.dump id type x y z vx vy vz c_3[*] c_2[*]
dump		        1 all custom 400 prod.10A_capillary_pres.dump id type x y z vx vy vz c_3[*] c_2[*]
run                 100000
Neighbor list info ...
  update every 1 steps, delay 0 steps, check yes
  max neighbors/atom: 2000, page size: 100000
  master list distance cutoff = 7.76
  ghost atom cutoff = 7.76
  binsize = 3.88, bins = 69 69 8
  2 neighbor lists, perpetual/occasional/extra = 1 1 0
  (1) pair sw, perpetual
      attributes: full, newton on
      pair build: full/bin/atomonly
      stencil: full/bin/3d
      bin: standard
  (2) compute orientorder/atom, occasional, copy from (1)
      attributes: full, newton on
      pair build: copy
      stencil: none
      bin: none
Per MPI rank memory allocation (min/avg/max) = 17.17 | 21.53 | 24.87 Mbytes
Step Temp Press Volume TotEng KinEng PotEng v_press v_press_core v_press_surf 
       0    10.458267    -37.67711    2070077.4   -39186.092    2639.9794   -41826.072   -223.22199    31.032785   -1606.6664 
     200     10.51196   -52.072948    2070077.4   -39352.501     2653.533   -42006.034   -456.56508   -304.67075   -1685.8519 
     400    10.619391   -60.177416    2070077.4   -39226.566    2680.6518   -41907.218   -582.61838   -101.77735   -2333.3184 
     600    10.802074   -40.190981    2070077.4   -39067.966    2726.7665   -41794.732   -256.09473      63.7832   -1761.0643 
     800    10.915039     -35.7987    2070077.4    -39011.12    2755.2822   -41766.403   -189.35383   -141.36384   -1263.7259 
    1000    10.712344   -38.331357    2070077.4   -39109.628     2704.116   -41813.744   -226.95795     -14.5783   -1563.5672 
    1200    10.630668   -43.743412    2070077.4   -39177.495    2683.4985   -41860.993   -314.76347    13.841945   -1831.2184 
    1400    10.700015   -31.388223    2070077.4   -39247.618    2701.0038   -41948.622   -125.52914   -15.343951   -1275.1108 
    1600    10.555042   -43.170765    2070077.4   -39141.047    2664.4083   -41805.455   -317.75061    13.013042   -1806.2494 
    1800    10.694032   -46.633507    2070077.4   -39182.942    2699.4933   -41882.436    -373.0988   -202.64029   -1617.7565 
    2000    10.646073   -57.384432    2070077.4   -39105.875     2687.387   -41793.262   -541.58046   -19.000802   -2345.1018 
    2200    10.652885   -33.369951    2070077.4   -39165.247    2689.1068   -41854.353   -151.90436   -10.458195    -1364.623 
    2400    10.729556   -47.571123    2070077.4   -39101.796    2708.4608   -41810.257   -374.33268    -306.4002   -1496.9242 
    2600    10.517768   -57.972584    2070077.4   -39247.639    2654.9992   -41902.638   -560.16204   -338.50432   -1877.9043 
    2800    10.517449   -42.272191    2070077.4   -39092.332    2654.9187    -41747.25      -286.77   -15.174665   -1725.7053 
    3000    10.636497   -35.792574    2070077.4   -39209.038    2684.9697   -41894.007   -205.46137    117.17248   -1661.2117 
    3200    10.621093   -68.822269    2070077.4   -39160.444    2681.0814   -41841.526    -731.6112   -567.46367   -1974.5826 
    3400    10.748842    -35.74422    2070077.4   -39136.165    2713.3292   -41849.494    -197.2971   -82.865881   -1351.4665 
    3600    10.727956   -38.727402    2070077.4   -39186.288    2708.0568   -41894.345   -249.37948    52.970727   -1683.8732 
    3800    10.492126   -31.536251    2070077.4   -39148.042    2648.5263   -41796.568   -100.86683   -38.933038   -1244.9455 
    4000    10.880053   -61.534361    2070077.4   -39114.371    2746.4508   -41860.821   -599.62512   -199.29994   -2239.4318 
    4200    10.772532   -44.609162    2070077.4   -39070.129    2719.3091   -41789.438    -321.0213    9.7029211    -1860.672 
    4400    10.796221   -49.284235    2070077.4   -39107.327    2725.2891   -41832.616   -398.00469    -252.2095   -1651.1742 
    4600    10.680173   -36.018286    2070077.4   -39072.776     2695.995   -41768.771   -220.07221   -5.0639655   -1482.4989 
    4800     10.40925   -61.360167    2070077.4   -39214.824    2627.6058    -41842.43   -611.73831   -347.87499   -2003.6525 
    5000    10.603625   -46.456125    2070077.4     -39126.9     2676.672   -41803.572   -373.63007   -227.09309   -1572.7983 
    5200    10.520111   -43.916364    2070077.4   -39144.647    2655.5906   -41800.238   -337.86651   -414.75493   -1179.0093 
    5400    10.678092   -38.723522    2070077.4   -39184.461    2695.4698    -41879.93   -243.60104     4.417124   -1609.0165 
    5600    10.434276   -34.137589    2070077.4   -39177.623    2633.9232   -41811.546   -182.23154   -29.731475   -1366.7342 
    5800     10.67377   -40.088923    2070077.4   -39124.611    2694.3787   -41818.989   -248.64621   -295.60324   -1203.9516 
    6000      10.7836   -55.416359    2070077.4   -39136.759     2722.103   -41858.862   -508.83801   -174.12601   -2025.0222 
    6200    10.642414   -50.161256    2070077.4    -39143.74    2686.4635   -41830.203   -428.75277   -160.35821   -1828.7682 
    6400    10.613376   -46.711214    2070077.4   -39185.784    2679.1335   -41864.917   -359.76212    10.185513   -1948.3887 
    6600    10.677208   -60.609883    2070077.4   -39200.235    2695.2466   -41895.481   -597.70853   -462.09186   -1796.8945 
    6800    10.818906   -41.395981    2070077.4   -39193.631    2731.0153   -41924.647   -290.20354   -130.20725   -1512.4821 
    7000    10.637941    -60.79447    2070077.4   -39183.811    2685.3343   -41869.146   -612.90348   -144.94718   -2292.4359 
    7200    10.409409   -47.598855    2070077.4   -39322.406    2627.6461   -41950.052   -392.51602   -200.76113   -1660.5896 
    7400    10.774324   -30.541128    2070077.4    -39279.49    2719.7615   -41999.251   -111.28727    52.873251   -1345.0087 
    7600    10.993793   -61.416485    2070077.4   -39231.256    2775.1622   -42006.418    -611.9412   -497.06628   -1776.4628 
    7800    10.736808   -30.540428    2070077.4   -39148.957    2710.2914   -41859.249   -102.83999    140.74817   -1480.1688 
    8000    10.808377   -45.253127    2070077.4     -39184.9    2728.3575   -41913.258   -342.18208   -83.885503   -1743.3377 
    8200    10.619716   -50.601121    2070077.4    -39234.36    2680.7339   -41915.094   -442.36294   -14.688035    -2071.071 
    8400    10.626875   -26.178175    2070077.4   -39226.319    2682.5409    -41908.86   -30.490496   -124.31733   -891.89268 
    8600    10.467603   -32.812445    2070077.4    -39249.23    2642.3361   -41891.566   -144.91827    42.593408   -1423.1717 
    8800    10.923505   -47.866499    2070077.4   -39107.896    2757.4192   -41865.315   -394.98442   -157.73064   -1737.8629 
    9000    10.710506    -62.43379    2070077.4   -39290.331    2703.6519   -41993.983   -634.43053   -107.84041   -2417.3504 
    9200    10.606163   -38.710345    2070077.4   -39268.527    2677.3126   -41945.839   -241.02523   -79.541262   -1479.3074 
    9400    10.693186    -58.57307    2070077.4   -39260.541    2699.2798   -41959.821   -569.20154   -64.671358    -2324.022 
    9600    10.778646   -57.477907    2070077.4   -39178.706    2720.8525   -41899.558   -556.14717   -273.51423    -1957.419 
    9800    10.599725   -47.014254    2070077.4   -39257.694    2675.6875   -41933.382   -385.72439     89.87844    -2083.529 
   10000    10.492456   -61.297017    2070077.4   -39166.383    2648.6097   -41814.992   -624.22079    -149.5844   -2306.0953 
   10200    10.618871   -45.438322    2070077.4   -39093.431    2680.5206   -41773.952   -356.61336    135.81945   -2089.0003 
   10400    10.610182   -75.907218    2070077.4   -39182.739    2678.3271   -41861.066   -849.42273   -250.51671   -2755.3286 
   10600    10.714988   -12.486267    2070077.4   -39174.654    2704.7834   -41879.438    190.16465     142.4861   -735.83517 
   10800    10.845787   -61.427445    2070077.4   -39023.001    2737.8009   -41760.802   -604.54022    -94.42634   -2396.3485 
   11000    10.842225   -44.781784    2070077.4   -39188.696    2736.9018   -41925.598   -348.57009   -52.390612    -1772.288 
   11200    10.773728   -43.910131    2070077.4   -39195.428    2719.6112   -41915.039   -311.81675   -104.26892   -1656.4116 
   11400    10.756434   -58.114574    2070077.4   -39192.493    2715.2455   -41907.739   -557.31092   -192.18779   -2108.8766 
   11600    10.542259   -37.999314    2070077.4   -39175.164    2661.1813   -41836.345   -223.41366    161.85989   -1821.2659 
   11800    10.469078   -42.417509    2070077.4    -39295.77    2642.7083   -41938.479   -298.38482    29.149199    -1799.907 
   12000    10.725719   -39.793652    2070077.4   -39228.634    2707.4921   -41936.126   -279.52663   -19.312479   -1616.7878 
   12200    10.490631   -48.650303    2070077.4   -39292.334     2648.149   -41940.483   -380.16811   -69.661429   -1905.7816 
   12400    10.802113   -22.605766    2070077.4   -39322.098    2726.7763   -42048.874     15.00719    257.20066   -1331.0187 
   12600    10.413806   -44.960672    2070077.4    -39355.09    2628.7561   -41983.846   -333.74678   -212.47316   -1533.4143 
   12800    10.537285   -31.718962    2070077.4    -39476.84    2659.9258   -42136.766   -117.45606     192.8185   -1609.0382 
   13000    10.665253   -50.135176    2070077.4    -39307.05    2692.2287   -41999.279   -434.59477   -169.73124   -1813.2695 
   13200    10.750735   -48.984658    2070077.4   -39249.744    2713.8068   -41963.551    -403.8564   -104.33688   -1866.2702 
   13400    10.523463   -47.864004    2070077.4   -39240.674    2656.4367    -41897.11   -384.41362   -265.41715   -1572.0918 
   13600    10.690333   -28.643529    2070077.4   -39231.305    2698.5598   -41929.864   -78.772685    195.04062   -1485.2079 
   13800    10.728123   -39.461296    2070077.4   -39243.013    2708.0991   -41951.112   -252.53074   -172.01437   -1368.1155 
   14000    10.551144   -48.000632    2070077.4   -39267.983    2663.4242   -41931.408   -394.71927   -185.31708   -1700.9731 
   14200    10.465001   -41.882262    2070077.4   -39363.009    2641.6792   -42004.688   -275.69879   -154.29487   -1495.5453 
   14400    10.860233   -39.397182    2070077.4   -39188.924    2741.4475   -41930.372   -257.39295    56.449941   -1716.9384 
   14600    10.710292   -67.408192    2070077.4    -39208.81     2703.598   -41912.408   -696.14199   -206.10584   -2471.9966 
   14800     10.73707   -29.984282    2070077.4   -39246.485    2710.3576   -41956.842   -92.471746   -12.435801   -1221.4954 
   15000    10.661471   -47.784002    2070077.4   -39297.151    2691.2742   -41988.425   -356.11967   -152.47367    -1742.537 
   15200    10.848775   -35.232484    2070077.4   -39274.907    2738.5551   -42013.462   -165.64929    12.693546   -1477.3042 
   15400    10.304701    -52.59993    2070077.4   -39355.791    2601.2146   -41957.006   -463.70902   -230.06712   -1822.4285 
   15600    10.309404   -50.240014    2070077.4   -39277.043    2602.4019   -41879.445   -417.59344   -193.32829   -1781.3049 
   15800    10.452378   -35.400295    2070077.4    -39234.12    2638.4927   -41872.613   -183.27599   -28.120629   -1421.4579 
   16000    10.264839   -35.339864    2070077.4   -39277.121    2591.1524   -41868.273   -186.40524    251.43632   -1849.0356 
   16200    10.576277   -38.878594    2070077.4   -39164.845    2669.7686   -41834.613   -241.37207   -21.515811   -1575.5367 
   16400    10.562292    -37.08428    2070077.4   -39199.949    2666.2383   -41866.187   -211.08298   -189.87803   -1242.2824 
   16600    10.707853   -47.793985    2070077.4   -39211.363    2702.9823   -41914.345   -388.68151   -224.67597   -1631.8721 
   16800    10.819123   -47.978923    2070077.4    -39229.16      2731.07    -41960.23    -390.9508   -154.89513   -1746.8768 
   17000    10.612725   -42.489549    2070077.4   -39229.813    2678.9691   -41908.782   -306.86307   -18.005611   -1730.3435 
   17200    10.692333   -45.560046    2070077.4    -39262.77    2699.0644   -41961.834   -354.77142   -13.445222   -1864.4039 
   17400    10.795411   -37.345717    2070077.4   -39246.681    2725.0844   -41971.765   -199.52518    13.289293   -1565.6577 
   17600    10.406965   -38.771263    2070077.4   -39330.922    2627.0292   -41957.951   -261.71535   -82.232433   -1477.6878 
   17800    10.562798   -53.960884    2070077.4   -39253.042     2666.366   -41919.408   -481.29958   -67.745804   -2128.4588 
   18000    10.530995   -29.749931    2070077.4    -39270.62     2658.338   -41928.958   -95.188033   -108.96247   -1063.2997 
   18200    10.513553   -40.153327    2070077.4   -39263.194    2653.9352    -41917.13   -248.38083    67.566204   -1765.3262 
   18400    10.791303   -34.419786    2070077.4   -39191.058    2724.0475   -41915.106   -171.84432    158.78602   -1668.4307 
   18600    10.529667   -48.529473    2070077.4   -39302.383    2658.0028   -41960.386   -392.44543   -208.78562   -1686.7497 
   18800    10.366084   -45.473014    2070077.4   -39299.442    2616.7094   -41916.152   -352.14588   -251.67546    -1494.303 
   19000    10.606263   -51.073377    2070077.4   -39313.514     2677.338   -41990.852   -434.55034    -246.9122   -1733.3511 
   19200    10.540559   -48.443933    2070077.4    -39224.31    2660.7523   -41885.063   -397.39511   -100.08268   -1850.4419 
   19400    10.541146   -46.487637    2070077.4   -39272.706    2660.9004   -41933.606   -364.33376   -220.90413   -1583.6234 
   19600    10.641551   -69.229648    2070077.4   -39201.372    2686.2456   -41887.617   -745.65592   -380.33193   -2279.3268 
   19800     10.57579   -32.033255    2070077.4    -39122.91    2669.6455   -41792.556   -123.05536    182.70577   -1606.4846 
   20000    10.505181   -55.564899    2070077.4   -39191.406    2651.8217   -41843.227   -507.15812   -105.23779   -2137.1477 
   20200    10.677905   -47.351361    2070077.4    -39136.42    2695.4225   -41831.842   -378.90096   -86.906264   -1825.5068 
   20400    10.555225   -34.565507    2070077.4   -39219.487    2664.4545   -41883.941   -168.15045    64.992325   -1530.1653 
   20600    10.662422   -39.354674    2070077.4   -39217.111    2691.5142   -41908.625   -246.15865   -73.749995   -1514.8765 
   20800    10.508632    -35.68259    2070077.4   -39280.275    2652.6929   -41932.968   -197.20274   -198.80505   -1170.5526 
   21000    10.691696   -36.396102    2070077.4   -39213.557    2698.9037   -41912.461   -203.03467   -59.322887    -1414.658 
   21200    10.712168    -40.53733    2070077.4   -39170.469    2704.0715    -41874.54   -261.40126   -45.583278   -1607.1424 
   21400    10.770934   -46.091693    2070077.4   -39176.555    2718.9059   -41895.461   -358.06865   -123.57672    -1716.972 
   21600    10.535839   -49.738651    2070077.4   -39197.015    2659.5607   -41856.575   -416.81003    31.293832   -2106.1253 
   21800    10.780125   -49.704084    2070077.4   -39163.657    2721.2259   -41884.883   -403.94953   -201.61397   -1746.3833 
   22000    10.733663    -43.49229    2070077.4   -39245.278    2709.4974   -41954.775   -331.96181   -174.59813   -1530.9266 
   22200    10.568682   -51.263819    2070077.4   -39196.525    2667.8514   -41864.376   -439.36139    21.052088   -2153.4743 
   22400    10.719436   -42.054775    2070077.4   -39220.581    2705.9062   -41926.487   -287.03992    53.730779   -1822.7155 
   22600    10.724944   -38.833005    2070077.4   -39237.132    2707.2965   -41944.428   -220.85769   -24.090138   -1569.6901 
   22800    10.485974   -30.288873    2070077.4    -39293.94    2646.9733   -41940.913   -96.219812   -175.98505   -982.48955 
   23000    10.557511   -48.200267    2070077.4   -39253.014    2665.0314   -41918.045   -394.62912   -194.79705   -1694.6489 
   23200    10.515178   -50.733354    2070077.4   -39266.271    2654.3454   -41920.617    -436.2411   -95.744249   -1951.8432 
   23400    10.308358   -48.019306    2070077.4   -39271.541    2602.1377   -41873.679   -392.21408   -362.80749   -1428.6896 
   23600    10.515423   -57.041945    2070077.4   -39292.416    2654.4072   -41946.824   -541.96112   -89.887579    -2221.877 
   23800    10.655638   -41.255877    2070077.4   -39186.361    2689.8016   -41876.162   -268.08032   -104.91329    -1545.598 
   24000    10.592258    -18.77088    2070077.4   -39256.811    2673.8026   -41930.614     89.60383    277.22457   -1203.1521 
   24200    10.693867   -62.689508    2070077.4   -39201.995    2699.4517   -41901.446   -616.40261   -291.12491   -2145.9611 
   24400    10.498739   -37.178211    2070077.4   -39287.966    2650.1955   -41938.161   -219.76485   -30.593392   -1491.2167 
   24600     10.68662    -55.86559    2070077.4   -39227.476    2697.6224   -41925.098    -513.0359   -50.909044   -2233.1699 
   24800     10.44553   -55.039058    2070077.4   -39254.725    2636.7642   -41891.489   -497.08387   -221.95022   -1935.8369 
   25000    10.750652   -43.212926    2070077.4   -39269.321    2713.7859   -41983.107   -306.79101   -47.861672   -1714.3425 
   25200    10.649953   -31.703878    2070077.4   -39193.942    2688.3665   -41882.308    -122.1093    62.527989   -1407.9716 
   25400    10.367916   -54.147624    2070077.4   -39275.744    2617.1719   -41892.916   -493.82801    41.513232   -2304.2724 
   25600     10.65847   -62.543482    2070077.4   -39128.668    2690.5165   -41819.185   -628.21225   -258.83625   -2189.5929 
   25800     10.77282   -27.161228    2070077.4   -39274.913    2719.3818   -41994.295   -61.993935    35.972858   -1179.1622 
   26000    10.621513   -77.675744    2070077.4   -39280.762    2681.1875   -41961.949   -863.98781   -478.57464   -2477.6525 
   26200    10.513297   -44.370314    2070077.4   -39308.901    2653.8706   -41962.771   -339.55064    20.794435   -1867.8529 
   26400    10.562217   -36.582408    2070077.4   -39243.072    2666.2194   -41909.292   -192.91514    -61.22857   -1419.4348 
   26600    10.799012   -42.124389    2070077.4   -39226.842    2725.9934   -41952.836   -281.76274    246.92668   -2122.8137 
   26800    10.873006   -54.819112    2070077.4   -39198.704    2744.6717   -41943.376    -499.0562   -232.49191   -1910.5188 
   27000    10.523884   -43.591141    2070077.4   -39223.711    2656.5429   -41880.254   -317.89513    199.93476   -2111.2083 
   27200    10.538275   -42.072184    2070077.4   -39336.393    2660.1756   -41996.569    -299.4314   -30.343681   -1694.0934 
   27400    10.406404   -47.597295    2070077.4   -39400.964    2626.8874   -42027.851   -373.70335    -72.33366   -1858.1014 
   27600    10.572377   -26.486535    2070077.4   -39286.688    2668.7841   -41955.472   -32.930569    -17.13124   -1069.5494 
   27800    10.819387    -46.11237    2070077.4   -39204.084    2731.1367   -41935.221   -366.58512    -79.29438   -1785.9527 
   28000    10.787733   -60.739306    2070077.4   -39211.881    2723.1464   -41935.028   -585.63855   -196.27843   -2211.1841 
   28200    10.417768   -29.790019    2070077.4   -39373.633     2629.756   -42003.389   -96.861255    41.447986   -1296.3539 
   28400    10.452792   -69.040505    2070077.4   -39294.619    2638.5971   -41933.216   -711.42196   -315.88354     -2370.65 
   28600    10.669474   -42.909027    2070077.4   -39360.981    2693.2942   -42054.276   -303.56176    175.97754   -2046.1288 
   28800    10.399958   -38.262464    2070077.4    -39315.72    2625.2602    -41940.98   -223.19518    -36.09131   -1527.6205 
   29000    10.473009   -35.215901    2070077.4    -39293.54    2643.7005    -41937.24    -182.5059   -215.56337   -1125.4615 
   29200    10.824397   -50.381319    2070077.4   -39238.914    2732.4015   -41971.316   -414.29588   -328.39941   -1579.3544 
   29400    10.727295   -59.035491    2070077.4   -39071.243      2707.89   -41779.133    -570.7973   -104.82149    -2281.387 
   29600    10.639664   -39.848283    2070077.4   -39153.191    2685.7694   -41838.961   -257.17995   -177.16456   -1376.2043 
   29800    10.430378   -45.158514    2070077.4   -39109.675    2632.9394   -41742.614   -331.83357   -84.173755   -1738.9795 
   30000    10.908209   -59.233228    2070077.4   -39181.322    2753.5582    -41934.88   -564.45472   -25.827984   -2411.0943 
   30200    10.567119    -59.39784    2070077.4   -39328.569    2667.4567   -41996.026   -572.82915   -355.70352   -1910.4158 
   30400    10.558971   -52.631792    2070077.4   -39324.597    2665.4001   -41989.997   -472.54164   -195.52014   -1876.8949 
   30600      10.8038    -46.60333    2070077.4   -39198.506    2727.2021   -41925.708   -371.65911   -38.569142   -1868.9195 
   30800    10.673412   -41.084579    2070077.4   -39148.615    2694.2884   -41842.903   -266.23528   -19.930779   -1669.2498 
   31000    10.685381    -39.08039    2070077.4   -39214.793    2697.3096   -41912.102   -249.55115   -171.29154   -1353.4672 
   31200     10.77445   -49.503551    2070077.4   -39185.344    2719.7934   -41905.137   -399.69995   -305.22683   -1578.6853 
   31400     10.20091   -56.159803    2070077.4   -39288.373    2575.0147   -41863.387   -517.66191   -62.194819   -2227.9808 
   31600    10.373363   -60.351729    2070077.4   -39298.665     2618.547   -41917.212   -582.17785     98.29653   -2648.3299 
   31800     10.75226   -53.109785    2070077.4   -39151.364    2714.1918   -41865.556   -483.21264   -219.05459   -1860.4662 
   32000    10.603484   -52.604359    2070077.4   -39304.649    2676.6363   -41981.285   -449.43305   -139.56726   -1961.8392 
   32200    10.483627   -23.528222    2070077.4   -39225.837    2646.3809   -41872.218    3.7222632    132.54733   -1177.4161 
   32400    10.738792   -30.628545    2070077.4   -39246.541    2710.7922   -41957.333   -110.35126   -13.367237   -1246.7195 
   32600    10.600864   -42.733472    2070077.4   -39278.695     2675.975    -41954.67   -294.23278     52.83306   -1849.4162 
   32800    10.579298     -30.7526    2070077.4   -39146.023    2670.5311   -41816.554   -106.90757    -7.977654   -1260.1438 
   33000    10.686836   -45.084008    2070077.4   -39142.703     2697.677    -41840.38   -336.68339    135.61689   -2074.0286 
   33200    10.872868   -42.319046    2070077.4   -39093.075    2744.6369   -41837.712   -304.08126    64.254464   -1849.8399 
   33400    10.617096   -49.601544    2070077.4   -39215.151    2680.0724   -41895.223   -426.53285   -168.20774   -1793.5337 
   33600       10.729   -54.873207    2070077.4   -39271.092    2708.3204   -41979.412   -504.42955   -182.20052   -1990.1267 
   33800     10.64101   -42.287071    2070077.4    -39318.23    2686.1091   -42004.339   -292.44436    105.01068   -1911.2174 
   34000    10.804797   -56.806823    2070077.4   -39164.437    2727.4538   -41891.891   -511.64683    -171.9271   -2085.9368 
   34200    10.545118   -29.350858    2070077.4   -39246.351     2661.903   -41908.254   -92.405011    139.25389   -1428.6505 
   34400    10.598657   -45.920497    2070077.4   -39184.897     2675.418   -41860.315   -360.23621   -226.83958   -1551.0262 
   34600    10.638631    -44.12443    2070077.4   -39246.992    2685.5085   -41932.501   -319.99178   -228.65627   -1473.9175 
   34800    10.642425   -30.711521    2070077.4   -39278.684    2686.4663    -41965.15   -113.00808     118.5056   -1453.0294 
   35000    10.608783   -64.950553    2070077.4   -39297.451    2677.9739   -41975.425   -684.40914   -278.85831   -2258.3851 
   35200    10.454799   -49.938527    2070077.4   -39210.901    2639.1038   -41850.005   -428.17105   -67.159841   -1962.9315 
   35400    10.879036   -40.530474    2070077.4    -39168.16    2746.1941   -41914.354   -260.74307   -159.35721   -1431.8259 
   35600    10.625726   -46.671202    2070077.4   -39281.422     2682.251   -41963.673   -373.30034   -59.847046   -1838.9932 
   35800    10.794033   -41.894144    2070077.4   -39109.307    2724.7366   -41834.044     -283.135   -34.131994   -1680.8988 
   36000    10.549945   -51.105134    2070077.4   -39207.775    2663.1216   -41870.896   -433.05604   -291.15881   -1666.5949 
   36200    10.666526   -42.763818    2070077.4   -39156.628      2692.55   -41849.178   -308.68327   -2.2993431   -1765.8546 
   36400    10.726692    -53.01243    2070077.4    -39241.82    2707.7377   -41949.558   -448.48206   -127.47069   -1997.3332 
   36600    10.724652   -39.014834    2070077.4   -39287.223    2707.2228   -41994.445   -246.27915    11.307085   -1631.6695 
   36800    10.495813   -54.252142    2070077.4   -39310.615    2649.4571   -41960.072   -488.71064   -128.48909   -2047.0607 
   37000    10.636511   -39.877438    2070077.4   -39205.264    2684.9734   -41890.237   -250.63473   -87.266024   -1515.7129 
   37200     10.57012   -49.242523    2070077.4   -39189.542    2668.2144   -41857.756   -407.97606   -131.95374    -1834.453 
   37400     10.69154   -28.787998    2070077.4   -39283.573    2698.8642   -41982.438   -65.297084    138.52412   -1404.2389 
   37600    10.651529   -47.141328    2070077.4   -39335.597    2688.7643   -42024.361   -366.44759     96.15686   -2098.4457 
   37800    10.723509   -66.381343    2070077.4   -39264.778    2706.9343   -41971.712   -676.34184   -635.14815   -1769.4594 
   38000    10.757348   -29.838447    2070077.4   -39252.477    2715.4763   -41967.953   -91.146463    155.16075   -1473.2965 
   38200    10.734231   -38.696448    2070077.4   -39201.073    2709.6407   -41910.714   -227.52684   -174.77724   -1332.2188 
   38400    10.748439   -34.442319    2070077.4   -39309.291    2713.2273   -42022.518   -169.05906   -71.749596   -1314.7008 
   38600    10.351103   -41.948455    2070077.4   -39332.648    2612.9278   -41945.576   -298.42315   -83.562816   -1607.1002 
   38800    10.376121    -31.91388    2070077.4   -39396.911    2619.2432   -42016.155   -134.62659   -80.485612   -1196.6446 
   39000    10.582208   -40.339156    2070077.4   -39226.103    2671.2656   -41897.369   -269.82196   -5.2855931   -1660.9379 
   39200     10.84622    -31.02492    2070077.4   -39191.331    2737.9103   -41929.241   -104.37565    114.74285   -1460.2078 
   39400    10.459153   -47.613744    2070077.4   -39285.208    2640.2028   -41925.411   -386.67276   -130.30134   -1769.6029 
   39600    10.640016   -42.467752    2070077.4   -39309.005    2685.8581   -41994.863   -295.76712   -169.80245   -1495.9132 
   39800    10.737657   -49.212613    2070077.4   -39273.929    2710.5056   -41984.434   -411.93535   -163.41501   -1784.8146 
   40000    10.904889   -44.244537    2070077.4   -39233.592      2752.72   -41986.312   -330.72004   -14.400646   -1808.5037 
   40200    10.724952   -58.253065    2070077.4   -39312.961    2707.2985    -42020.26   -555.63876   -308.56229    -1935.573 
   40400    10.609586   -50.795248    2070077.4   -39283.673    2678.1767   -41961.849   -451.47603   -268.20511   -1689.0856 
   40600    10.757604   -70.194194    2070077.4   -39244.939    2715.5408   -41960.479   -746.33449   -273.85456   -2483.0435 
   40800    10.719177   -44.679836    2070077.4   -39267.758    2705.8408   -41973.599   -342.21273   -172.84849   -1582.7541 
   41000    10.768686    -29.30256    2070077.4    -39235.24    2718.3383   -41953.578   -73.078033   -132.45082   -1008.6542 
   41200     10.58204   -37.899644    2070077.4   -39365.951    2671.2233   -42037.174   -229.91782    38.522568   -1627.3965 
   41400    10.746832   -53.596027    2070077.4   -39266.106    2712.8217   -41978.928   -477.19095   -52.410341    -2136.955 
   41600    10.518366   -31.612363    2070077.4   -39263.247      2655.15   -41918.397   -109.23637    115.27402    -1485.331 
   41800    10.703675    -19.54282    2070077.4   -39265.275    2701.9277   -41967.203    75.315347   -109.92968   -639.48317 
   42000    10.269331   -60.051333    2070077.4   -39413.209    2592.2862   -42005.495   -600.22738   -265.05675   -2076.9081 
   42200    10.565135   -63.535862    2070077.4   -39260.704    2666.9559    -41927.66   -645.53829   -161.52748    -2380.356 
   42400    10.463077   -40.101112    2070077.4   -39226.375    2641.1933   -41867.568   -256.36195   -8.0355095    -1646.858 
   42600    10.946801   -34.818619    2070077.4   -39109.286    2763.2999   -41872.586   -167.74182   -21.552324   -1407.4954 
   42800    10.672854   -23.263489    2070077.4    -39221.99    2694.1474   -41916.137    11.587189   -63.997643   -864.09236 
   43000    10.568016   -62.599092    2070077.4   -39295.362    2667.6831   -41963.045   -636.78142    -159.2496   -2345.1006 
   43200    10.634195   -34.572199    2070077.4   -39293.541    2684.3888    -41977.93   -180.37247    8.0453156   -1442.8334 
   43400    10.751561   -54.017327    2070077.4   -39132.541    2714.0154   -41846.556    -469.0607   -307.79154   -1761.5013 
   43600    10.754926   -44.356962    2070077.4   -39240.675     2714.865    -41955.54   -332.26871     33.86285   -1887.4053 
   43800    10.560124   -24.462387    2070077.4   -39158.188     2665.691   -41823.879   -9.3063114     54.41659   -1095.8695 
   44000    10.698464   -56.565885    2070077.4   -39201.515    2700.6121   -41902.128   -531.84976   -198.90773     -2034.46 
   44200     10.69315   -30.888411    2070077.4   -39277.911    2699.2708   -41977.182   -133.72771   -63.344314   -1180.5856 
   44400    10.489524   -37.438498    2070077.4   -39353.571    2647.8694   -42001.441   -203.57793   -38.824309   -1489.3236 
   44600    10.870137   -31.264871    2070077.4   -39133.128    2743.9476   -41877.076   -124.95444   -153.56246   -1057.3679 
   44800    10.586109   -42.457385    2070077.4       -39243    2672.2505   -41915.251   -302.42537   -59.058794   -1665.8553 
   45000    10.876139   -48.336906    2070077.4   -39168.568    2745.4627   -41914.031   -395.38643   -142.68758   -1780.4691 
   45200    10.646762   -51.548182    2070077.4   -39148.212     2687.561   -41835.773   -446.84818   -175.63092   -1862.6577 
   45400    10.876356   -58.438507    2070077.4    -39092.98    2745.5174   -41838.497   -558.74911    103.36509   -2576.9662 
   45600    10.698166   -44.083421    2070077.4   -39224.928     2700.537   -41925.464   -332.05832    50.834456   -1902.1969 
   45800     10.47503   -37.162555    2070077.4   -39215.637    2644.2108   -41859.847   -194.38923   -51.379228   -1458.5914 
   46000     10.92345   -46.802702    2070077.4    -39245.81    2757.4053   -42003.216    -380.7217   -215.05877   -1605.6522 
   46200    10.542599    -61.94819    2070077.4   -39219.866    2661.2673   -41881.133    -613.5207   -163.22194   -2312.0578 
   46400    10.605405   -52.477067    2070077.4   -39236.745    2677.1213   -41913.866   -444.96947   -188.35974   -1881.5087 
   46600    10.672185   -34.864096    2070077.4   -39248.381    2693.9786   -41942.359   -187.47939    69.135315   -1548.8934 
   46800    10.373202   -60.300723    2070077.4   -39350.502    2618.5064   -41969.009   -586.62944   -137.41521   -2283.5941 
   47000    10.454006   -53.792342    2070077.4   -39323.956    2638.9036   -41962.859   -498.81628   -20.954888   -2193.4696 
   47200    10.883078   -69.191387    2070077.4   -39119.035    2747.2144   -41866.249   -732.55881   -438.05878   -2188.9352 
   47400    10.728155   -35.247836    2070077.4   -39240.731     2708.107   -41948.838    -168.9365   -8.6802871   -1445.0574 
   47600    10.784732   -39.340182    2070077.4   -39121.735    2722.3887   -41844.124   -246.52673   -180.48535   -1350.0723 
   47800     10.78717    -44.02525    2070077.4   -39157.497    2723.0043   -41880.502   -330.84385   -50.210968   -1744.3389 
   48000    10.622577   -41.392091    2070077.4    -39186.28     2681.456   -41867.736   -269.22057   -135.99555   -1503.4163 
   48200    10.618938   -40.837801    2070077.4   -39151.097    2680.5375   -41831.634   -290.36716   -64.629372   -1590.2737 
   48400    10.551385   -65.430026    2070077.4   -39133.811    2663.4851   -41797.297   -674.30199   -43.264191   -2640.6682 
   48600    10.814669   -59.095056    2070077.4   -39145.419    2729.9459   -41875.365   -571.87256   -96.614975   -2296.4767 
   48800    10.625204   -67.131571    2070077.4   -39250.587    2682.1193   -41932.706   -696.76868   -200.31149   -2469.4653 
   49000    10.933557   -38.758727    2070077.4   -39198.464    2759.9566   -41958.421   -232.65533   -200.14264   -1295.7728 
   49200    10.673848   -44.636722    2070077.4     -39269.4    2694.3985   -41963.799   -330.13569    87.067766   -1980.8325 
   49400    10.536297     -34.7433    2070077.4   -39257.498    2659.6763   -41917.174   -165.15007    36.249166   -1493.3024 
   49600    10.532622   -68.577159    2070077.4   -39231.337    2658.7487   -41890.086    -706.0803   -120.78765   -2651.6195 
   49800    10.508474   -47.476293    2070077.4   -39221.573     2652.653   -41874.226   -390.28847   -206.15031   -1647.2277 
   50000    10.765055   -46.275817    2070077.4   -39208.539    2717.4218    -41925.96   -367.06934   -135.30432   -1706.5483 
   50200    10.726888   -46.084237    2070077.4    -39203.41    2707.7872   -41911.197   -349.75869     60.43589   -1999.7535 
   50400    10.558995   -33.400443    2070077.4   -39274.301     2665.406   -41939.707   -138.17225   -1.6065406   -1379.5022 
   50600    10.634995   -58.111288    2070077.4    -39201.96    2684.5907   -41886.551   -555.88029   -233.30355    -2045.487 
   50800    10.760147   -45.882899    2070077.4   -39194.854    2716.1829   -41911.037   -357.51577   -260.58583   -1497.5544 
   51000    10.714583   -68.797982    2070077.4   -39189.427    2704.6811   -41894.108    -727.0961   -478.96955   -2109.7194 
   51200    10.384315   -35.356321    2070077.4   -39358.594    2621.3116   -41979.906   -179.06503   -133.73484   -1257.1587 
   51400    10.731019   -47.789828    2070077.4   -39254.134      2708.83   -41962.964   -372.50936   -250.46006   -1592.0331 
   51600    10.735685    -33.55339    2070077.4   -39318.657    2710.0078   -42028.665   -139.98484   -94.975583   -1242.1891 
   51800     10.63679   -57.541272    2070077.4   -39275.154    2685.0439   -41960.198   -547.81164     10.69207   -2397.2716 
   52000    10.613321   -55.380436    2070077.4   -39246.872    2679.1196   -41925.991   -511.57608   -204.35544     -1977.03 
   52200    10.770593   -43.898592    2070077.4   -39274.378    2718.8197   -41993.198   -320.41079   -108.51344   -1649.4042 
   52400    10.424352   -57.605161    2070077.4   -39262.551     2631.418   -41893.969   -544.18841    70.457436   -2491.8597 
   52600    10.525438   -36.600975    2070077.4   -39327.817    2656.9354   -41984.752   -203.94007    -181.7448   -1234.7976 
   52800    10.435088   -45.730483    2070077.4   -39336.169    2634.1281   -41970.297   -352.62438   -18.384057   -1863.8579 
   53000    10.695864   -36.587722    2070077.4   -39304.656    2699.9559   -42004.612   -207.79123    25.581311   -1553.2053 
   53200    10.817561   -29.521599    2070077.4   -39257.657    2730.6759   -41988.333   -67.554787     193.3362   -1518.9167 
   53400    10.553525   -26.673944    2070077.4   -39250.553    2664.0253   -41914.579    -66.51725   -55.256411   -1018.6508 
   53600    10.806555   -45.779834    2070077.4   -39235.252    2727.8976   -41963.149   -357.18805   -193.77129   -1596.0794 
   53800    10.644908   -29.619073    2070077.4    -39249.69    2687.0932   -41936.783   -100.08572   -23.857239   -1188.8135 
   54000    10.783561   -53.563518    2070077.4   -39276.413    2722.0932   -41998.506   -475.68299   -141.73551   -1998.1896 
   54200    10.991746   -47.567378    2070077.4   -39223.806    2774.6453   -41998.451   -382.11621    26.556342   -2008.9986 
   54400    10.674215   -33.856193    2070077.4   -39230.256     2694.491   -41924.747   -142.56537   -158.63888   -1156.7765 
   54600     10.64264   -43.114264    2070077.4   -39278.524    2686.5204   -41965.045    -303.2189      -91.831   -1642.6167 
   54800    10.337546   -49.727098    2070077.4    -39270.74    2609.5056   -41880.246   -412.51673   -251.34241    -1670.832 
   55000    10.573339   -38.423253    2070077.4   -39336.002    2669.0269   -42005.029   -232.29634    45.330374   -1659.5346 
   55200    10.603895   -51.416071    2070077.4    -39312.34    2676.7401    -41989.08   -437.09552   -11.494268   -2109.7037 
   55400    10.518097   -66.326835    2070077.4   -39263.024    2655.0821   -41918.106   -682.77864   -402.05806   -2125.7962 
   55600     10.63501   -28.686364    2070077.4   -39231.366    2684.5945    -41915.96   -87.651206    40.135059   -1248.6693 
   55800    10.986568   -46.012416    2070077.4    -39190.86    2773.3383   -41964.198   -346.65069    -262.3575   -1500.1877 
   56000    10.754283   -43.123574    2070077.4   -39196.576    2714.7026   -41911.279   -312.75992   -34.356833   -1731.4217 
   56200    10.587194   -54.501812    2070077.4   -39208.266    2672.5244    -41880.79   -504.22517   -301.65641   -1790.9857 
   56400    10.702471   -38.591228    2070077.4    -39157.69    2701.6238   -41859.314   -243.56633   -137.59683   -1385.0645 
   56600    10.515258   -44.032603    2070077.4   -39284.544    2654.3656    -41938.91   -313.24179   -166.59436   -1565.5958 
   56800    10.469267   -28.541793    2070077.4   -39363.467    2642.7559   -42006.223   -88.504583    199.65648   -1488.0997 
   57000    10.995593   -61.955188    2070077.4   -39182.526    2775.6164   -41958.142   -616.79503   -139.77998   -2348.4111 
   57200    10.726635    -52.90168    2070077.4   -39219.244    2707.7234   -41926.967   -470.35818   -269.39518   -1774.4104 
   57400    10.867778   -34.311768    2070077.4   -39181.865     2743.352   -41925.217   -175.67359   -23.365825   -1383.7341 
   57600    10.592043   -50.262661    2070077.4   -39202.861    2673.7484    -41876.61   -420.73796   -39.358688   -2019.1129 
   57800    10.572934   -36.097244    2070077.4   -39265.608    2668.9247   -41934.533   -199.37756    17.758084   -1520.8759 
   58000    10.578719   -60.306143    2070077.4   -39155.945    2670.3851   -41826.331   -573.95579   -183.72113     -2212.58 
   58200    10.613618   -37.162945    2070077.4   -39211.508    2679.1946   -41890.703   -221.53292    76.229318    -1654.924 
   58400    10.416003   -50.985492    2070077.4   -39250.393    2629.3107   -41879.704   -439.31259   -202.97627    -1797.307 
   58600    10.733745   -28.851488    2070077.4   -39286.096    2709.5183   -41995.614    -73.78365   -40.316029   -1131.7333 
   58800    10.666351   -22.123566    2070077.4    -39302.67    2692.5059   -41995.176    37.694928    -8.210679   -902.75116 
   59000    10.622738   -37.909721    2070077.4   -39317.573    2681.4967    -41999.07   -216.47764    99.523579   -1721.6591 
   59200    10.760781   -47.854079    2070077.4   -39234.618     2716.343   -41950.961   -379.73381   -340.06663   -1456.8384 
   59400    10.711969   -46.210699    2070077.4   -39243.318    2704.0212   -41947.339   -359.81862   -128.34659   -1714.5579 
   59600    10.708832    -35.84243    2070077.4   -39185.812    2703.2293   -41889.041   -182.58309    51.273389   -1561.8936 
   59800     10.63358   -46.270229    2070077.4   -39110.109    2684.2336   -41794.343     -358.365    143.76389   -2135.6432 
   60000    10.678899   -32.717166    2070077.4   -39163.247    2695.6734    -41858.92   -157.74172    84.949711   -1484.3915 
   60200    10.618693   -39.978461    2070077.4   -39158.105    2680.4756    -41838.58   -263.33859   -56.705792   -1566.9075 
   60400    10.770746   -50.052337    2070077.4   -39225.976    2718.8584   -41944.835   -427.65621   -204.86636   -1755.7891 
   60600    10.614399   -42.987753    2070077.4     -39241.9    2679.3918   -41921.292   -309.08287    29.572853   -1824.1532 
   60800    10.527454   -59.987032    2070077.4   -39207.711    2657.4441   -41865.155   -579.63889   -42.893063   -2416.0303 
   61000    10.498446   -32.882555    2070077.4   -39285.008    2650.1216    -41935.13   -153.00675    133.71357   -1566.2543 
   61200    10.688864   -57.169196    2070077.4   -39174.193    2698.1889   -41872.382   -528.65807   -356.20348   -1817.4345 
   61400    10.338305   -52.848053    2070077.4   -39272.696    2609.6973   -41882.394   -455.69975   -223.84454   -1842.2679 
   61600    10.716577   -41.001048    2070077.4    -39144.52    2705.1845   -41849.704   -271.71111    130.56913   -1897.3268 
   61800    10.453116   -62.248196    2070077.4   -39240.463    2638.6789   -41879.142   -637.26769   -267.43517   -2164.1463 
   62000    10.862375   -46.470991    2070077.4   -39218.781    2741.9882   -41960.769   -352.97444   -44.129351   -1854.8898 
   62200    10.606032   -39.659992    2070077.4   -39187.911    2677.2797   -41865.191   -261.05591   -246.82917   -1261.2396 
   62400    10.746095   -38.179877    2070077.4   -39245.478    2712.6358   -41958.114   -220.87238    130.26604    -1780.132 
   62600     10.60306    -46.31911    2070077.4   -39269.703    2676.5293   -41946.232   -357.72575   -28.358243   -1872.8683 
   62800    10.454454   -74.712718    2070077.4   -39317.056    2639.0168   -41956.073   -823.02194   -393.91477   -2485.2976 
   63000    10.582941   -34.537008    2070077.4   -39246.089    2671.4508   -41917.539   -173.81547    220.28085   -1767.8862 
   63200    10.544288   -45.887222    2070077.4   -39333.698    2661.6935   -41995.391   -339.57322    -155.5634   -1659.3027 
   63400    10.710714   -72.984414    2070077.4   -39225.901    2703.7044   -41929.606   -812.00438   -645.30621     -2027.04 
   63600    10.655741   -29.882609    2070077.4   -39226.696    2689.8276   -41916.524   -112.43858    295.80427   -1691.4935 
   63800    10.505486    -45.58334    2070077.4   -39294.033    2651.8988   -41945.931   -350.19031    -94.87597   -1740.0925 
   64000    10.798818   -44.316463    2070077.4   -39242.095    2725.9446   -41968.039   -347.89294    30.357198   -1880.3364 
   64200    10.893478   -46.204663    2070077.4   -39262.827    2749.8396   -42012.667   -340.97693   -182.85918   -1630.4445 
   64400    10.603265   -35.827577    2070077.4   -39244.365    2676.5811   -41920.946   -186.30684    3.8066168   -1488.2549 
   64600    10.443849   -28.837697    2070077.4   -39406.272    2636.3397   -42042.611   -76.838817   -173.99284   -925.51067 
   64800    10.624446   -30.025096    2070077.4   -39207.147    2681.9278   -41889.075   -93.294176    124.51402   -1433.8715 
   65000    10.496379   -69.132506    2070077.4    -39232.21       2649.6    -41881.81   -741.52363   -294.86893   -2406.7861 
   65200    10.595227   -23.167609    2070077.4   -39291.951     2674.552   -41966.503    18.898987    90.974918   -1098.5392 
   65400    10.592708   -36.520959    2070077.4    -39181.08    2673.9161   -41854.996   -208.26475   -116.48656   -1331.8819 
   65600    10.668552   -54.361342    2070077.4   -39219.414    2693.0615   -41912.476   -493.74906   -215.18933    -1918.197 
   65800    10.336701   -34.770414    2070077.4   -39259.631    2609.2925   -41868.924   -179.04317    148.06432   -1666.4437 
   66000    10.528353   -49.066044    2070077.4   -39292.496     2657.671   -41950.167   -405.88247   -409.38097   -1400.3495 
   66200    10.523292   -49.297699    2070077.4   -39290.567    2656.3936   -41946.961   -419.58177   -258.82865   -1641.5482 
   66400     10.55617   -44.362774    2070077.4   -39233.353    2664.6928   -41898.045   -339.33466    -89.15691   -1698.3888 
   66600    10.637289   -37.507596    2070077.4   -39150.967    2685.1697   -41836.136   -216.20919    82.328314   -1678.5671 
   66800    10.527318   -45.822733    2070077.4   -39140.754    2657.4098   -41798.164   -350.29122   -284.55968    -1458.183 
   67000    10.581567   -52.462165    2070077.4   -39211.712    2671.1039   -41882.816   -470.04101   -292.09913   -1721.2966 
   67200    10.350761   -50.633835    2070077.4   -39212.657    2612.8416   -41825.499   -438.09703   -153.17296   -1859.3756 
   67400    10.838231   -58.349414    2070077.4   -39134.399    2735.8935   -41870.292   -541.76902   -313.11044   -1932.5626 
   67600    10.872193   -37.490661    2070077.4   -39097.642    2744.4666   -41842.108   -215.66375   -110.41306   -1381.3478 
   67800    10.609446    -48.72501    2070077.4   -39227.885    2678.1414   -41906.026   -395.82521   -33.689389    -1964.213 
   68000    10.711564   -54.092062    2070077.4   -39257.301     2703.919    -41961.22   -488.33677   -16.605981   -2212.5613 
   68200    10.725493   -43.960116    2070077.4   -39225.977     2707.435   -41933.412   -331.22588     -196.205   -1517.0428 
   68400    10.597895   -34.869091    2070077.4   -39361.933    2675.2256   -42037.159   -191.11312    79.479437   -1565.0138 
   68600    10.723014   -74.936624    2070077.4   -39318.965    2706.8094   -42025.774   -820.20723   -586.68748   -2197.9951 
   68800     10.49632   -30.862967    2070077.4   -39341.144    2649.5851   -41990.729   -127.77685    12.193497   -1295.7422 
   69000    10.449026    -39.35178    2070077.4   -39347.116    2637.6466   -41984.762   -249.87602   -94.255865     -1483.21 
   69200    10.624658    -47.16328    2070077.4   -39204.353    2681.9814   -41886.334   -380.24576   -230.32141    -1597.091 
   69400    10.542907   -27.833612    2070077.4   -39251.169     2661.345   -41912.514   -59.926537   -2.2396903   -1148.1955 
   69600    10.589727   -56.361396    2070077.4    -39216.12    2673.1637   -41889.284   -544.01151   -211.72006   -2006.2883 
   69800    10.647994   -49.125143    2070077.4       -39278     2687.872   -41965.872   -406.07675    -158.2681   -1789.1136 
   70000    10.469433     -44.2756    2070077.4   -39289.572     2642.798    -41932.37   -321.85477    66.078046   -1933.5996 
   70200     10.72572   -46.220049    2070077.4   -39284.627    2707.4925   -41992.119    -359.1586   -168.85979   -1652.6182 
   70400    10.516099   -55.122439    2070077.4   -39194.696    2654.5778   -41849.274    -504.5277   -143.10702   -2060.5814 
   70600    10.724822   -44.933572    2070077.4   -39253.863    2707.2658   -41961.129   -347.29609    -170.8138   -1596.3829 
   70800    10.558515    -49.72981    2070077.4   -39248.673    2665.2849   -41913.958   -414.89022   -93.475731   -1913.8106 
   71000    10.807999   -50.229653    2070077.4    -39249.51     2728.262   -41977.772   -405.77723    99.030923   -2230.6496 
   71200    10.699469   -55.569023    2070077.4   -39209.888     2700.866   -41910.754   -501.90058   -108.14691   -2132.8428 
   71400     10.58103   -46.471957    2070077.4   -39259.725    2670.9685   -41930.694   -359.29216   -98.931585   -1770.6205 
   71600     10.81411   -43.950311    2070077.4   -39283.576    2729.8046   -42013.381   -327.05112   -4.1559387   -1812.0906 
   71800    10.600346   -40.945676    2070077.4   -39233.855    2675.8443   -41909.699    -262.6575   -131.30685   -1492.1586 
   72000    10.527372   -40.464726    2070077.4   -39255.854    2657.4234   -41913.277    -255.1068   -99.182038   -1521.6806 
   72200    10.583776   -45.159504    2070077.4   -39241.562    2671.6616   -41913.224   -329.18591   -157.86032    -1625.659 
   72400    10.764477   -62.359539    2070077.4   -39173.745    2717.2758   -41891.021   -614.51494   -75.443722   -2464.1181 
   72600    10.732096   -40.513629    2070077.4   -39125.095    2709.1019   -41834.197   -265.92014   -147.46307   -1449.4272 
   72800    10.575165   -31.218075    2070077.4   -39155.546    2669.4878   -41825.034   -119.70408   -49.743601   -1215.1494 
   73000    10.497824   -52.781739    2070077.4   -39228.149    2649.9647   -41878.114   -454.95923   -71.446297   -2073.9776 
   73200    10.671501   -46.565379    2070077.4    -39193.35    2693.8059   -41887.156   -368.59273    -290.3286   -1480.0356 
   73400    10.697684   -63.848552    2070077.4   -39183.126    2700.4152   -41883.541   -655.42838   -269.84603   -2226.6536 
   73600    10.619056    -55.31915    2070077.4   -39190.879    2680.5671   -41871.447    -525.1695   -411.18049    -1656.309 
   73800    10.704188   -35.045314    2070077.4    -39142.75    2702.0571   -41844.807   -166.10195   -265.09397    -1042.204 
   74000    10.595592   -38.063634    2070077.4   -39168.681    2674.6441   -41843.325   -230.55755    41.654236   -1638.9996 
   74200    10.562522   -57.404976    2070077.4   -39210.557    2666.2963   -41876.853   -535.51913   -142.20724   -2156.4077 
   74400    10.727951   -48.328293    2070077.4    -39218.24    2708.0556   -41926.296   -400.87243   -4.5223238   -1992.6699 
   74600    10.606826   -46.169365    2070077.4   -39174.289      2677.48   -41851.769   -354.02968   -37.270855   -1852.9611 
   74800    10.481929   -41.267167    2070077.4   -39197.838    2645.9522    -41843.79   -272.72419    225.24289   -2053.9864 
   75000    10.539966   -41.701383    2070077.4   -39143.774    2660.6026   -41804.376   -299.04543   -245.28543   -1348.0789 
   75200    10.464082   -33.662605    2070077.4   -39235.313    2641.4471    -41876.76   -146.07471   -136.27281   -1183.1752 
   75400    10.610634   -34.273353    2070077.4   -39149.079    2678.4411    -41827.52   -163.42856   -140.65076   -1201.7103 
   75600    10.502322   -40.956872    2070077.4   -39201.795       2651.1   -41852.895   -263.97943   -210.71292   -1370.4614 
   75800     10.54623   -51.747704    2070077.4    -39189.77    2662.1837   -41851.954   -449.07253    -262.1818   -1737.7608 
   76000    10.848633    -46.61971    2070077.4   -39160.482    2738.5192   -41899.002   -357.08388   -235.17487   -1567.1336 
   76200     10.57795   -45.338428    2070077.4    -39298.83    2670.1907   -41969.021   -363.88507   -52.766656   -1794.7411 
   76400     10.52644   -45.024107    2070077.4   -39186.539    2657.1882   -41843.728   -344.79286   -58.945348   -1772.2303 
   76600     10.52768   -32.798674    2070077.4   -39206.484    2657.5011   -41863.986   -139.11551    22.967207   -1392.4084 
   76800    10.690078   -45.848448    2070077.4   -39153.544    2698.4954   -41852.039   -367.23611   -8.3799796   -1884.1294 
   77000    10.694626   -55.929187    2070077.4   -39142.631    2699.6433   -41842.274   -526.13094   -140.29814   -2098.2826 
   77200    10.449017   -48.196647    2070077.4   -39201.444    2637.6443   -41839.089   -388.02488   -42.051495   -1929.4871 
   77400     10.58753   -29.819174    2070077.4   -39078.179     2672.609   -41750.788   -104.06017    370.73994   -1804.1519 
   77600    10.685953   -53.332665    2070077.4   -39181.996    2697.4542    -41879.45   -474.57492   -278.36169   -1778.4484 
   77800     10.79064   -33.593793    2070077.4   -39157.776    2723.8803   -41881.656   -158.96563    178.66076   -1664.8304 
   78000    10.732272   -49.088961    2070077.4   -39097.473    2709.1463   -41806.619   -402.01631   -61.031734   -1937.2076 
   78200     10.41926   -39.687428    2070077.4   -39215.503    2630.1327   -41845.636   -251.64722    160.87725   -1889.6015 
   78400    10.533766   -59.565365    2070077.4    -39203.17    2659.0375   -41862.208   -572.97429   -77.683856   -2345.0603 
   78600    10.769898   -22.442866    2070077.4   -39193.735    2718.6442    -41912.38    26.875808    95.668547   -1075.7731 
   78800    10.552025    -44.20999    2070077.4   -39200.862    2663.6466   -41864.508   -319.29567   -57.744684   -1740.3927 
   79000      10.6604   -43.437946    2070077.4   -39136.267    2691.0037   -41827.271   -320.89441    66.934419   -1900.2584 
   79200    10.460062   -40.988736    2070077.4   -39229.676    2640.4325   -41870.109   -284.40231    98.431231   -1847.3756 
   79400    10.617639   -54.920846    2070077.4   -39181.923    2680.2096   -41862.132   -503.81585   -87.136816   -2138.3464 
   79600    10.749222   -61.754015    2070077.4   -39188.324    2713.4251   -41901.749   -615.71495   -180.78781   -2276.9998 
   79800    10.708603   -54.376295    2070077.4   -39242.755    2703.1716   -41945.927   -492.42987   -317.11626   -1762.0085 
   80000    10.593073   -27.705921    2070077.4   -39357.497    2674.0083   -42031.505   -59.940643    48.104253   -1220.3626 
   80200    10.448358   -50.030479    2070077.4   -39198.101    2637.4779   -41835.579   -433.20588   -33.538799   -2018.4597 
   80400     10.55344   -41.832681    2070077.4   -39254.415    2664.0037   -41918.419    -287.3075   -43.474074   -1663.9836 
   80600    10.814941   -50.672653    2070077.4    -39143.05    2730.0143   -41873.064   -428.65869    35.832188   -2151.7524 
   80800    10.626955   -36.934146    2070077.4   -39157.778    2682.5612   -41840.339   -225.32194   -11.282757   -1510.8263 
   81000    10.675674   -37.060572    2070077.4   -39118.707    2694.8592   -41813.566   -212.92638   -154.33218   -1295.9861 
   81200    10.515636   -50.740072    2070077.4   -39222.814    2654.4608   -41877.275   -444.84069   -235.82809   -1736.6124 
   81400    10.470444   -32.557498    2070077.4   -39241.322    2643.0531   -41884.375   -145.65299   -163.97504   -1094.8325 
   81600    10.525011   -51.894287    2070077.4   -39156.684    2656.8274   -41813.511   -459.14731   -85.159156   -2016.1623 
   81800    10.537841    -43.73614    2070077.4     -39191.9     2660.066   -41851.966    -320.0244    119.73225    -1993.822 
   82000    10.674414   -49.878328    2070077.4   -39177.442    2694.5412   -41871.983   -410.69276   -205.19911   -1748.0774 
   82200    10.722023   -57.232204    2070077.4   -39210.417    2706.5592   -41916.977   -538.70156   -154.18718   -2130.8289 
   82400    10.584267   -36.214455    2070077.4   -39198.435    2671.7855    -41870.22   -218.45891      232.348   -1855.8566 
   82600    10.756095   -47.943888    2070077.4   -39186.015    2715.1601   -41901.176    -399.4722   -260.73278   -1582.6037 
   82800     10.61066   -39.111281    2070077.4   -39187.839    2678.4479   -41866.287   -233.72192    68.405073   -1723.5011 
   83000    10.759336   -50.541374    2070077.4   -39138.857    2715.9782   -41854.835    -426.4574   -65.283245   -1990.7619 
   83200     10.92533   -29.589975    2070077.4   -39091.315    2757.8799   -41849.195   -102.94051    -31.10267    -1176.463 
   83400    10.316829   -42.297678    2070077.4   -39188.942    2604.2761   -41793.219   -300.20118   -277.49914   -1323.1928 
   83600    10.630595   -40.407178    2070077.4   -39284.771    2683.4799    -41968.25   -287.51492   -1.5797804   -1669.4534 
   83800    10.694567   -29.706863    2070077.4   -39198.385    2699.6285   -41898.014   -91.118344    21.500928   -1262.2262 
   84000    10.598361    -51.10236    2070077.4   -39172.014    2675.3432   -41847.357   -437.73944   -334.00649   -1600.5621 
   84200    10.547584    -39.66477    2070077.4   -39236.718    2662.5255   -41899.243   -262.52178   -144.10264   -1419.4746 
   84400     10.56693    -55.56772    2070077.4   -39185.485    2667.4091   -41852.895    -513.1966    -130.3101   -2098.6925 
   84600    10.783291     -46.4055    2070077.4   -39168.743     2722.025   -41890.768   -384.16437   -255.42314     -1527.12 
   84800    10.582262   -37.698419    2070077.4   -39208.935    2671.2793   -41880.214   -206.16715    219.85029   -1898.0301 
   85000    10.646157   -32.300171    2070077.4   -39232.162    2687.4082    -41919.57   -151.10561   -165.32421   -1082.1098 
   85200    10.694385   -35.637608    2070077.4     -39151.2    2699.5825   -41850.783   -185.32775    24.270564    -1511.877 
   85400    10.693545    -42.38995    2070077.4    -39141.28    2699.3705   -41840.651   -286.25304   -341.59587   -1228.4024 
   85600    10.475495   -39.916332    2070077.4   -39285.317    2644.3281   -41929.645   -264.26803   -70.940201   -1542.4383 
   85800    10.743239   -49.738075    2070077.4   -39254.408    2711.9146   -41966.323   -412.62305   -174.10372   -1790.1123 
   86000    10.667626     -34.9292    2070077.4   -39197.464    2692.8277   -41890.292   -191.37105   -3.5483289   -1439.7686 
   86200    10.722067   -18.042562    2070077.4   -39183.379    2706.5702    -41889.95    85.726029    99.079525   -898.95407 
   86400    10.599029   -58.287346    2070077.4       -39264    2675.5118   -41939.512   -554.24362   -112.38115   -2238.8019 
   86600    10.451572    -36.92789    2070077.4   -39265.417    2638.2893   -41903.706   -211.45865   -158.42229   -1284.2039 
   86800      10.8439   -67.619573    2070077.4   -39171.809    2737.3245   -41909.134   -700.77163   -207.45088   -2478.6734 
   87000    10.618711   -41.837978    2070077.4   -39072.117    2680.4802   -41752.597   -312.02807   -321.28238    -1236.815 
   87200    10.583585    -57.00475    2070077.4   -39206.112    2671.6134   -41877.725   -541.32631   -265.68721   -1949.8831 
   87400    10.569355   -60.503996    2070077.4   -39351.609    2668.0211    -42019.63    -599.0861   -373.17366   -1929.3075 
   87600     10.85159    -43.96119    2070077.4   -39276.603    2739.2659   -42015.869   -316.88114   -286.77586   -1377.7505 
   87800    10.543031   -35.598435    2070077.4   -39340.974    2661.3762    -42002.35   -174.26828   -84.888284   -1342.3233 
   88000    10.732861   -37.773696    2070077.4   -39268.768    2709.2951   -41978.063   -228.10261   -211.62553   -1237.3506 
   88200     10.46462   -39.945665    2070077.4   -39292.284    2641.5829   -41933.867   -264.46377    6.8396552   -1663.3106 
   88400    10.525681   -53.803256    2070077.4   -39290.264    2656.9966   -41947.261   -481.36566    -64.44022   -2127.0222 
   88600    10.695988   -62.939427    2070077.4   -39263.128    2699.9872   -41963.116   -635.26047   -87.213413   -2470.0047 
   88800    10.678815   -41.872367    2070077.4   -39200.746    2695.6521   -41896.399   -275.35619   -246.16649   -1353.7981 
   89000    10.752952   -36.689442    2070077.4    -39226.41    2714.3665   -41940.777   -201.38306   -55.916028   -1432.0364 
   89200    10.838945   -49.063036    2070077.4   -39220.345    2736.0739   -41956.419   -412.45127   -439.24141   -1354.2869 
   89400    10.647177    -45.25242    2070077.4   -39265.892    2687.6657   -41953.557     -346.097   -13.798448   -1851.1322 
   89600    10.459083   -53.086108    2070077.4   -39310.156    2640.1854   -41950.341   -480.84578    33.530683   -2248.0706 
   89800    10.567959   -39.292697    2070077.4     -39243.4    2667.6687   -41911.069   -249.47443    90.472128   -1764.9559 
   90000    10.520548   -43.363601    2070077.4   -39284.503    2655.7009   -41940.204    -316.3027    -55.73258    -1708.468 
   90200    10.691987   -37.650566    2070077.4   -39176.575    2698.9771   -41875.552   -205.69312   -44.115307   -1489.9583 
   90400    10.706292    -50.92192    2070077.4   -39251.448    2702.5882   -41954.037   -441.30622    33.146994   -2157.9351 
   90600    10.624614   -56.655215    2070077.4   -39187.486    2681.9703   -41869.456   -546.12115   -231.42232   -1988.1348 
   90800    10.926963   -39.540346    2070077.4   -39096.035    2758.2923   -41854.327   -251.46343   -106.79111   -1471.7275 
   91000    10.668046   -63.520868    2070077.4   -39148.506    2692.9338   -41841.439    -626.7372     -117.496   -2447.4748 
   91200    10.787788   -32.118749    2070077.4     -39190.8    2723.1603    -41913.96   -130.98644   -62.792815   -1232.3404 
   91400    10.488231   -43.735378    2070077.4     -39158.9    2647.5431   -41806.444   -322.06175   -111.83219   -1637.5454 
   91600    10.755938    -37.55154    2070077.4   -39134.367    2715.1205   -41849.487   -203.63627    103.34117   -1712.7121 
   91800    10.965343   -44.401962    2070077.4   -39115.415    2767.9803   -41883.395   -325.21831    -195.2297    -1536.825 
   92000    10.685394   -26.168883    2070077.4   -39216.652    2697.3128   -41913.965   -33.606345     135.1419   -1290.6674 
   92200    10.823281   -31.407036    2070077.4   -39260.393    2732.1198   -41992.513   -113.78761   -200.02849   -991.76546 
   92400    10.639572   -55.480473    2070077.4   -39203.982    2685.7462   -41889.729   -508.48386   -15.019234   -2272.4492 
   92600    10.976825   -47.189296    2070077.4   -39117.644    2770.8788   -41888.523   -381.33558   -154.25077   -1715.1966 
   92800    10.901021   -28.722944    2070077.4   -39139.912    2751.7435   -41891.656   -80.286143   -94.018749    -1043.797 
   93000    11.001356   -56.062528    2070077.4   -39046.512    2777.0713   -41823.584    -513.4948   -148.78653   -2090.7409 
   93200    10.488716   -47.015136    2070077.4   -39184.406    2647.6655   -41832.071   -372.72564   -153.85871   -1708.5937 
   93400    10.564633    -44.45103    2070077.4   -39291.898    2666.8293   -41958.727   -326.89534   -114.78749   -1662.6097 
   93600    10.662958   -34.426024    2070077.4   -39217.499    2691.6495   -41909.149   -166.68649     101.1028   -1579.9474 
   93800    10.729968   -57.151607    2070077.4   -39210.939    2708.5648   -41919.503   -526.52194    -220.8858   -2024.8831 
   94000    10.510166   -48.363687    2070077.4   -39245.467    2653.0801   -41898.547   -405.33822    -19.89173   -1970.4897 
   94200    10.777393   -29.506762    2070077.4       -39145    2720.5362   -41865.536   -88.938592   -58.918117   -1130.2279 
   94400    10.573823   -55.123458    2070077.4   -39141.334    2669.1491   -41810.483   -500.42697    4.2575473   -2287.3333 
   94600    10.458248   -39.105296    2070077.4   -39208.395    2639.9744   -41848.369   -250.40351   -51.497258   -1538.7925 
   94800     10.74037   -53.969645    2070077.4   -39179.626    2711.1906   -41890.817   -482.69974   -265.16298   -1825.1093 
   95000      10.7086   -42.289908    2070077.4    -39193.12    2703.1709   -41896.291   -288.92577   -53.218093   -1667.9113 
   95200     10.75011   -36.452208    2070077.4   -39186.396    2713.6493   -41900.045   -221.40936    -165.6684   -1253.3746 
   95400    10.711436   -30.617753    2070077.4   -39175.824    2703.8868   -41879.711   -114.69228    145.88193   -1491.2662 
   95600    10.528547   -55.211292    2070077.4   -39184.828      2657.72   -41842.548   -506.60806   -214.53332   -1954.3736 
   95800    10.601924   -18.912901    2070077.4   -39180.323    2676.2425   -41856.565    86.723623    378.98929    -1365.586 
   96000    10.704538     -52.7379    2070077.4   -39270.767    2702.1455   -41972.912   -483.49913   -108.47244   -2015.2017 
   96200    10.459049    -38.91921    2070077.4   -39199.808    2640.1767   -41839.985   -255.13663    58.414413   -1700.1841 
   96400    10.401664   -49.111804    2070077.4   -39218.288     2625.691   -41843.979   -411.41643   -291.16121   -1584.1154 
   96600    10.460872   -49.313482    2070077.4   -39250.893    2640.6367    -41891.53    -416.2465   -324.21666   -1541.6065 
   96800    10.434499    -57.73484    2070077.4   -39305.956    2633.9794   -41939.935   -535.98377   -415.11308   -1750.2104 
   97000    10.828626   -27.417941    2070077.4   -39214.593     2733.469   -41948.062   -53.987429   -31.805677   -1085.5116 
   97200    10.800662   -51.469837    2070077.4   -39176.593    2726.4099   -41903.003   -454.69177   -221.09214   -1789.4773 
   97400    10.878324   -28.711951    2070077.4   -39077.038    2746.0141   -41823.052   -74.511733    73.232811   -1300.6465 
   97600    10.587199    -47.42078    2070077.4   -39165.503    2672.5257   -41838.029    -396.5981   -36.526741   -1905.8843 
   97800    10.648047   -61.778674    2070077.4   -39253.175    2687.8855    -41941.06   -617.73285   -338.70553   -2035.0751 
   98000    10.455557   -39.751844    2070077.4   -39174.077    2639.2952   -41813.372   -256.54822   -34.921278    -1591.045 
   98200    10.708389   -51.014826    2070077.4   -39084.462    2703.1176    -41787.58      -434.06   -106.50249   -1946.9386 
   98400    10.684113   -33.955157    2070077.4    -39019.97    2696.9896   -41716.959   -166.11968  -0.74831195   -1403.7743 
   98600    10.525657   -64.800317    2070077.4   -39212.356    2656.9905   -41869.346   -663.42623     -209.853   -2358.3286 
   98800    10.906026   -42.472333    2070077.4   -39184.226    2753.0071   -41937.233   -293.13481   -113.94711   -1582.0322 
   99000    10.573925   -51.551496    2070077.4   -39255.779    2669.1749   -41924.954   -431.98308    6.7428375   -2143.3635 
   99200    10.692164   -41.691257    2070077.4   -39170.873    2699.0219   -41869.895   -279.39032    65.473847   -1825.7405 
   99400    10.643844   -65.408964    2070077.4   -39173.161    2686.8244   -41859.985   -674.26691   -304.14488   -2238.4508 
   99600    10.420396   -29.392675    2070077.4    -39192.34    2630.4196    -41822.76   -90.016833   -42.160942   -1151.2872 
   99800    10.537342   -47.350232    2070077.4   -39329.215    2659.9401   -41989.155   -373.15521   -203.51181   -1646.0709 
  100000     10.47945   -49.795717    2070077.4   -39227.748    2645.3266   -41873.074   -410.57816   -30.768308   -2013.0084 
Loop time of 4171.48 on 12 procs for 100000 steps with 84686 atoms

Performance: 20.712 ns/day, 1.159 hours/ns, 23.972 timesteps/s
98.8% CPU use with 12 MPI tasks x no OpenMP threads

MPI task timing breakdown:
Section |  min time  |  avg time  |  max time  |%varavg| %total
---------------------------------------------------------------
Pair    | 624.5      | 1094.1     | 3521.3     |3057.6 | 26.23
Neigh   | 249.69     | 279.74     | 388.42     | 271.0 |  6.71
Comm    | 80.058     | 2615.8     | 3115.4     |2066.9 | 62.71
Output  | 70.976     | 71         | 71.167     |   0.6 |  1.70
Modify  | 74.024     | 78.167     | 87.217     |  48.3 |  1.87
Other   |            | 32.68      |            |       |  0.78

Nlocal:        7057.17 ave        8815 max        6610 min
Histogram: 10 0 0 0 0 0 0 0 1 1
Nghost:        9960.67 ave       11151 max        9594 min
Histogram: 5 5 0 0 0 0 0 0 0 2
Neighs:        0.00000 ave           0 max           0 min
Histogram: 12 0 0 0 0 0 0 0 0 0
FullNghs:  1.11566e+06 ave 1.32568e+06 max 1.05341e+06 min
Histogram: 5 5 0 0 0 0 0 0 1 1

Total # of neighbors = 13387904
Ave neighs/atom = 158.08875
Neighbor list builds = 11997
Dangerous builds = 0
write_data 		data.run_${NAME}
write_data 		data.run_10A_capillary_pres
System init for write_data ...
Total wall time: 1:27:56
