
# Create simulation box of size 270 x 270 x 10 Angstrom
#
lattice	     sc 1
Lattice spacing in x,y,z = 1.0000000 1.0000000 1.0000000
region 	     all block 0 265.788 0 264.7060340242167 0 20 units box
create_box          1 all
Created orthogonal box = (0.0000000 0.0000000 0.0000000) to (265.78800 264.70603 20.000000)
  4 by 3 by 1 MPI processor grid

# Create quasi-2d droplet, with radius of 4.5nm (45 A)
#
region              droplet cylinder z 135 135 45 -0.0 20 units box

# fill box with randomly distributed atoms such that density is ~0.0333 N/A^3
#
create_atoms        1 random 4199 63782 droplet
Created 4199 atoms
  create_atoms CPU = 0.005 seconds
mass                1 18.015

# Define potential
#
pair_style          sw
pair_coeff          * * mW.sw mW
Reading sw potential file mW.sw with DATE: 2019-02-27

# Run minimization
#
minimize            1.0e-8 1.0e-8 10000 1000
WARNING: Using 'neigh_modify every 1 delay 0 check yes' setting during minimization (../min.cpp:187)
Neighbor list info ...
  update every 1 steps, delay 0 steps, check yes
  max neighbors/atom: 2000, page size: 100000
  master list distance cutoff = 6.3065
  ghost atom cutoff = 6.3065
  binsize = 3.15325, bins = 85 84 7
  1 neighbor lists, perpetual/occasional/extra = 1 0 0
  (1) pair sw, perpetual
      attributes: full, newton on
      pair build: full/bin/atomonly
      stencil: full/bin/3d
      bin: standard
Per MPI rank memory allocation (min/avg/max) = 0.4735 | 2.307 | 4.355 Mbytes
Step Temp E_pair E_mol TotEng Press 
       0            0    5644285.3            0    5644285.3    378676.97 
     721            0   -46514.362            0   -46514.362   -8.1693196 
Loop time of 7.1097 on 12 procs for 721 steps with 4199 atoms

97.9% CPU use with 12 MPI tasks x no OpenMP threads

Minimization stats:
  Stopping criterion = max force evaluations
  Energy initial, next-to-last, final = 
      5644285.32148526  -46513.9623783533  -46514.3623196497
  Force two-norm initial, final = 1.2707138e+08 4.5215969
  Force max component initial, final = 65985891.0 0.55472275
  Final line search alpha, max atom move = 0.04111285 0.022806233
  Iterations, force evaluations = 721 1000

MPI task timing breakdown:
Section |  min time  |  avg time  |  max time  |%varavg| %total
---------------------------------------------------------------
Pair    | 7.7071e-05 | 1.0103     | 6.2473     | 223.6 | 14.21
Neigh   | 0.00025942 | 0.022814   | 0.14131    |  33.0 |  0.32
Comm    | 0.0019866  | 1.3737     | 6.9355     | 213.7 | 19.32
Output  | 0          | 0          | 0          |   0.0 |  0.00
Modify  | 0          | 0          | 0          |   0.0 |  0.00
Other   |            | 4.703      |            |       | 66.15

Nlocal:        349.917 ave        2207 max           0 min
Histogram: 10 0 0 0 0 0 0 0 1 1
Nghost:        382.000 ave        2078 max           0 min
Histogram: 8 2 0 0 0 0 0 0 0 2
Neighs:        0.00000 ave           0 max           0 min
Histogram: 12 0 0 0 0 0 0 0 0 0
FullNghs:      10930.5 ave       69707 max           0 min
Histogram: 10 0 0 0 0 0 0 0 1 1

Total # of neighbors = 131166
Ave neighs/atom = 31.237437
Neighbor list builds = 40
Dangerous builds = 0

# Add velocity/set timestep
#
velocity            all create ${TEMP} 120598 rot yes dist gaussian
velocity            all create 225 120598 rot yes dist gaussian
timestep            10.0


##### Equilibrate #####

thermo	            100
thermo_style        custom step temp press vol etotal ke pe

# Neighbor lists
#
neigh_modify        delay 0 every 1 check yes

# Set fixes
#
fix                 1 all momentum 10 linear 1 1 1 rescale
fix                 2 all nve
fix                 3 all temp/csvr ${TEMP} ${TEMP} 500.0 928347
fix                 3 all temp/csvr 225 ${TEMP} 500.0 928347
fix                 3 all temp/csvr 225 225 500.0 928347
fix                 4 all press/berendsen iso ${PRES} ${PRES} 1000.0 modulus 20000
fix                 4 all press/berendsen iso 1 ${PRES} 1000.0 modulus 20000
fix                 4 all press/berendsen iso 1 1 1000.0 modulus 20000

# Run 0.5 ns equilibration
#
dump                1 all custom 1000 eq.${NAME}.dump id type x y z vx vy vz
dump                1 all custom 1000 eq.10A_cylinder.dump id type x y z vx vy vz
run                 50000
Per MPI rank memory allocation (min/avg/max) = 0.4734 | 1.745 | 3.230 Mbytes
Step Temp Press Volume TotEng KinEng PotEng 
     721          225    83.297357    1407113.7   -43698.838    2815.5241   -46514.362 
     800    173.18735   -25.568511    1408217.5   -42041.095    2167.1696   -44208.264 
     900    202.81862   -68.299729      1404355   -41230.938    2537.9588   -43768.897 
    1000    217.75271   -13.780408    1401922.5   -40913.476    2724.8355   -43638.312 
    1100    221.89131    17.223628    1402822.1   -40787.091    2776.6237   -43563.714 
    1200    222.70791    12.326748    1404205.9   -40689.742    2786.8423   -43476.584 
    1300    220.31735   -17.747454    1403144.3     -40835.4    2756.9281   -43592.328 
    1400    221.75238   -12.221796      1402223   -40788.633    2774.8852   -43563.519 
    1500    218.96754    36.308183    1402154.1   -40880.091    2740.0373   -43620.128 
    1600    224.30997    5.0555064    1402591.2   -40764.728    2806.8895   -43571.617 
    1700    222.96222   -8.0609536    1401835.8   -40665.132    2790.0245   -43455.157 
    1800    224.50035    3.3912982    1401300.8   -40720.237    2809.2718   -43529.509 
    1900    220.91092   -32.413031    1401180.4   -40811.139    2764.3556   -43575.495 
    2000    226.62145   -11.445354    1400809.2   -40716.569     2835.814   -43552.383 
    2100    225.96084   -22.791083    1401143.5    -40657.69    2827.5476   -43485.238 
    2200    226.27765   -27.047286    1399827.2   -40631.736    2831.5119   -43463.248 
    2300    225.79635   -7.0875054    1398606.2   -40655.265    2825.4893   -43480.754 
    2400    221.78267     -13.5711    1397971.1   -40649.672    2775.2643   -43424.937 
    2500    224.46343   -34.682098    1398379.6   -40668.628    2808.8098   -43477.437 
    2600    230.32612   -32.995774      1397151   -40595.841    2882.1723   -43478.014 
    2700    230.41111    12.325486    1396182.6   -40523.068    2883.2358   -43406.304 
    2800    223.49012    14.776372    1397003.3    -40574.16    2796.6303    -43370.79 
    2900    229.03627   -6.2202997    1396391.5   -40560.231    2866.0317   -43426.263 
    3000    229.20885   -8.3978556    1394865.5   -40602.466    2868.1913   -43470.658 
    3100    227.69406   -19.840955    1394558.3   -40621.045     2849.236   -43470.281 
    3200    229.16309   -20.095956    1395292.4    -40648.69    2867.6187   -43516.309 
    3300    224.39107   -26.385397    1394068.8   -40698.932    2807.9044   -43506.836 
    3400    224.47466    1.0016511    1393802.2    -40670.92    2808.9504   -43479.871 
    3500    223.93156   -1.3151337    1393367.6   -40705.085    2802.1542   -43507.239 
    3600    224.28255   -21.981724      1392147   -40769.512    2806.5464   -43576.058 
    3700    219.41976   -22.888908    1391632.4   -40763.435    2745.6962   -43509.131 
    3800    222.58034   -2.1101329    1391358.7   -40792.561    2785.2459   -43577.807 
    3900    225.54779    11.376742    1390611.8   -40732.645    2822.3788   -43555.024 
    4000    221.91651   -5.2822509    1389932.8   -40833.061    2776.9391       -43610 
    4100    220.04139    -3.460428    1389338.1    -40778.76    2753.4749   -43532.235 
    4200    224.53669   -15.574708    1388518.6   -40736.337    2809.7265   -43546.064 
    4300    222.06478   -37.590291    1388465.3   -40754.431    2778.7944   -43533.225 
    4400    226.67102   -23.302873    1386770.9   -40762.173    2836.4343   -43598.608 
    4500    230.13229   -1.0165853    1386133.2   -40753.112    2879.7468   -43632.859 
    4600    223.88517    -13.24734    1385613.2   -40766.563    2801.5737   -43568.136 
    4700     226.4134    3.2107744    1385357.8   -40819.957    2833.2106   -43653.168 
    4800    225.00515   -16.515771    1386444.7   -40735.478    2815.5886   -43551.067 
    4900    221.43387   -39.187355      1384286   -40740.657    2770.8996   -43511.557 
    5000    223.42549     9.101528    1384097.7   -40632.499    2795.8216   -43428.321 
    5100    224.98908   -52.597502    1382993.6   -40547.207    2815.3875   -43362.595 
    5200     226.2296    3.5108527    1382365.4   -40637.336    2830.9107   -43468.247 
    5300     219.7611   -23.683557    1382252.7   -40662.429    2749.9675   -43412.396 
    5400     228.6189   -6.1806053    1382302.9   -40638.521     2860.809    -43499.33 
    5500    226.35367   -26.653637    1382036.1   -40641.819    2832.4632   -43474.282 
    5600    225.42121    -23.85974    1380254.2   -40651.456     2820.795   -43472.251 
    5700    222.64302   -1.3913515    1380969.9   -40652.098    2786.0302   -43438.128 
    5800    229.30381   -3.5791135    1380192.9   -40688.436    2869.3796   -43557.815 
    5900     223.5239    11.951997    1378982.9   -40674.132     2797.053   -43471.185 
    6000    221.92383   -19.398906    1378604.6   -40707.645    2777.0307   -43484.676 
    6100    226.51842    20.362252    1378400.4   -40735.564    2834.5248   -43570.089 
    6200    225.83574    3.4609159    1378551.5   -40700.115    2825.9821   -43526.097 
    6300    222.21246     9.665396    1377697.3   -40727.628    2780.6424    -43508.27 
    6400    224.17513    5.2653986    1377012.4   -40725.228    2805.2022    -43530.43 
    6500    226.32791   -14.975238    1376447.8    -40620.05    2832.1408    -43452.19 
    6600      230.592   -14.947824    1375815.9     -40612.5    2885.4993   -43497.999 
    6700    223.01325    2.1535301    1374072.2   -40680.114    2790.6631   -43470.777 
    6800    222.83578      8.95647    1373299.7   -40754.643    2788.4423   -43543.086 
    6900    223.75402   -11.471667    1373941.3   -40646.486    2799.9327   -43446.418 
    7000    228.60849   -16.042553    1372622.3   -40620.911    2860.6787    -43481.59 
    7100    224.31078    2.0590883      1371822   -40678.954    2806.8996   -43485.854 
    7200    226.70884    -4.258262    1371665.2    -40672.54    2836.9076   -43509.447 
    7300    216.38347  -0.53614835    1371233.4   -40776.743    2707.7017   -43484.445 
    7400    222.67059   -6.9622614      1370371   -40767.893    2786.3752   -43554.268 
    7500    224.43056   -12.836679    1370152.7   -40744.552    2808.3985    -43552.95 
    7600    225.84305   0.69177232    1368950.8   -40695.977    2826.0736   -43522.051 
    7700    222.90829    29.253438    1369632.9   -40768.764    2789.3496   -43558.113 
    7800    222.22968   -22.658553    1368967.1   -40661.462    2780.8579    -43442.32 
    7900    226.84723  -0.39106199    1367690.8   -40661.795    2838.6394   -43500.435 
    8000    219.14208   -12.745098    1367880.6    -40759.89    2742.2215   -43502.112 
    8100    221.35934    6.5213823    1367707.4   -40703.392    2769.9669   -43473.359 
    8200    222.35848   -6.3209062    1366699.8   -40780.336    2782.4697   -43562.805 
    8300    218.13298   -15.542737    1366329.8   -40821.113    2729.5941   -43550.707 
    8400    218.32747   -3.7427605      1365726   -40805.375    2732.0278   -43537.403 
    8500    225.85336    12.744704    1365882.4   -40764.012    2826.2026   -43590.215 
    8600    221.91888   -31.247505    1365513.1   -40667.268    2776.9687   -43444.237 
    8700    227.26515    6.8528781    1364374.6   -40632.077    2843.8689   -43475.946 
    8800    225.84937    4.5300363    1364312.1   -40661.807    2826.1526    -43487.96 
    8900    223.97662   -39.117004    1364376.5   -40705.028    2802.7181   -43507.746 
    9000    223.90444    2.9712549    1363198.8   -40719.062     2801.815   -43520.877 
    9100    223.98289    14.051003    1362973.1    -40745.73    2802.7965   -43548.526 
    9200    221.88683   -7.9774014    1362529.4   -40763.672    2776.5677    -43540.24 
    9300    223.15988   -26.727789    1362026.4   -40670.867    2792.4979   -43463.364 
    9400    223.22073   -23.935705      1360681   -40749.383    2793.2593   -43542.642 
    9500    224.69378   -6.4596434    1360171.1   -40669.787    2811.6922   -43481.479 
    9600    221.17817   -12.228314    1360596.4   -40655.669    2767.6999   -43423.369 
    9700    225.91823   -3.5148334    1359831.5   -40597.365    2827.0144    -43424.38 
    9800     228.9467    18.848306      1359337   -40560.285     2864.911   -43425.196 
    9900    221.79634    15.996789    1359539.5   -40645.478    2775.4353   -43420.913 
   10000    220.91472   -18.664874    1359303.6   -40737.066    2764.4032   -43501.469 
   10100    221.36668   -17.543386    1357941.1    -40692.14    2770.0589   -43462.199 
   10200    225.57551   0.67205002      1358073   -40653.893    2822.7257   -43476.619 
   10300    220.09009    -9.462698    1358295.9   -40689.722    2754.0842   -43443.807 
   10400    224.37694    -6.004039    1356938.3   -40649.386    2807.7276   -43457.113 
   10500    223.56851   -22.683742    1356126.6   -40638.767    2797.6112   -43436.378 
   10600    222.48225   0.82280107    1355948.6   -40685.219    2784.0184   -43469.238 
   10700    226.96917    21.880621    1355638.4   -40611.167    2840.1652   -43451.333 
   10800    227.33158    2.9665829    1356094.4   -40587.552    2844.7003   -43432.252 
   10900    227.29242    19.298548    1354628.2    -40584.14    2844.2102    -43428.35 
   11000    230.70261   -3.5456529    1354784.3   -40616.345    2886.8835   -43503.228 
   11100    225.10839   -8.7376413    1353865.4   -40602.083    2816.8804   -43418.963 
   11200    223.98142    14.768222    1353821.4   -40675.873    2802.7782   -43478.651 
   11300    230.29762    3.3894277    1353574.9   -40582.193    2881.8155   -43464.008 
   11400    225.00241   -10.622074    1353150.7   -40647.403    2815.5543   -43462.957 
   11500    227.59778   -3.5310391    1352289.4   -40633.049    2848.0313    -43481.08 
   11600    221.24263   -12.228081    1351499.2   -40704.871    2768.5065   -43473.378 
   11700    224.47106   -42.827274    1350760.8   -40722.998    2808.9053   -43531.904 
   11800    224.96522   -17.036465      1349928   -40593.314    2815.0889   -43408.403 
   11900    222.67147    14.072708    1350039.6   -40684.206    2786.3863   -43470.593 
   12000    223.95045   -16.318402    1349295.6    -40700.62    2802.3907   -43503.011 
   12100    223.52371     10.71057    1348548.2   -40697.055    2797.0506   -43494.106 
   12200    225.25448     1.643999    1347517.3   -40611.647    2818.7086   -43430.356 
   12300    227.55279   -16.603929    1347649.5   -40642.854    2847.4683   -43490.322 
   12400    226.19694    -29.81009    1346456.4   -40643.204    2830.5019   -43473.706 
   12500    228.26991   -3.6965784    1344838.7   -40608.069     2856.442   -43464.511 
   12600    222.97109    -4.047261    1345001.3   -40689.203    2790.1355   -43479.338 
   12700    225.71341  -0.26575472    1345337.5    -40610.55    2824.4513   -43435.002 
   12800    225.85344    -13.18324    1344190.1   -40581.152    2826.2036   -43407.355 
   12900    221.89706   -18.238977    1343384.6   -40578.118    2776.6957   -43354.813 
   13000     221.4853    -18.69387    1343195.9    -40616.76    2771.5431   -43388.304 
   13100    228.21005    3.7070929      1342562   -40490.193    2855.6928   -43345.886 
   13200    227.92089    2.4317458    1342694.2   -40582.611    2852.0745   -43434.685 
   13300    226.90886   -33.192029    1343023.2   -40548.702    2839.4105   -43388.113 
   13400    225.78058   -7.7102886    1341084.8   -40559.102    2825.2919   -43384.393 
   13500    223.63376   -8.5047423    1340318.2   -40657.151    2798.4277   -43455.579 
   13600    222.70229    17.365826    1340528.7   -40708.087    2786.7719   -43494.859 
   13700    224.64018     3.114309    1341268.8   -40736.582    2811.0216   -43547.603 
   13800    229.26803   0.19518478      1340967   -40656.976    2868.9319   -43525.908 
   13900    228.02983   0.83455722    1340514.2   -40630.989    2853.4377   -43484.427 
   14000    227.35931    -23.62657    1340109.7   -40640.946    2845.0472   -43485.993 
   14100    223.41145   -1.9670138    1338467.9   -40612.464    2795.6459    -43408.11 
   14200    222.16218    1.3369513    1338607.4   -40644.584    2780.0133   -43424.597 
   14300    222.63381   -29.493711    1337923.6   -40646.188     2785.915   -43432.103 
   14400    222.02712   -15.666121    1337119.6   -40756.178    2778.3232   -43534.501 
   14500    226.18743   -18.605513    1336690.9   -40692.181     2830.383   -43522.564 
   14600    225.09624    -38.03557    1335630.3   -40634.149    2816.7284   -43450.878 
   14700    223.17208   -3.1127744      1335437   -40669.163    2792.6506   -43461.813 
   14800    224.37015    4.1635415    1335118.7   -40666.164    2807.6425   -43473.807 
   14900    222.37778    18.897396    1335434.5   -40746.921    2782.7112   -43529.632 
   15000    218.92526      1.43102    1334904.6   -40809.901    2739.5082   -43549.409 
   15100    224.11849   -14.802012    1333871.2   -40799.443    2804.4934   -43603.937 
   15200    219.82285   -4.2021331    1332400.3   -40828.831    2750.7402   -43579.571 
   15300    222.87449   0.93996478    1332952.4   -40775.489    2788.9267   -43564.416 
   15400    227.03377   -33.675188    1331796.9   -40763.817    2840.9736   -43604.791 
   15500    225.16977   -15.882228    1331764.5   -40737.419    2817.6485   -43555.068 
   15600    221.89523    -21.16254    1331373.5   -40792.949    2776.6728   -43569.622 
   15700    225.75072     4.230701      1331552    -40685.36    2824.9182   -43510.278 
   15800    217.42025   -11.090049    1330941.5   -40795.277    2720.6753   -43515.952 
   15900    219.57922   -16.429757    1329864.9    -40776.66    2747.6915   -43524.352 
   16000    223.43081     28.49313    1329540.5    -40802.44    2795.8882   -43598.328 
   16100    226.55322    8.9249851    1330694.4   -40684.114    2834.9602   -43519.074 
   16200    223.74999   -25.824848    1328896.6   -40560.424    2799.8822   -43360.307 
   16300    224.41327     5.223622    1328505.7   -40652.911    2808.1821   -43461.093 
   16400    225.69686    5.2663522    1328271.8   -40636.092    2824.2443   -43460.336 
   16500    227.96449    6.1324009    1328758.6   -40510.189    2852.6202    -43362.81 
   16600    228.51558   -18.552915    1328039.8    -40545.35    2859.5162   -43404.866 
   16700    229.04315   -11.121484    1326951.1   -40556.861    2866.1178   -43422.979 
   16800    226.87656   -20.297128    1325779.9   -40614.313    2839.0064   -43453.319 
   16900    224.53627    33.184474    1325894.5    -40645.64    2809.7212   -43455.361 
   17000    225.37469   -29.084531      1326441   -40548.978    2820.2128   -43369.191 
   17100    225.13892   -26.396762    1324948.8   -40583.746    2817.2625   -43401.008 
   17200    233.53194   -11.701587    1324340.3   -40466.208    2922.2881   -43388.497 
   17300    227.34283   -15.647087      1324570   -40544.074    2844.8411   -43388.915 
   17400     220.9636   -4.0659266    1323284.6   -40622.508    2765.0149   -43387.523 
   17500    225.24365    20.827231    1323065.3   -40589.067     2818.573    -43407.64 
   17600    222.24019   -1.9111034    1322655.8   -40676.194    2780.9894   -43457.183 
   17700    231.92665    7.9734328      1322493   -40590.933    2902.2004   -43493.133 
   17800    225.89728   -25.871802    1320784.1   -40687.072    2826.7522   -43513.825 
   17900    226.09741    26.293414    1320153.2   -40671.174    2829.2565    -43500.43 
   18000    223.35322   -26.541177    1320095.2   -40595.219    2794.9173   -43390.137 
   18100    230.82873    -4.543128    1320284.7   -40572.727    2888.4616   -43461.189 
   18200    221.22412    4.8460154    1319968.9   -40681.292    2768.2749   -43449.567 
   18300    223.06187   -14.368718    1319276.3   -40635.691    2791.2715   -43426.963 
   18400    222.25373  -0.35319215      1319011   -40587.804    2781.1589   -43368.963 
   18500     226.0635    4.3243904      1318282   -40604.263    2828.8322   -43433.095 
   18600    226.90445    14.524291    1317473.8   -40637.341    2839.3554   -43476.697 
   18700    223.34461  -0.41550152    1316963.5   -40641.619    2794.8094   -43436.429 
   18800    223.03245    28.568947    1317532.4   -40603.713    2790.9033   -43394.616 
   18900    224.98416   -25.503439    1317115.6   -40587.308     2815.326   -43402.634 
   19000    225.32405    3.5174858    1315885.9   -40615.114    2819.5792   -43434.693 
   19100    226.18297   -17.765293      1315448   -40570.359    2830.3271   -43400.686 
   19200    227.84324   -9.6771205    1315111.1   -40630.352    2851.1029   -43481.455 
   19300     224.2681   -20.489778      1314071   -40590.249    2806.3656   -43396.614 
   19400    229.48338    -13.09634    1313457.9   -40548.457    2871.6267   -43420.084 
   19500    228.95442   -31.632909    1313149.5   -40616.838    2865.0075   -43481.845 
   19600    224.75622   -3.1102069    1312359.2   -40583.129    2812.4736   -43395.603 
   19700    225.40794    1.5598513    1311886.9   -40630.411    2820.6289    -43451.04 
   19800    225.32034   -3.5353212    1311398.8   -40593.035    2819.5327   -43412.568 
   19900    222.07001   -8.3586652    1311138.5   -40649.101    2778.8599   -43427.961 
   20000    224.03393    14.914014      1311482   -40669.018    2803.4353   -43472.453 
   20100    221.95169   -38.801148      1310689    -40670.49    2777.3793   -43447.869 
   20200    221.18911   -14.458898    1309605.3   -40659.931    2767.8368   -43427.768 
   20300    226.18456   0.45979927    1310211.4    -40671.75    2830.3471   -43502.097 
   20400    225.63896   -12.100457    1309930.1   -40706.146    2823.5197   -43529.666 
   20500    224.49529   -23.614669      1308742   -40704.145    2809.2085   -43513.353 
   20600    224.69254   -18.106336    1307335.4   -40684.755    2811.6767   -43496.432 
   20700    223.93504   -12.217608    1306930.8   -40759.736    2802.1978   -43561.934 
   20800    228.05959    -25.51998    1306308.1   -40671.072    2853.8101   -43524.882 
   20900    228.93108   -27.198074    1305644.9    -40706.17    2864.7154   -43570.885 
   21000    221.59044    4.7249762    1305814.1   -40733.315    2772.8588   -43506.174 
   21100    214.53164   -20.858617    1304854.8   -40875.598    2684.5289   -43560.127 
   21200    218.79098  -0.85804315    1304801.6   -40837.299     2737.828   -43575.127 
   21300    225.11143    3.0653231      1304347   -40812.651    2816.9185   -43629.569 
   21400    224.42454   -1.4219981    1302323.7   -40814.868    2808.3232   -43623.191 
   21500    226.90159    11.841299    1302260.2    -40811.06    2839.3195    -43650.38 
   21600    226.86822   -15.365184    1302142.6   -40799.258     2838.902    -43638.16 
   21700    225.44495    22.792509    1301280.2   -40773.513     2821.092   -43594.605 
   21800    224.87357   -20.851234    1301100.6   -40703.959     2813.942   -43517.901 
   21900    224.52185   -8.4757561    1300258.3   -40691.507    2809.5409   -43501.048 
   22000    227.82271    2.6119637    1300368.4   -40713.555    2850.8459   -43564.401 
   22100     225.7566  -0.16276459    1300983.4    -40754.42    2824.9919   -43579.412 
   22200    228.32079   -1.6182933    1300933.2   -40627.242    2857.0787   -43484.321 
   22300    222.46611   -24.138871    1299400.4   -40606.254    2783.8164   -43390.071 
   22400    225.98017    16.470761    1299603.5   -40635.989    2827.7894   -43463.778 
   22500    225.86732    2.1946735      1298886   -40624.654    2826.3773   -43451.032 
   22600    227.31699     7.528184    1297927.8   -40590.705    2844.5177   -43435.223 
   22700    226.52132   -4.0941761    1297222.9   -40617.854    2834.5611   -43452.415 
   22800    224.44424    -6.569443    1297513.4   -40647.075    2808.5696   -43455.645 
   22900    231.93668   -21.833229    1297499.2   -40589.118    2902.3259   -43491.444 
   23000    227.78595   -6.1022173      1296806     -40659.2    2850.3859   -43509.586 
   23100    225.54355   -12.486638    1296326.3   -40626.683    2822.3258   -43449.009 
   23200    221.52118    -39.00207    1295119.6    -40683.58    2771.9921   -43455.573 
   23300    225.40407    3.0180939    1294614.7   -40629.902    2820.5804   -43450.482 
   23400    223.21716    15.303726    1295091.6   -40667.044    2793.2146   -43460.259 
   23500    228.98528    18.140427    1294697.1   -40607.122    2865.3938   -43472.516 
   23600    223.04913   -1.9422941    1294377.9   -40677.934     2791.112   -43469.046 
   23700    227.97296    9.7536923    1293855.6   -40648.077    2852.7262   -43500.804 
   23800    223.38846   -20.545162    1293575.8   -40670.811    2795.3582   -43466.169 
   23900    225.81918   -19.774395      1292961   -40770.227    2825.7749   -43596.002 
   24000    222.02577   -18.142213    1291238.5   -40730.266    2778.3063   -43508.572 
   24100    223.54906    6.5309615      1290888   -40651.528    2797.3679   -43448.896 
   24200    223.78584   -17.067108    1290742.7   -40737.204    2800.3308   -43537.535 
   24300    220.61382   -15.359989    1290699.3   -40770.628     2760.638   -43531.266 
   24400    227.70063    36.034324    1290746.1   -40723.931    2849.3182   -43573.249 
   24500    222.39603   -26.455017    1289887.7   -40783.394    2782.9395   -43566.334 
   24600    225.79045    5.1493328    1289628.7   -40736.988    2825.4154   -43562.404 
   24700    225.33526   -30.085507    1289171.8   -40730.384    2819.7194   -43550.104 
   24800    222.93171   -21.967251    1288199.8    -40756.97    2789.6427   -43546.613 
   24900    226.85966    20.812319    1287879.4   -40767.892    2838.7949   -43606.687 
   25000    226.80913   -4.7574052    1286792.3   -40702.407    2838.1625   -43540.569 
   25100     225.0169   -14.146266    1285900.3   -40668.648    2815.7356   -43484.384 
   25200    224.60098    14.197859    1284962.4   -40683.219    2810.5311    -43493.75 
   25300    222.51367   -1.6031234    1285055.6   -40694.568    2784.4116    -43478.98 
   25400    224.78005   -3.7865115    1285765.7   -40623.132    2812.7719   -43435.903 
   25500    228.13941   -36.541832    1284345.6   -40617.628     2854.809   -43472.437 
   25600    224.34918     19.91875    1283815.4   -40593.124    2807.3801   -43400.504 
   25700    228.69824   -14.727033    1283787.3     -40664.8    2861.8018   -43526.602 
   25800     222.4655   -30.948509    1282679.2   -40681.975    2783.8088   -43465.784 
   25900    222.61377    17.274093    1282337.8   -40671.801    2785.6642   -43457.465 
   26000    225.71461   -11.153312    1282105.4   -40632.971    2824.4664   -43457.437 
   26100    228.72262    17.232265    1282028.5   -40559.206    2862.1069   -43421.313 
   26200    224.06056   -30.101937    1280941.5    -40627.04    2803.7685   -43430.809 
   26300    227.53817   -23.441146    1280497.5   -40633.286    2847.2853   -43480.572 
   26400    225.86932   -23.444103    1280355.8   -40600.303    2826.4023   -43426.706 
   26500     226.7375    11.495045    1279192.9   -40563.589    2837.2662   -43400.855 
   26600    226.62949    1.1816557    1278765.5   -40637.212    2835.9147   -43473.127 
   26700    222.89035    -25.03131    1278400.7   -40673.172    2789.1252   -43462.297 
   26800    221.98461    2.6974234    1277575.6   -40649.581    2777.7912   -43427.372 
   26900    226.64754   -21.434785    1276750.8   -40615.073    2836.1405   -43451.213 
   27000    221.84394   -2.0658654    1276774.3   -40636.517     2776.031   -43412.548 
   27100    221.81538      -19.561    1276269.4   -40659.761    2775.6736   -43435.435 
   27200     223.7065    -3.237329      1275108   -40645.261    2799.3381   -43444.599 
   27300    222.27812   -4.2785705    1275584.2   -40635.936    2781.4641     -43417.4 
   27400    224.02113    32.204285    1274911.9   -40678.011    2803.2751   -43481.286 
   27500    226.80309    -16.23636    1274681.9   -40544.758     2838.087   -43382.845 
   27600    227.99429   -31.257521    1274850.2   -40550.178     2852.993   -43403.171 
   27700    224.61814    -8.288963    1274018.6   -40599.936    2810.7457   -43410.682 
   27800    224.66706   -32.889356    1272939.6   -40637.795    2811.3579   -43449.153 
   27900    228.42777   -4.8052605    1272536.8   -40563.393    2858.4173    -43421.81 
   28000    226.87948   -28.380951      1271984   -40662.325    2839.0429   -43501.367 
   28100    223.68163     2.219907    1270850.1   -40668.441    2799.0268   -43467.468 
   28200    231.82905   -1.7871039    1270957.2   -40627.663     2900.979   -43528.642 
   28300    225.96753   -1.2357931    1271635.6   -40710.918    2827.6313   -43538.549 
   28400    222.02511   -5.6034196    1270255.4   -40666.136     2778.298   -43444.434 
   28500    222.65422    3.9040164    1269507.2    -40782.59    2786.1704    -43568.76 
   28600    222.54358    11.144557    1269234.6   -40821.466    2784.7858   -43606.252 
   28700    225.21035   -26.870862    1268803.4   -40689.416    2818.1563   -43507.572 
   28800    223.06761    6.2496695    1267820.1   -40709.324    2791.3433   -43500.668 
   28900    226.04941  -0.86117363    1268329.6   -40663.525    2828.6559   -43492.181 
   29000    226.33352   -10.407126    1267436.9    -40616.45    2832.2111   -43448.661 
   29100    220.11885    8.4745441    1267096.6   -40684.707    2754.4442   -43439.151 
   29200    226.20881   -17.534428    1266665.2   -40549.823    2830.6505   -43380.474 
   29300    226.26723   -12.122385    1266608.4   -40543.426    2831.3815   -43374.808 
   29400    226.62787   -17.682721    1266062.7   -40658.402    2835.8944   -43494.297 
   29500    220.95003    29.530859    1265187.6   -40727.555    2764.8451     -43492.4 
   29600    224.35868   -9.5534844    1265530.5   -40717.028     2807.499   -43524.527 
   29700    224.28437   -16.494958    1265426.3   -40568.521    2806.5691    -43375.09 
   29800    223.38245   -6.8448344    1264456.3   -40650.655     2795.283   -43445.938 
   29900    227.00216   0.99466904    1263123.4   -40670.269    2840.5781   -43510.847 
   30000    221.76183   -18.639719    1262893.2   -40665.231    2775.0035   -43440.235 
   30100    222.56036   -10.137953    1262662.9    -40631.94    2784.9959   -43416.936 
   30200    224.09117   -3.4231444    1261828.1   -40653.229    2804.1516    -43457.38 
   30300    222.92982   -14.312723    1261337.4   -40662.291    2789.6191    -43451.91 
   30400    226.39054    7.2180483      1260793     -40610.4    2832.9246   -43443.324 
   30500    229.31833   -33.906232    1260163.3   -40576.242    2869.5613   -43445.804 
   30600    226.44846   -12.279826    1258564.4   -40612.737    2833.6494   -43446.386 
   30700    229.45345    11.970309      1258329   -40639.746    2871.2521   -43510.999 
   30800    225.72742  -0.39107672    1257699.2   -40635.794    2824.6266    -43460.42 
   30900    226.76458   -18.629967    1257554.6   -40608.258    2837.6051   -43445.863 
   31000     222.2278   -14.403185    1256210.6   -40725.309    2780.8344   -43506.143 
   31100    225.76755   -16.256879    1256181.9   -40765.768    2825.1289   -43590.897 
   31200    221.82228    17.421391    1256033.3   -40716.647    2775.7599   -43492.407 
   31300    221.28583   -31.737785    1255703.1   -40768.075    2769.0471   -43537.122 
   31400    225.22057   -22.371476    1254836.7   -40658.684    2818.2842   -43476.969 
   31500    221.61963   -34.560636    1254458.9   -40623.592    2773.2241   -43396.816 
   31600    227.34858   -18.255196    1254028.3    -40634.19    2844.9129   -43479.103 
   31700    222.14897    15.565095    1252981.1   -40640.577    2779.8479   -43420.425 
   31800    225.27975    3.6727783    1253454.1   -40647.827    2819.0247   -43466.851 
   31900    228.37112    10.279801    1253400.3    -40576.11    2857.7085   -43433.819 
   32000     226.2614      -31.906    1252468.7   -40568.285    2831.3086   -43399.594 
   32100    226.67656    1.7962328    1251476.4   -40577.931    2836.5037   -43414.434 
   32200     225.2931   -17.693533    1251413.7   -40565.784    2819.1918   -43384.976 
   32300    229.12537   -36.673914    1251369.1   -40550.796    2867.1467   -43417.943 
   32400     222.4113   -2.2612736    1250557.1   -40554.569    2783.1306   -43337.699 
   32500    224.60619   -8.2603673    1249418.1   -40599.259    2810.5963   -43409.855 
   32600    225.88131    4.9246781    1248786.4   -40625.695    2826.5523   -43452.248 
   32700    225.76264    -20.50693    1248668.5   -40623.246    2825.0674   -43448.313 
   32800    227.92438    -24.48577    1247859.1   -40660.441    2852.1182   -43512.559 
   32900    222.93354   -9.2209993    1247085.2   -40732.324    2789.6657    -43521.99 
   33000    218.80345   -15.251956    1246703.5    -40744.17     2737.984   -43482.154 
   33100    222.86141   -26.663314    1246106.1   -40732.693     2788.763   -43521.456 
   33200    226.35827   -4.3521456    1245063.4   -40625.767    2832.5208   -43458.287 
   33300    229.28907   -22.372164    1244986.2   -40664.384    2869.1951   -43533.579 
   33400    230.57023   -30.925612    1244432.1   -40674.049    2885.2269   -43559.276 
   33500    224.87015    3.0535352    1242750.1   -40710.062    2813.8993   -43523.962 
   33600    222.25641  -0.45162739    1243370.6   -40737.909    2781.1924   -43519.101 
   33700    222.15524   -34.364726    1242107.8   -40651.357    2779.9264   -43431.284 
   33800    221.71333   0.58650137    1241144.6   -40620.993    2774.3966    -43395.39 
   33900    222.20731    5.3214826    1241208.2   -40592.168     2780.578   -43372.746 
   34000     230.4607   -3.5819498    1241211.6   -40604.904    2883.8563    -43488.76 
   34100    223.75631   -13.865646    1240384.6   -40653.343    2799.9613   -43453.304 
   34200    227.11575   -3.2470688    1240117.8   -40673.663    2841.9995   -43515.662 
   34300    225.02355   -19.467825    1239529.6   -40674.064    2815.8188   -43489.883 
   34400    222.55324   -10.652629    1239232.3   -40717.261    2784.9068   -43502.168 
   34500     223.9871   -23.587779    1238821.8   -40660.726    2802.8492   -43463.575 
   34600    224.51163    4.9927149    1238170.8   -40644.941     2809.413   -43454.354 
   34700    230.51351    13.493918    1237704.7   -40674.597    2884.5171   -43559.114 
   34800    224.27797   -1.5027136    1236742.2   -40764.145    2806.4891   -43570.634 
   34900    220.91285   -21.231793    1237045.1   -40802.252    2764.3798   -43566.632 
   35000    223.21678    8.4584644    1236053.6   -40760.656    2793.2099   -43553.866 
   35100    221.42388     -9.75668    1235366.2   -40870.341    2770.7746   -43641.116 
   35200    226.17316   0.47879222    1235215.5   -40768.968    2830.2044   -43599.173 
   35300     223.8456   -5.3567755    1235070.5    -40777.51    2801.0786   -43578.589 
   35400    224.40595    15.350563    1233796.3   -40785.375    2808.0905   -43593.466 
   35500    224.79798   -7.7374425    1233413.4   -40744.181    2812.9961   -43557.177 
   35600    230.23239   0.68246133    1233048.6   -40639.768    2880.9994   -43520.768 
   35700    220.42796   -27.521987    1232042.8   -40692.592    2758.3122   -43450.904 
   35800    225.78197   -16.456607      1231132   -40658.532    2825.3093   -43483.841 
   35900    228.44133   -27.618792    1231575.7   -40713.054     2858.587    -43571.64 
   36000    229.71878    6.2191665    1230283.8   -40653.179    2874.5723   -43527.751 
   36100     225.2159   -45.434652    1229393.8   -40619.605    2818.2258   -43437.831 
   36200    229.60429   -4.9103492    1229162.5   -40649.341    2873.1396   -43522.481 
   36300    223.45694    2.8982608    1228676.3   -40668.729    2796.2152   -43464.944 
   36400    221.35622   -4.8674382    1228344.8   -40699.117    2769.9279   -43469.044 
   36500    226.48929   -40.926001    1227818.1   -40604.878    2834.1603   -43439.038 
   36600    222.96771    6.4510864    1227248.7   -40640.206    2790.0931   -43430.299 
   36700    221.08888    29.655344    1227280.7   -40762.837    2766.5826    -43529.42 
   36800    227.65635    -4.546717      1227122   -40668.954    2848.7642   -43517.718 
   36900    223.95501   -17.269657    1226152.9   -40722.288    2802.4477   -43524.736 
   37000    226.43986   0.22628456    1224650.9   -40750.903    2833.5417   -43584.444 
   37100     223.6128   -8.2683427    1224932.1   -40684.665    2798.1654    -43482.83 
   37200    224.97958   -7.4636081      1224186   -40687.587    2815.2686   -43502.855 
   37300     220.0852    12.326309    1223533.2   -40728.881    2754.0231   -43482.904 
   37400    219.44566   -3.4917876    1223616.4   -40740.284    2746.0202   -43486.304 
   37500    227.96659   -4.5399714    1223022.8   -40745.656    2852.6464   -43598.302 
   37600    219.58368    -5.723135      1221741   -40796.907    2747.7473   -43544.654 
   37700    229.79586   -2.2465992    1221180.2   -40711.486    2875.5369   -43587.023 
   37800    222.14229   -17.595898    1221115.2   -40774.914    2779.7643   -43554.678 
   37900    221.54205    -24.81196    1219960.8   -40821.479    2772.2533   -43593.732 
   38000    223.48227    6.0163299    1219225.6   -40714.331    2796.5321   -43510.863 
   38100    222.88939    16.091432    1220663.6   -40662.531    2789.1132   -43451.644 
   38200    228.13022   -55.379636    1219906.9   -40610.468     2854.694   -43465.162 
   38300    225.40395   -2.8670827    1218235.2   -40669.436    2820.5789   -43490.015 
   38400    226.80549    12.469719    1218068.1    -40601.79    2838.1171   -43439.907 
   38500     223.2887   -5.9865752    1217929.8   -40730.133    2794.1099   -43524.242 
   38600    228.19765    10.602608    1217331.4   -40738.457    2855.5377   -43593.995 
   38700    226.64939   -20.254572    1217355.6   -40644.302    2836.1637   -43480.466 
   38800    226.92378    11.598861    1216803.2   -40688.507    2839.5973   -43528.104 
   38900     226.0218    5.7335303    1216219.7   -40700.777    2828.3103   -43529.087 
   39000    227.99985   -19.092513    1215648.8   -40695.119    2853.0626   -43548.181 
   39100    226.88323   -21.811507    1215314.1   -40731.236    2839.0899   -43570.326 
   39200    227.71695   -20.652769    1214465.3   -40687.304    2849.5226   -43536.827 
   39300    221.43662   -38.885113    1212986.4    -40724.28     2770.934   -43495.214 
   39400    227.45619   -11.307952    1213181.2   -40683.484    2846.2595   -43529.744 
   39500    228.81128   -6.7711654    1213485.5   -40641.464    2863.2164    -43504.68 
   39600    227.50823   -23.691799      1211297   -40570.563    2846.9107   -43417.474 
   39700    224.64627   -3.3789356    1210409.3   -40666.041    2811.0977   -43477.138 
   39800    225.44905   -5.1073523    1210781.6   -40647.579    2821.1433   -43468.722 
   39900    224.88146   -8.7971145    1210300.6   -40717.119    2814.0408    -43531.16 
   40000    227.39008   -15.954309    1209704.8   -40733.421    2845.4322   -43578.853 
   40100     227.4487   -5.9651431    1209493.3   -40758.919    2846.1657   -43605.085 
   40200    225.17789   -33.167146    1208921.3     -40675.1    2817.7502    -43492.85 
   40300    225.43556   -36.873797    1207822.6   -40669.177    2820.9745   -43490.152 
   40400    226.55689    13.919162    1207850.6    -40617.78    2835.0062   -43452.787 
   40500    228.58873   -11.946871    1207832.1   -40541.839    2860.4315    -43402.27 
   40600    224.09443    -25.77946      1206532   -40635.292    2804.1923   -43439.485 
   40700     224.3454   -6.6995297    1206175.8   -40677.599    2807.3328   -43484.932 
   40800    228.07452    11.858793    1205871.4   -40693.667     2853.997   -43547.664 
   40900     222.7713   -29.541247    1204483.8   -40778.405    2787.6354    -43566.04 
   41000    224.30643     18.50021    1203746.2   -40732.559    2806.8451   -43539.404 
   41100    225.64231   -14.427848    1204426.4   -40642.148    2823.5616    -43465.71 
   41200    229.97867   -22.146638    1204443.3   -40683.298    2877.8245   -43561.123 
   41300    217.59886   -6.8406456    1204437.2   -40765.513    2722.9104   -43488.423 
   41400    219.25835   -4.2797485    1203705.9   -40826.631    2743.6763   -43570.308 
   41500    224.16288   -9.8697815    1203283.7   -40765.571    2805.0489    -43570.62 
   41600    224.61824   -22.897884    1202832.7   -40751.149    2810.7469   -43561.896 
   41700    226.20355    -5.982613    1200911.7   -40729.103    2830.5847   -43559.688 
   41800    223.66661    12.291227    1201405.1   -40760.611    2798.8389    -43559.45 
   41900    219.03944   -44.372151    1200471.1   -40718.519    2740.9371   -43459.456 
   42000    224.21756    8.4083116    1199814.4   -40691.098    2805.7331   -43496.831 
   42100    223.40865    2.6609453    1200108.7   -40729.017    2795.6108   -43524.628 
   42200    225.43988   -8.5226975      1199771   -40644.215    2821.0285   -43465.244 
   42300    228.67623   -27.023631    1198622.6   -40574.393    2861.5264    -43435.92 
   42400    229.60672   -1.2840867    1198161.2   -40641.815      2873.17   -43514.985 
   42500    225.80991     7.372762    1197190.8   -40647.712    2825.6588   -43473.371 
   42600    226.58111   -11.941546    1197651.4   -40638.399    2835.3092   -43473.709 
   42700    225.93459   -13.629424    1197524.6   -40697.366     2827.219   -43524.585 
   42800    224.74517   -23.692969    1195803.9   -40675.689    2812.3354   -43488.024 
   42900    225.11412   -33.929184    1195384.2   -40653.069    2816.9522   -43470.021 
   43000    224.94119    5.8933212    1195467.3   -40727.478    2814.7882   -43542.267 
   43100     223.9468   -20.813658    1195318.6   -40710.842    2802.3449   -43513.187 
   43200    224.84219   -7.8708763    1194215.9   -40665.909    2813.5493   -43479.458 
   43300     225.7879   -2.2228946    1194331.6   -40630.721    2825.3835   -43456.105 
   43400    221.60264    10.799233    1193650.4   -40680.892    2773.0114   -43453.903 
   43500    231.79065    19.633875    1193841.3   -40612.005    2900.4985   -43512.503 
   43600    222.96252   -28.448822    1192803.6    -40583.69    2790.0282   -43373.718 
   43700    232.49176    4.1706348    1191564.5   -40471.387    2909.2718   -43380.659 
   43800    224.00688   -2.3599297      1191576   -40542.202    2803.0968   -43345.299 
   43900    223.96996   -3.8893744    1189918.2   -40542.913    2802.6348   -43345.547 
   44000    226.97195    6.4212084    1189786.7    -40558.25    2840.2001    -43398.45 
   44100    224.78401   -29.216287    1190218.6   -40605.616    2812.8214   -43418.437 
   44200    228.16007   -6.0650647    1189555.2    -40624.84    2855.0675   -43479.908 
   44300    224.00365   -35.309683    1189440.1   -40658.729    2803.0564   -43461.785 
   44400    222.12796   -30.547979    1188116.6   -40633.099    2779.5851   -43412.684 
   44500    222.32165   -7.1378371    1187178.1   -40585.828    2782.0087   -43367.836 
   44600    221.67186    4.2611163    1187001.6     -40629.3    2773.8776   -43403.177 
   44700     223.3356   -4.3467984    1187222.1   -40745.507    2794.6968   -43540.204 
   44800    227.11969     5.302222    1185846.1    -40657.82    2842.0487   -43499.869 
   44900    222.49777    14.358324    1185898.4   -40629.152    2784.2127   -43413.365 
   45000    228.03796   -11.842096    1185536.5   -40556.012    2853.5395   -43409.552 
   45100     224.3362   -31.468475      1184580   -40587.016    2807.2177   -43394.234 
   45200    228.59778   -7.0770288    1184828.2   -40514.929    2860.5447   -43375.474 
   45300    226.73685    -8.825058    1184141.6   -40580.181    2837.2581   -43417.439 
   45400    224.73745   -21.307453    1183388.2   -40634.312    2812.2387   -43446.551 
   45500    227.30988    2.6331595    1183080.8    -40614.51    2844.4286   -43458.939 
   45600    225.53533    -4.000006    1183019.4   -40684.821     2822.223   -43507.044 
   45700    225.71447   -6.0551726    1181864.4   -40677.079    2824.4646   -43501.544 
   45800    228.20456   -9.7497807    1182479.3   -40668.766    2855.6242   -43524.391 
   45900    227.68297   -16.078555    1181108.7   -40628.337    2849.0973   -43477.434 
   46000    231.96009   -1.9263106    1180215.9   -40588.752    2902.6188    -43491.37 
   46100    226.32011   -10.552843    1180056.9   -40583.855    2832.0432   -43415.898 
   46200    229.19507   -21.247618    1179061.6   -40493.181    2868.0189     -43361.2 
   46300     232.8737   -2.5674893    1178645.6   -40532.007    2914.0512   -43446.059 
   46400    228.78513   -9.8296784    1177796.7   -40583.357    2862.8892   -43446.247 
   46500    230.21264    18.034386    1177739.4   -40550.163    2880.7522   -43430.916 
   46600    224.73248   -10.099818    1177986.8   -40585.532    2812.1765   -43397.709 
   46700    226.40727    7.7192016      1176676   -40609.537    2833.1339   -43442.671 
   46800    220.59506   -1.5323428    1176522.4   -40747.402    2760.4032   -43507.806 
   46900    224.11332    5.9623653    1176771.1   -40735.187    2804.4287   -43539.616 
   47000    225.63205   -21.947052    1175050.9   -40633.953    2823.4333   -43457.386 
   47100    226.17075   -5.8029543    1173825.8   -40632.945    2830.1743    -43463.12 
   47200    228.88108   -18.437119    1173653.4   -40634.974    2864.0899   -43499.064 
   47300    225.84006   -8.6660795      1173554     -40687.8    2826.0361   -43513.836 
   47400    226.94957    12.547139    1173401.1   -40685.793    2839.9199   -43525.713 
   47500    223.89294   -41.467396      1171779   -40617.746     2801.671   -43419.417 
   47600    227.20927   -2.1863746    1170645.4   -40557.623    2843.1697   -43400.793 
   47700    231.31497   -6.9215661    1170128.4   -40502.582    2894.5462   -43397.128 
   47800    226.45601   -19.558515    1170330.6    -40560.52    2833.7439   -43394.264 
   47900    228.83903   -2.4552218    1169652.8   -40567.297    2863.5636   -43430.861 
   48000    224.37195   -6.4624692    1169131.5   -40739.796     2807.665   -43547.461 
   48100    222.92279   -9.2751777    1168778.4   -40690.637    2789.5311   -43480.168 
   48200    220.41266   -42.738925    1168238.5   -40624.957    2758.1208   -43383.078 
   48300    222.40528    23.930954    1168012.7   -40585.942    2783.0553   -43368.998 
   48400    226.10939   -21.244923    1167548.2   -40578.293    2829.4065     -43407.7 
   48500    225.81681   -40.705561    1166905.7   -40534.325    2825.7452   -43360.071 
   48600    223.10932    9.5510541    1166380.8   -40650.332    2791.8652   -43442.198 
   48700    227.37041    9.5208212    1166161.3   -40570.963    2845.1862   -43416.149 
   48800    220.05097    25.189483    1165596.3   -40599.009    2753.5947   -43352.603 
   48900    226.57021   -28.590288    1164391.1   -40604.321    2835.1728   -43439.494 
   49000    222.92247   -12.407349    1164308.5   -40628.711    2789.5271   -43418.238 
   49100    226.79411     17.68568    1163333.6   -40609.744    2837.9747   -43447.718 
   49200    226.15389   -2.5550029    1163286.3   -40665.152    2829.9632   -43495.116 
   49300    223.60467    14.769509    1163167.7   -40630.639    2798.0637   -43428.703 
   49400    227.06247     4.508611    1162779.3   -40546.709    2841.3327   -43388.042 
   49500    225.97005   -17.530014    1162486.7   -40558.523    2827.6628   -43386.186 
   49600    230.32435   -39.690963    1161008.3   -40596.493    2882.1501   -43478.643 
   49700    224.81794   -39.545738      1159426   -40674.577    2813.2459   -43487.822 
   49800    229.13717   -5.3642619    1159825.8   -40644.287    2867.2944   -43511.582 
   49900    220.32079      -32.759      1159486   -40703.396    2756.9711   -43460.367 
   50000    231.64394    29.056345      1158570   -40608.578    2898.6627   -43507.241 
   50100    226.27603   -18.598634      1158455   -40677.506    2831.4917   -43508.997 
   50200    228.30401   -32.031756    1157725.4   -40705.921    2856.8686    -43562.79 
   50300    221.67887   -5.7379757    1157382.3   -40723.518    2773.9653   -43497.483 
   50400    228.25178    1.0056886    1157049.7   -40629.571    2856.2151   -43485.786 
   50500    227.20804     -22.2016    1156471.7   -40722.586    2843.1543   -43565.741 
   50600    228.42911    10.322298    1155777.4   -40718.839    2858.4341   -43577.274 
   50700     225.2634   0.61609256    1154297.4    -40728.82    2818.8201    -43547.64 
   50721    222.79041   -4.1041557    1154250.1   -40721.579    2787.8746   -43509.454 
Loop time of 335.843 on 12 procs for 50000 steps with 4199 atoms

Performance: 128.631 ns/day, 0.187 hours/ns, 148.879 timesteps/s
98.5% CPU use with 12 MPI tasks x no OpenMP threads

MPI task timing breakdown:
Section |  min time  |  avg time  |  max time  |%varavg| %total
---------------------------------------------------------------
Pair    | 0.0071967  | 46.279     | 290.73     |1498.3 | 13.78
Neigh   | 0.040543   | 3.56       | 21.961     | 408.6 |  1.06
Comm    | 0.65717    | 100.48     | 318.22     |1333.5 | 29.92
Output  | 0.30244    | 0.30955    | 0.324      |   0.9 |  0.09
Modify  | 11.129     | 182.03     | 331.49     |1118.9 | 54.20
Other   |            | 3.185      |            |       |  0.95

Nlocal:        349.917 ave        2139 max           0 min
Histogram: 10 0 0 0 0 0 0 0 0 2
Nghost:        423.083 ave        2138 max           0 min
Histogram: 7 3 0 0 0 0 0 0 0 2
Neighs:        0.00000 ave           0 max           0 min
Histogram: 12 0 0 0 0 0 0 0 0 0
FullNghs:      11135.0 ave       68741 max           0 min
Histogram: 10 0 0 0 0 0 0 0 0 2

Total # of neighbors = 133620
Ave neighs/atom = 31.821862
Neighbor list builds = 6032
Dangerous builds = 0
write_data data.${NAME}
write_data data.10A_cylinder
System init for write_data ...

##### Turn of thermostat and barostat and run ######

unfix 3
unfix 4
undump 1

dump                2 all custom 1000 eq.${NAME}.dump id type x y z vx vy vz
dump                2 all custom 1000 eq.10A_cylinder.dump id type x y z vx vy vz

run                 100000
Per MPI rank memory allocation (min/avg/max) = 0.4765 | 1.811 | 3.234 Mbytes
Step Temp Press Volume TotEng KinEng PotEng 
   50721    222.79041    -4.064222    1154250.1   -40721.584    2787.8746   -43509.459 
   50800    221.48716    6.3274891    1154250.1   -40721.495    2771.5665   -43493.062 
   50900    226.27859   -33.644899    1154250.1   -40723.611    2831.5237   -43555.135 
   51000    220.64552    -12.58446    1154250.1   -40721.348    2761.0346   -43482.382 
   51100    222.67009   0.13160098    1154250.1    -40721.98    2786.3689   -43508.349 
   51200    223.41467    18.947038    1154250.1   -40721.487    2795.6862   -43517.173 
   51300    225.69198   -47.656497    1154250.1   -40722.657    2824.1832    -43546.84 
   51400    224.64058   -26.193738    1154250.1   -40722.462    2811.0265   -43533.488 
   51500    224.78812    40.190044    1154250.1   -40722.861    2812.8728   -43535.734 
   51600    222.41819    13.228166    1154250.1   -40721.544    2783.2168   -43504.761 
   51700    218.53285   -61.989151    1154250.1   -40720.811    2734.5978   -43455.408 
   51800    223.18622   -7.6150375    1154250.1   -40722.282    2792.8275    -43515.11 
   51900    225.75776   -24.616025    1154250.1   -40722.395    2825.0063   -43547.402 
   52000    223.03081    -51.53376    1154250.1   -40721.948    2790.8828    -43512.83 
   52100    223.49749    27.341648    1154250.1   -40722.953    2796.7226   -43519.675 
   52200    224.11528   -19.779746    1154250.1   -40722.279    2804.4532   -43526.732 
   52300    219.59331   -45.518037    1154250.1   -40722.325    2747.8679   -43470.193 
   52400    223.13788   -16.054543    1154250.1   -40722.183    2792.2226   -43514.405 
   52500    221.65645   -19.738753    1154250.1   -40721.855    2773.6848    -43495.54 
   52600    223.86823    18.716461    1154250.1   -40723.052    2801.3618   -43524.414 
   52700     220.8866    15.521168    1154250.1   -40721.807    2764.0513   -43485.858 
   52800    220.03825   -56.060818    1154250.1   -40721.912    2753.4355   -43475.348 
   52900    224.70408     15.03196    1154250.1   -40722.001    2811.8211   -43533.822 
   53000    220.86586   -29.886904    1154250.1   -40722.267    2763.7918   -43486.058 
   53100    224.71011   -15.386326    1154250.1   -40722.731    2811.8966   -43534.628 
   53200    219.73588   -10.808881    1154250.1   -40721.567    2749.6519   -43471.219 
   53300    223.15729    19.062745    1154250.1   -40721.956    2792.4655   -43514.422 
   53400    227.12992    41.165875    1154250.1   -40722.877    2842.1767   -43565.054 
   53500    223.04914    -57.48747    1154250.1   -40721.971    2791.1122   -43513.083 
   53600    228.34581   -7.3575579    1154250.1   -40722.753    2857.3917   -43580.145 
   53700    222.49453   -11.940743    1154250.1   -40721.943    2784.1721   -43506.115 
   53800    228.38021    1.6014951    1154250.1   -40722.583    2857.8222   -43580.405 
   53900    228.61847   -5.4461728    1154250.1    -40723.03    2860.8037   -43583.834 
   54000    224.44574   -30.222441    1154250.1   -40722.675    2808.5884   -43531.263 
   54100    224.53829   -14.683653    1154250.1   -40721.656    2809.7466   -43531.402 
   54200    228.96157    5.8397275    1154250.1   -40723.655     2865.097   -43588.752 
   54300    224.04483   -15.474577    1154250.1   -40722.145    2803.5716   -43525.717 
   54400    230.19157   -2.4928967    1154250.1   -40723.373    2880.4885   -43603.862 
   54500    228.04821    -10.34913    1154250.1   -40721.925    2853.6677   -43575.593 
   54600    223.46116    -11.31901    1154250.1    -40721.97    2796.2679   -43518.238 
   54700    227.75581   -19.180957    1154250.1   -40722.401    2850.0088    -43572.41 
   54800    224.58871   -10.704333    1154250.1   -40721.876    2810.3775   -43532.253 
   54900    226.04682    8.7380906    1154250.1   -40723.485    2828.6234   -43552.109 
   55000    226.36775   -5.9789891    1154250.1   -40722.149    2832.6393   -43554.788 
   55100    223.85205   -14.325091    1154250.1   -40722.551    2801.1593   -43523.711 
   55200    220.73931   -7.4987993    1154250.1   -40723.031    2762.2082   -43485.239 
   55300    223.97856    24.208722    1154250.1   -40722.248    2802.7424    -43524.99 
   55400    223.45857   -11.467861    1154250.1   -40721.323    2796.2356   -43517.559 
   55500    225.81105   -14.912651    1154250.1   -40722.829    2825.6731   -43548.502 
   55600    228.74209   -12.072133    1154250.1   -40723.053    2862.3506   -43585.403 
   55700    225.34836   -21.117984    1154250.1   -40722.595    2819.8833   -43542.478 
   55800     224.1957    19.559775    1154250.1   -40721.723    2805.4595   -43527.182 
   55900    222.60323   -28.134394    1154250.1   -40722.752    2785.5323   -43508.284 
   56000    224.62166    22.682982    1154250.1   -40722.242    2810.7898   -43533.032 
   56100      225.971    10.960363    1154250.1   -40722.598    2827.6747   -43550.272 
   56200    225.98587   -28.797534    1154250.1   -40722.558    2827.8608   -43550.419 
   56300    224.77447   -19.695976    1154250.1   -40722.056     2812.702   -43534.758 
   56400    225.24405    5.2527939    1154250.1   -40722.016     2818.578   -43540.594 
   56500    225.27038   -8.8841351    1154250.1   -40723.068    2818.9075   -43541.976 
   56600    227.16124   -27.530241    1154250.1   -40722.773    2842.5687   -43565.341 
   56700    228.69381   -4.4780583    1154250.1   -40722.513    2861.7464    -43584.26 
   56800    226.06347   -26.487044    1154250.1   -40722.467    2828.8318   -43551.299 
   56900    226.16176   -9.1720541    1154250.1   -40722.757    2830.0617   -43552.819 
   57000    227.23881   -6.2280845    1154250.1   -40722.812    2843.5393   -43566.351 
   57100    227.68135   -29.475046    1154250.1    -40722.76     2849.077   -43571.837 
   57200    224.84168   -30.639303    1154250.1    -40722.06     2813.543   -43535.603 
   57300    226.57139    1.1693128    1154250.1   -40723.643    2835.1877    -43558.83 
   57400     222.0952    15.536457    1154250.1   -40721.985     2779.175    -43501.16 
   57500    225.26017   -10.912281    1154250.1   -40722.489    2818.7797   -43541.269 
   57600    222.92735   -44.044901    1154250.1   -40722.644    2789.5881   -43512.232 
   57700      225.886   -24.001091    1154250.1   -40722.156    2826.6111   -43548.767 
   57800    223.27896    35.340325    1154250.1   -40722.261     2793.988   -43516.249 
   57900    229.06674    15.952966    1154250.1   -40723.647     2866.413    -43590.06 
   58000    223.15077   -10.358795    1154250.1   -40722.749    2792.3839   -43515.133 
   58100    221.12505     -53.0868    1154250.1   -40722.885    2767.0351    -43489.92 
   58200    219.64521    11.440965    1154250.1   -40722.004    2748.5173   -43470.521 
   58300     225.4975    11.947155    1154250.1   -40722.597    2821.7495   -43544.347 
   58400    224.17108   0.17357394    1154250.1   -40722.475    2805.1515   -43527.626 
   58500    224.33756    -46.91217    1154250.1   -40722.533    2807.2348   -43529.768 
   58600    226.25417    11.848506    1154250.1   -40722.921    2831.2181   -43554.139 
   58700     223.3661   -1.2066658    1154250.1   -40721.753    2795.0784   -43516.832 
   58800    226.53132   -8.8138241    1154250.1   -40722.526    2834.6863   -43557.212 
   58900     220.9632   -15.543336    1154250.1   -40722.163    2765.0099   -43487.173 
   59000    224.08799    48.468515    1154250.1   -40722.471    2804.1117   -43526.583 
   59100    224.14344    36.455521    1154250.1   -40721.963    2804.8057   -43526.769 
   59200    223.60777   -52.776459    1154250.1    -40721.63    2798.1025   -43519.733 
   59300    227.32805   -27.944707    1154250.1   -40722.885     2844.656   -43567.541 
   59400    226.81404    31.083569    1154250.1   -40723.097     2838.224   -43561.321 
   59500    224.77711   -12.800253    1154250.1   -40722.106     2812.735   -43534.841 
   59600    226.96321   -5.2883793    1154250.1   -40722.867    2840.0906   -43562.958 
   59700    224.00322   -4.2346875    1154250.1   -40722.444    2803.0509   -43525.495 
   59800    225.62917    18.386012    1154250.1   -40722.147    2823.3972   -43545.544 
   59900    222.52157   0.43703303    1154250.1   -40721.453    2784.5105   -43505.963 
   60000    223.69683   -24.833359    1154250.1   -40722.228     2799.217   -43521.445 
   60100    223.86453   -30.106196    1154250.1   -40721.762    2801.3155   -43523.078 
   60200    224.38291   -21.753642    1154250.1    -40721.81    2807.8023   -43529.612 
   60300    225.97896    4.3411464    1154250.1   -40722.449    2827.7743   -43550.223 
   60400    227.68546    10.457404    1154250.1   -40722.721    2849.1285    -43571.85 
   60500    222.70681   -40.680393    1154250.1   -40721.937    2786.8285   -43508.765 
   60600    226.09448   -17.116364    1154250.1    -40722.05    2829.2198    -43551.27 
   60700    225.78692    15.523947    1154250.1   -40722.532    2825.3712   -43547.904 
   60800    224.61411   -40.058133    1154250.1   -40722.395    2810.6953   -43533.091 
   60900    220.27271    3.2765756    1154250.1   -40722.243    2756.3695   -43478.613 
   61000    224.53527    8.0960693    1154250.1   -40723.206    2809.7088   -43532.915 
   61100     225.1239   -5.3969905    1154250.1   -40722.316    2817.0746   -43539.391 
   61200    222.23131   -17.628717    1154250.1   -40722.316    2780.8784   -43503.194 
   61300    224.41342    2.9672304    1154250.1   -40722.901     2808.184   -43531.085 
   61400    230.09627   -1.3890497    1154250.1   -40723.509     2879.296   -43602.805 
   61500    225.21375   -25.120316    1154250.1   -40722.224    2818.1989   -43540.423 
   61600    224.33049   -28.525152    1154250.1   -40721.346    2807.1463   -43528.492 
   61700    221.78501     8.348927    1154250.1   -40722.381    2775.2936   -43497.675 
   61800    226.40324    10.166986    1154250.1   -40723.059    2833.0835   -43556.143 
   61900    224.11096   -21.247918    1154250.1   -40722.207    2804.3992   -43526.606 
   62000     228.3572   -4.6410505    1154250.1   -40723.333    2857.5342   -43580.867 
   62100    224.94708   -17.833412    1154250.1   -40721.582     2814.862   -43536.444 
   62200    225.45048   -8.9726921    1154250.1   -40721.919    2821.1612    -43543.08 
   62300    224.86371   -2.7397365    1154250.1   -40722.529    2813.8186   -43536.348 
   62400    222.98147    3.1014621    1154250.1   -40721.652    2790.2654   -43511.917 
   62500    223.71121    15.985285    1154250.1   -40722.706    2799.3969   -43522.103 
   62600    225.37523   -13.242351    1154250.1   -40722.617    2820.2195   -43542.836 
   62700    225.93698   -33.556003    1154250.1   -40722.522    2827.2489   -43549.771 
   62800     223.3458   -19.228436    1154250.1   -40721.777    2794.8244   -43516.601 
   62900    228.09869    8.8239874    1154250.1   -40722.869    2854.2994   -43577.169 
   63000    225.50984   -2.5531898    1154250.1   -40722.844     2821.904   -43544.748 
   63100    223.99701   -20.101456    1154250.1   -40722.685    2802.9733   -43525.659 
   63200    222.07101   -5.1006058    1154250.1   -40721.558    2778.8724    -43500.43 
   63300    225.32295    16.145814    1154250.1   -40722.592    2819.5654   -43542.157 
   63400    219.81727    -24.81649    1154250.1   -40721.792    2750.6703   -43472.462 
   63500    221.54847    6.8664539    1154250.1   -40722.786    2772.3336   -43495.119 
   63600    226.70755   -25.358826    1154250.1   -40722.999    2836.8914    -43559.89 
   63700     220.4984   -9.1216772    1154250.1   -40720.835    2759.1936   -43480.028 
   63800    221.31463   -7.2571795    1154250.1   -40721.911    2769.4074   -43491.318 
   63900    221.26073    9.0745818    1154250.1    -40722.03    2768.7329   -43490.763 
   64000    222.02618    30.410992    1154250.1   -40721.881    2778.3114   -43500.193 
   64100    222.61616   -51.472546    1154250.1     -40722.5    2785.6941   -43508.194 
   64200    225.13371   -14.250571    1154250.1   -40723.237    2817.1972   -43540.434 
   64300    226.75566    14.702688    1154250.1   -40722.841    2837.4935   -43560.335 
   64400    226.15179    -27.21855    1154250.1   -40721.646     2829.937   -43551.583 
   64500    226.21698   -6.7039057    1154250.1   -40724.308    2830.7527    -43555.06 
   64600    226.80281    29.427368    1154250.1   -40723.492    2838.0835   -43561.576 
   64700    223.80065   -9.9350341    1154250.1   -40722.104    2800.5162    -43522.62 
   64800    225.22107    5.4719916    1154250.1   -40721.625    2818.2904   -43539.915 
   64900    226.85451   -19.703777    1154250.1   -40722.503    2838.7304   -43561.234 
   65000    222.29627 -0.099672445    1154250.1   -40722.174    2781.6912   -43503.865 
   65100    226.55399   -5.3839903    1154250.1   -40722.447    2834.9699   -43557.417 
   65200    226.32379   -21.220789    1154250.1   -40722.858    2832.0893   -43554.947 
   65300    220.42646   -21.535298    1154250.1   -40721.188    2758.2934   -43479.481 
   65400    225.47944     -31.1612    1154250.1   -40721.868    2821.5236   -43543.392 
   65500    228.67599   -2.4752969    1154250.1   -40722.793    2861.5234   -43584.317 
   65600    224.60786    14.592869    1154250.1   -40721.461    2810.6171   -43532.078 
   65700    227.56583   -49.781901    1154250.1   -40722.301    2847.6315   -43569.933 
   65800    224.32021    -14.49702    1154250.1   -40722.257    2807.0177   -43529.274 
   65900    223.39542   -8.2999628    1154250.1   -40722.077    2795.4453   -43517.522 
   66000    222.77648    29.485501    1154250.1   -40722.064    2787.7003   -43509.765 
   66100     223.0122   -47.377894    1154250.1   -40722.318    2790.6499   -43512.967 
   66200    226.24429    -13.27262    1154250.1   -40722.584    2831.0945   -43553.679 
   66300    224.64182    7.2818557    1154250.1   -40722.926    2811.0421   -43533.969 
   66400    217.15731   -0.7278259    1154250.1   -40721.155    2717.3851    -43438.54 
   66500    224.72219   -22.211877    1154250.1   -40721.912    2812.0478    -43533.96 
   66600    220.57207   -4.3991408    1154250.1   -40721.941    2760.1155   -43482.057 
   66700    227.36799   -29.463833    1154250.1   -40722.674    2845.1559    -43567.83 
   66800    222.89727   -33.236562    1154250.1   -40723.062    2789.2117   -43512.274 
   66900     224.4971    23.150479    1154250.1   -40722.519    2809.2311    -43531.75 
   67000    226.07414   -40.876255    1154250.1    -40723.92    2828.9653   -43552.885 
   67100    222.18761   -39.620195    1154250.1   -40722.039    2780.3314    -43502.37 
   67200    226.32268    -6.393609    1154250.1   -40722.531    2832.0754   -43554.606 
   67300    224.86264   -11.892346    1154250.1   -40721.831    2813.8052   -43535.636 
   67400     224.6981   -66.522033    1154250.1   -40722.376    2811.7464   -43534.123 
   67500    223.69136    15.440104    1154250.1   -40721.861    2799.1486    -43521.01 
   67600    225.28058    11.589441    1154250.1    -40722.53    2819.0351   -43541.566 
   67700    223.60232   -43.670184    1154250.1   -40722.459    2798.0343   -43520.493 
   67800    218.19875   -24.621397    1154250.1   -40721.555    2730.4171   -43451.972 
   67900    223.35044   -1.0707984    1154250.1   -40721.723    2794.8824   -43516.605 
   68000    226.36992   -3.3358471    1154250.1   -40722.507    2832.6665   -43555.174 
   68100    226.93462      3.52016    1154250.1   -40722.673    2839.7328   -43562.406 
   68200     219.7668   -23.329196    1154250.1   -40721.825    2750.0388   -43471.864 
   68300    223.81005   -37.868023    1154250.1    -40722.38    2800.6338   -43523.013 
   68400    223.72709    30.394653    1154250.1   -40721.998    2799.5957   -43521.593 
   68500    224.03027    15.657566    1154250.1   -40721.956    2803.3895   -43525.346 
   68600    224.24626   -15.275457    1154250.1   -40722.997    2806.0922   -43529.089 
   68700     225.7943   -2.0928283    1154250.1   -40722.666    2825.4635    -43548.13 
   68800    224.50544   -27.951862    1154250.1   -40722.354    2809.3355   -43531.689 
   68900    225.83939   -5.3556331    1154250.1   -40723.451    2826.0278   -43549.479 
   69000     225.7655   -17.041373    1154250.1   -40722.563    2825.1032   -43547.666 
   69100    219.97242   -3.3261286    1154250.1   -40722.129    2752.6118   -43474.741 
   69200    224.17316   -19.599587    1154250.1   -40722.755    2805.1775   -43527.932 
   69300    224.07156    21.669232    1154250.1   -40722.691    2803.9062   -43526.597 
   69400    222.68242    8.8609433    1154250.1   -40722.233    2786.5232   -43508.757 
   69500    222.24758   -15.798004    1154250.1   -40722.338    2781.0819    -43503.42 
   69600    222.98541    -32.85765    1154250.1   -40722.745    2790.3147    -43513.06 
   69700     223.8504   -2.3406524    1154250.1   -40721.775    2801.1387   -43522.914 
   69800    229.14821    17.814786    1154250.1   -40723.569    2867.4325   -43591.002 
   69900    225.38992    -20.49411    1154250.1     -40722.4    2820.4033   -43542.803 
   70000    225.36171    -46.79113    1154250.1   -40722.574    2820.0504   -43542.624 
   70100    222.56539    18.491408    1154250.1   -40722.224    2785.0588   -43507.283 
   70200    222.89244     9.877739    1154250.1   -40722.048    2789.1513   -43511.199 
   70300    221.20273   -34.098529    1154250.1   -40722.004    2768.0072   -43490.011 
   70400    227.88222    3.4677778    1154250.1   -40722.928    2851.5906   -43574.519 
   70500    225.28489   -4.1753221    1154250.1   -40722.281    2819.0891    -43541.37 
   70600    229.22787    3.2916464    1154250.1   -40723.412    2868.4294   -43591.842 
   70700    223.16189   -14.536606    1154250.1   -40721.645     2792.523   -43514.168 
   70800    224.69449   -23.517283    1154250.1   -40722.303    2811.7012   -43534.004 
   70900    226.69618    26.198826    1154250.1   -40723.049    2836.7492   -43559.799 
   71000    222.18891   -21.477425    1154250.1   -40721.739    2780.3477   -43502.087 
   71100    227.84428      -13.895    1154250.1   -40722.995    2851.1158   -43574.111 
   71200    225.88922   -5.2975132    1154250.1   -40723.192    2826.6514   -43549.844 
   71300    223.09139   0.95310192    1154250.1    -40722.16    2791.6408     -43513.8 
   71400    223.01183   -47.338961    1154250.1   -40722.589    2790.6453   -43513.234 
   71500     228.2054    11.960427    1154250.1   -40722.585    2855.6347   -43578.219 
   71600    226.02685    -19.86868    1154250.1   -40722.811    2828.3735   -43551.185 
   71700    222.65856    4.8389399    1154250.1    -40721.21    2786.2247   -43507.435 
   71800    221.01336    3.6544848    1154250.1   -40722.405    2765.6376   -43488.042 
   71900    228.26109    -26.66021    1154250.1   -40722.688    2856.3316    -43579.02 
   72000    225.36604    5.3087462    1154250.1   -40722.471    2820.1045   -43542.575 
   72100    223.40905    18.512009    1154250.1   -40722.025    2795.6158   -43517.641 
   72200    222.79961   -23.324764    1154250.1   -40722.481    2787.9897   -43510.471 
   72300    223.23937   -7.6117589    1154250.1   -40723.338    2793.4926   -43516.831 
   72400    224.68948    -31.12528    1154250.1   -40722.421    2811.6384    -43534.06 
   72500    225.73163    31.681215    1154250.1   -40722.225    2824.6793   -43546.905 
   72600    229.14016   -18.050758    1154250.1   -40723.455    2867.3317   -43590.787 
   72700    224.54018   -60.080501    1154250.1    -40722.46    2809.7702    -43532.23 
   72800    224.56992   -1.4533012    1154250.1   -40721.875    2810.1423   -43532.018 
   72900    219.44396    6.0091377    1154250.1   -40721.508    2745.9989   -43467.507 
   73000    221.99982   -16.690228    1154250.1   -40722.082    2777.9816   -43500.064 
   73100    227.76128    33.029197    1154250.1   -40723.702    2850.0773   -43573.779 
   73200    227.40292    -44.04643    1154250.1   -40723.762     2845.593   -43569.355 
   73300    224.25463    22.324372    1154250.1   -40722.185     2806.197   -43528.382 
   73400      225.594    16.184657    1154250.1   -40722.498    2822.9571   -43545.455 
   73500    224.43692   -7.8485158    1154250.1   -40722.613    2808.4781   -43531.091 
   73600    224.10698    1.8134338    1154250.1   -40722.718    2804.3494   -43527.068 
   73700    221.95555    20.891159    1154250.1   -40722.278    2777.4276   -43499.706 
   73800    224.05014   -10.953986    1154250.1   -40722.742    2803.6381    -43526.38 
   73900    219.97473   -19.449215    1154250.1   -40721.562    2752.6407   -43474.202 
   74000    221.61496   -10.388305    1154250.1   -40721.572    2773.1656   -43494.738 
   74100    225.64154    34.954636    1154250.1   -40722.797     2823.552   -43546.349 
   74200    222.12732   -13.382219    1154250.1   -40721.238     2779.577   -43500.815 
   74300    223.02779    37.012638    1154250.1   -40721.757     2790.845   -43512.602 
   74400    223.32998    4.4743562    1154250.1   -40721.969    2794.6265   -43516.595 
   74500    225.21954   -31.427209    1154250.1   -40722.451    2818.2713   -43540.722 
   74600    226.80018    -33.02498    1154250.1   -40722.184    2838.0506   -43560.235 
   74700    224.58744   -15.215801    1154250.1   -40721.755    2810.3616   -43532.116 
   74800    226.46258    2.3643183    1154250.1   -40722.959    2833.8261   -43556.785 
   74900    224.92665   -6.6715575    1154250.1   -40723.086    2814.6063   -43537.692 
   75000    227.90709    25.537442    1154250.1   -40721.975    2851.9018   -43573.877 
   75100    221.03881     8.864609    1154250.1   -40721.967     2765.956   -43487.923 
   75200    217.63685    18.624559    1154250.1   -40721.708    2723.3858   -43445.094 
   75300    221.34008    26.451602    1154250.1    -40722.34    2769.7259   -43492.065 
   75400    224.20764   -17.888911    1154250.1   -40723.084     2805.609   -43528.693 
   75500    223.82343    -20.87611    1154250.1   -40723.481    2800.8011   -43524.283 
   75600    223.84889   -24.674187    1154250.1   -40722.315    2801.1197   -43523.434 
   75700     221.1385   -25.956215    1154250.1   -40721.652    2767.2035   -43488.856 
   75800    224.22225   -9.8376162    1154250.1   -40722.367    2805.7918   -43528.159 
   75900    218.08859   -10.987935    1154250.1   -40721.682    2729.0386   -43450.721 
   76000    224.48128    27.711809    1154250.1   -40723.021    2809.0332   -43532.054 
   76100    218.22134  -0.53070713    1154250.1   -40721.068    2730.6997   -43451.768 
   76200    222.17439   -18.604992    1154250.1   -40721.854     2780.166    -43502.02 
   76300    225.20519   -16.034003    1154250.1   -40722.856    2818.0918   -43540.948 
   76400    221.90428   -1.4565332    1154250.1   -40721.601     2776.786   -43498.387 
   76500      222.994   -27.030588    1154250.1   -40721.326    2790.4222   -43511.748 
   76600     220.9867   -26.925151    1154250.1   -40722.298    2765.3039   -43487.601 
   76700    223.84086   -23.760475    1154250.1   -40721.976    2801.0194   -43522.996 
   76800    225.87181   -17.308835    1154250.1   -40722.659    2826.4335   -43549.092 
   76900    220.46489    63.475158    1154250.1   -40721.245    2758.7743   -43480.019 
   77000    224.01466    32.114828    1154250.1   -40722.017    2803.1941   -43525.211 
   77100    224.04867    -76.83857    1154250.1   -40722.444    2803.6197   -43526.064 
   77200     222.3731   -9.5022861    1154250.1   -40722.674    2782.6526   -43505.327 
   77300    222.80668   -10.809053    1154250.1    -40722.39    2788.0781   -43510.468 
   77400    225.89081    18.988218    1154250.1     -40722.8    2826.6712   -43549.471 
   77500     227.9536   -3.4845174    1154250.1   -40722.947    2852.4838   -43575.431 
   77600    221.88067  -0.81876961    1154250.1    -40722.02    2776.4906   -43498.511 
   77700    230.30832   -7.5594316    1154250.1   -40722.501    2881.9495    -43604.45 
   77800    222.28787   -15.575937    1154250.1   -40721.028    2781.5861   -43502.614 
   77900    226.96816    1.0735407    1154250.1   -40722.018    2840.1526   -43562.171 
   78000      222.584   -9.1524764    1154250.1   -40722.135    2785.2917   -43507.427 
   78100    225.73802    -26.08799    1154250.1   -40722.766    2824.7593   -43547.525 
   78200    226.34241   -9.0717075    1154250.1   -40723.502    2832.3223   -43555.824 
   78300    222.82249    9.2490083    1154250.1   -40721.641     2788.276   -43509.917 
   78400    221.75755   -16.104701    1154250.1   -40722.422      2774.95   -43497.372 
   78500    226.84899    14.585137    1154250.1   -40722.243    2838.6614   -43560.905 
   78600    225.15569   -7.2208771    1154250.1   -40721.707    2817.4724   -43539.179 
   78700    220.06209   -47.383692    1154250.1   -40721.835    2753.7339   -43475.569 
   78800     225.1438    5.6025877    1154250.1   -40722.526    2817.3236   -43539.849 
   78900    221.36181    5.4902355    1154250.1    -40721.84    2769.9978   -43491.837 
   79000    223.01288   -20.225717    1154250.1   -40722.551    2790.6585   -43513.209 
   79100    222.28065   -12.284824    1154250.1   -40721.762    2781.4957   -43503.258 
   79200    219.97448   -7.5016984    1154250.1   -40721.459    2752.6376   -43474.096 
   79300     222.3432   -31.682719    1154250.1   -40722.314    2782.2785   -43504.593 
   79400    228.19234   -18.619018    1154250.1   -40723.196    2855.4712   -43578.667 
   79500    222.50511    32.077545    1154250.1   -40721.822    2784.3044   -43506.126 
   79600      223.356   -11.132776    1154250.1   -40721.727     2794.952   -43516.679 
   79700    226.84178   -23.229311    1154250.1   -40722.683    2838.5712   -43561.254 
   79800    221.29257     -14.8328    1154250.1   -40721.002    2769.1314   -43490.134 
   79900    222.48847   -30.840285    1154250.1   -40721.946    2784.0963   -43506.043 
   80000    218.52507    -21.99103    1154250.1   -40721.243    2734.5004   -43455.744 
   80100    224.06235   -10.915744    1154250.1   -40722.548    2803.7909   -43526.338 
   80200    225.79221    -7.967969    1154250.1   -40723.163    2825.4374   -43548.601 
   80300    224.93469    24.629122    1154250.1   -40722.871    2814.7069   -43537.577 
   80400    221.38675   -17.610113    1154250.1    -40721.53    2770.3099    -43491.84 
   80500    222.91483   -10.002793    1154250.1   -40722.168    2789.4315     -43511.6 
   80600    221.60455  -0.37887896    1154250.1   -40721.647    2773.0353   -43494.682 
   80700    226.65138    3.8959665    1154250.1   -40722.045    2836.1886   -43558.233 
   80800    224.89953    10.281849    1154250.1   -40723.144    2814.2669   -43537.411 
   80900     227.3073    -15.81483    1154250.1   -40723.529    2844.3964   -43567.925 
   81000    218.93878       21.892    1154250.1   -40721.598    2739.6774   -43461.275 
   81100    221.59737   0.63653239    1154250.1   -40722.683    2772.9456   -43495.629 
   81200    223.45161    8.0636748    1154250.1   -40721.649    2796.1484   -43517.798 
   81300    222.32795   -22.784927    1154250.1   -40721.793    2782.0876   -43503.881 
   81400    221.55872   -15.947526    1154250.1   -40722.388    2772.4618    -43494.85 
   81500    225.14921    7.4869307    1154250.1    -40722.06    2817.3912   -43539.451 
   81600    221.89463   -2.5456561    1154250.1   -40722.006    2776.6653   -43498.671 
   81700    223.67648   -35.711839    1154250.1   -40721.956    2798.9624   -43520.918 
   81800    219.63291   -15.163845    1154250.1   -40721.649    2748.3633   -43470.012 
   81900    221.91661   -33.236564    1154250.1    -40721.53    2776.9403   -43498.471 
   82000    225.86695    16.659936    1154250.1   -40722.403    2826.3727   -43548.776 
   82100     226.0379    28.933208    1154250.1   -40722.672    2828.5118   -43551.184 
   82200    224.03763   -46.114941    1154250.1    -40721.91    2803.4816   -43525.391 
   82300    224.90572   -1.9227003    1154250.1   -40723.529    2814.3444   -43537.873 
   82400    222.80997    25.208006    1154250.1   -40722.126    2788.1194   -43510.245 
   82500    227.90832   -11.267718    1154250.1   -40723.098    2851.9172   -43575.015 
   82600     227.6395   -41.203946    1154250.1   -40722.616    2848.5534   -43571.169 
   82700     219.2514   -11.825214    1154250.1   -40720.967    2743.5894   -43464.557 
   82800    227.33442    25.903679    1154250.1   -40723.078    2844.7357   -43567.814 
   82900    223.09912   -40.726807    1154250.1   -40722.104    2791.7376   -43513.842 
   83000    227.87759   -2.6923206    1154250.1    -40722.75    2851.5327   -43574.282 
   83100    224.95901   -16.660182    1154250.1    -40722.82    2815.0112   -43537.831 
   83200    228.61894   -23.801595    1154250.1   -40722.755    2860.8095   -43583.564 
   83300    227.91759   -12.634244    1154250.1   -40721.829    2852.0332   -43573.862 
   83400    223.04285    28.417051    1154250.1   -40721.683    2791.0335   -43512.717 
   83500    227.63843   -22.989331    1154250.1   -40722.187    2848.5399   -43570.727 
   83600    227.69877    -12.71266    1154250.1   -40723.134     2849.295   -43572.429 
   83700     226.3583   -33.087526    1154250.1    -40722.43    2832.5212   -43554.951 
   83800    223.88906    -5.572771    1154250.1   -40721.873    2801.6224   -43523.496 
   83900    229.43389   -28.373347    1154250.1   -40723.148    2871.0074   -43594.155 
   84000    225.16472   -2.9817386    1154250.1   -40722.714    2817.5853   -43540.299 
   84100    224.16657   -5.5594524    1154250.1   -40722.051     2805.095   -43527.146 
   84200    228.25413   -43.336709    1154250.1   -40723.478    2856.2445   -43579.723 
   84300    226.66408    25.784454    1154250.1   -40722.175    2836.3476   -43558.522 
   84400    225.33284    9.5504733    1154250.1   -40723.376    2819.6891   -43543.065 
[...]
  129700    224.69846   -23.642256    1154250.1    -40722.53    2811.7508   -43534.281 
  129800    227.18155   -2.3419857    1154250.1   -40722.415    2842.8228   -43565.237 
  129900    226.67794    16.223107    1154250.1   -40722.542    2836.5209   -43559.063 
  130000    219.26291   -27.563641    1154250.1   -40721.679    2743.7334   -43465.412 
  130100    221.99084    14.945721    1154250.1   -40722.489    2777.8692   -43500.358 
  130200    224.61936    9.0775514    1154250.1   -40722.145     2810.761   -43532.906 
  130300    224.94788   -15.792417    1154250.1   -40722.251    2814.8719   -43537.122 
  130400     225.8573   -15.689193    1154250.1    -40722.38    2826.2519   -43548.632 
  130500    223.71994     31.15209    1154250.1   -40722.969    2799.5062   -43522.475 
  130600    226.11827   -24.519803    1154250.1   -40722.042    2829.5176    -43551.56 
  130700    219.59146    0.1313104    1154250.1   -40720.954    2747.8447   -43468.798 
  130800    223.60565   -2.6905316    1154250.1   -40722.418    2798.0761   -43520.494 
  130900    223.86239   -19.489638    1154250.1   -40722.536    2801.2888   -43523.825 
  131000     227.6865   -38.879705    1154250.1    -40722.59    2849.1415   -43571.731 
  131100    227.90228    22.685545    1154250.1   -40722.808    2851.8416    -43574.65 
  131200     223.7306    5.9608406    1154250.1   -40721.651    2799.6395   -43521.291 
  131300    222.13428    4.9652242    1154250.1    -40721.47    2779.6641   -43501.134 
  131400     222.8779   -34.078038    1154250.1   -40721.664    2788.9693   -43510.634 
  131500    225.09416     40.24965    1154250.1   -40722.395    2816.7023   -43539.097 
  131600     224.3941    17.672583    1154250.1   -40722.542    2807.9422   -43530.485 
  131700    227.19064   -10.059641    1154250.1   -40723.772    2842.9366   -43566.709 
  131800    225.42151   -20.731378    1154250.1   -40722.716    2820.7986   -43543.515 
  131900     222.5237    25.953113    1154250.1    -40721.97    2784.5371   -43506.508 
  132000    221.78628    12.650085    1154250.1   -40721.873    2775.3094   -43497.183 
  132100    224.67824   -24.585507    1154250.1   -40722.323    2811.4978    -43533.82 
  132200     225.6506   -45.964818    1154250.1   -40722.827    2823.6654   -43546.492 
  132300    225.58109   -19.268758    1154250.1     -40721.6    2822.7955   -43544.395 
  132400    223.63625    5.1696509    1154250.1   -40721.696    2798.4589   -43520.155 
  132500    224.25779   -3.8470156    1154250.1    -40721.58    2806.2365   -43527.817 
  132600    221.53839    15.388771    1154250.1   -40721.653    2772.2075   -43493.861 
  132700     225.2091   -40.497557    1154250.1   -40722.069    2818.1407   -43540.209 
  132800    225.22704    -31.06542    1154250.1   -40722.735    2818.3651     -43541.1 
  132900    225.63207   -36.196429    1154250.1   -40722.272    2823.4334   -43545.706 
  133000    223.45586  -0.82106241    1154250.1   -40722.394    2796.2016   -43518.596 
  133100    226.09181    21.309651    1154250.1   -40722.384    2829.1864   -43551.571 
  133200    223.65593   -23.503968    1154250.1    -40722.31    2798.7052   -43521.015 
  133300    222.51831    -20.11872    1154250.1   -40722.198    2784.4696   -43506.667 
  133400    220.31546    32.942091    1154250.1   -40721.848    2756.9044   -43478.752 
  133500    226.73398    -11.41219    1154250.1    -40723.15    2837.2222   -43560.372 
  133600    224.92278    2.2906936    1154250.1   -40723.264    2814.5579   -43537.822 
  133700    221.40227    18.782778    1154250.1   -40721.876    2770.5041    -43492.38 
  133800    221.12779   -10.314071    1154250.1   -40721.093    2767.0695   -43488.162 
  133900    226.35766    2.6690685    1154250.1   -40722.713    2832.5131   -43555.226 
  134000    220.80056   -34.790601    1154250.1   -40721.371    2762.9747   -43484.346 
  134100    228.45481    23.265712    1154250.1   -40722.749    2858.7557   -43581.505 
  134200    225.46181   -21.527757    1154250.1   -40722.653    2821.3029   -43543.956 
  134300    225.07988   -9.3808931    1154250.1   -40721.656    2816.5237    -43538.18 
  134400    223.16903   -24.058785    1154250.1   -40721.437    2792.6124    -43514.05 
  134500    223.25866   -15.314491    1154250.1   -40721.441     2793.734   -43515.175 
  134600    226.14313    3.8908917    1154250.1   -40722.676    2829.8286   -43552.505 
  134700    224.67258    -4.659523    1154250.1    -40722.49     2811.427   -43533.917 
  134800    225.58791   -10.158607    1154250.1   -40722.604    2822.8809   -43545.485 
  134900    223.22302   -9.8521841    1154250.1   -40721.658     2793.288   -43514.946 
  135000    221.15857   -12.593571    1154250.1    -40721.58    2767.4546   -43489.035 
  135100    224.54543   -36.740247    1154250.1   -40722.355    2809.8359    -43532.19 
  135200    226.57672     -7.63117    1154250.1   -40722.941    2835.2544   -43558.196 
  135300    225.48107    23.735969    1154250.1   -40722.517    2821.5439   -43544.061 
  135400    224.02762     18.30904    1154250.1   -40722.316    2803.3563   -43525.672 
  135500    218.71079   -35.203198    1154250.1   -40721.583    2736.8245   -43458.408 
  135600    223.09224   -25.794777    1154250.1   -40721.242    2791.6515   -43512.893 
  135700    223.98098  0.046580795    1154250.1   -40722.225    2802.7726   -43524.997 
  135800    220.07474    40.247636    1154250.1   -40721.077    2753.8921    -43474.97 
  135900    220.01781   -13.959502    1154250.1   -40721.144    2753.1798   -43474.324 
  136000    224.03335    -33.49949    1154250.1   -40722.779     2803.428   -43526.207 
  136100    223.55715    35.104452    1154250.1   -40721.815    2797.4691   -43519.284 
  136200    224.23526    6.7496877    1154250.1   -40721.666    2805.9546    -43527.62 
  136300    223.28077   -37.132008    1154250.1    -40721.82    2794.0107    -43515.83 
  136400    222.52059   -27.612074    1154250.1   -40721.954    2784.4982   -43506.452 
  136500    224.71772   -2.6775521    1154250.1   -40722.127    2811.9919   -43534.119 
  136600    223.92933   -6.1744564    1154250.1   -40722.215    2802.1263   -43524.341 
  136700    225.50392   -32.154955    1154250.1   -40722.361      2821.83   -43544.191 
  136800    223.84048    20.982281    1154250.1   -40723.054    2801.0145   -43524.069 
  136900     224.9388    18.958057    1154250.1   -40721.837    2814.7583   -43536.595 
  137000    223.90293   -19.555974    1154250.1   -40721.659     2801.796   -43523.455 
  137100     225.8104   -24.434603    1154250.1   -40721.821     2825.665   -43547.486 
  137200    225.46081    22.211537    1154250.1    -40721.75    2821.2905    -43543.04 
  137300     224.2036   -12.929854    1154250.1   -40722.045    2805.5585   -43527.603 
  137400    226.45371   0.60431187    1154250.1   -40722.418     2833.715   -43556.133 
  137500    222.99114   -17.236892    1154250.1   -40722.008    2790.3864   -43512.395 
  137600     224.6361   -7.3547567    1154250.1   -40721.946    2810.9705   -43532.917 
  137700     223.7259   -24.556105    1154250.1   -40722.602    2799.5807   -43522.183 
  137800     227.9532   -21.049922    1154250.1    -40722.88    2852.4788   -43575.359 
  137900    226.71446   -4.3444068    1154250.1   -40722.215    2836.9779   -43559.193 
  138000    226.54401    1.1576466    1154250.1   -40722.609     2834.845   -43557.454 
  138100    220.61876    -35.79848    1154250.1   -40721.459    2760.6998   -43482.159 
  138200    227.43525    6.2390667    1154250.1   -40722.326    2845.9975   -43568.323 
  138300    224.33918   -8.7825899    1154250.1   -40722.666    2807.2551   -43529.921 
  138400    224.00896   -10.296917    1154250.1   -40722.111    2803.1228   -43525.234 
  138500    224.73722   -11.469576    1154250.1    -40721.31    2812.2359   -43533.546 
  138600    223.26189    2.7993315    1154250.1   -40722.157    2793.7744   -43515.931 
  138700    222.44411    7.6094248    1154250.1   -40722.035    2783.5412   -43505.576 
  138800     226.3488   -1.8204105    1154250.1   -40722.431    2832.4023   -43554.833 
  138900    228.01729    14.436062    1154250.1   -40723.016    2853.2808   -43576.296 
  139000    224.60625   -17.302626    1154250.1   -40722.308     2810.597   -43532.905 
  139100    226.08503   -42.286197    1154250.1    -40722.19    2829.1016   -43551.291 
  139200    218.39609   -10.880906    1154250.1   -40721.386    2732.8865   -43454.273 
  139300    225.27197   -36.286475    1154250.1    -40723.29    2818.9275   -43542.217 
  139400    226.75953    6.9578743    1154250.1   -40722.743    2837.5419   -43560.285 
  139500    222.42479   -10.497642    1154250.1   -40722.456    2783.2994   -43505.755 
  139600    225.37759   -40.610599    1154250.1   -40721.878    2820.2491   -43542.127 
  139700    223.04062    12.203191    1154250.1   -40722.177    2791.0056   -43513.182 
  139800     224.2432   -20.829556    1154250.1   -40721.832    2806.0539   -43527.886 
  139900    228.60884    9.9575021    1154250.1   -40722.679    2860.6832   -43583.362 
  140000    228.66836   -10.509322    1154250.1   -40722.471    2861.4279   -43583.899 
  140100    224.72386   -15.108062    1154250.1   -40721.793    2812.0687   -43533.862 
  140200    230.94657   -13.105109    1154250.1    -40723.69    2889.9362   -43613.626 
  140300    230.96316    -5.972234    1154250.1   -40723.833    2890.1438   -43613.976 
  140400    220.51864   -21.250354    1154250.1     -40722.4     2759.447   -43481.847 
  140500    226.22464   0.89898973    1154250.1   -40722.178    2830.8486   -43553.027 
  140600    225.84787    20.246331    1154250.1   -40723.115    2826.1339   -43549.249 
  140700    221.46159   -42.491291    1154250.1   -40721.323    2771.2465    -43492.57 
  140800     224.0834   -16.204202    1154250.1   -40722.453    2804.0543   -43526.508 
  140900    224.39417     27.48451    1154250.1   -40722.047    2807.9431    -43529.99 
  141000    224.36981   -4.7930018    1154250.1   -40722.196    2807.6383   -43529.834 
  141100    224.75414   -7.6981936    1154250.1   -40722.191    2812.4476   -43534.638 
  141200    224.38411    19.620362    1154250.1   -40722.182    2807.8173       -43530 
  141300    221.99549    7.4844008    1154250.1    -40721.26    2777.9273   -43499.188 
  141400    226.69123   -9.7371249    1154250.1   -40722.091    2836.6873   -43558.778 
  141500    220.91775   -29.367063    1154250.1   -40721.229    2764.4411    -43485.67 
  141600    228.94929    7.6961835    1154250.1   -40722.874    2864.9433   -43587.817 
  141700    224.72226    -8.968763    1154250.1    -40722.25    2812.0486   -43534.299 
  141800    224.18712   -15.826079    1154250.1   -40722.232    2805.3522   -43527.584 
  141900    227.68236     4.926649    1154250.1   -40723.374    2849.0897   -43572.464 
  142000    222.91211   -10.991397    1154250.1   -40721.371    2789.3974   -43510.769 
  142100    222.42548    30.180501    1154250.1   -40722.466     2783.308   -43505.774 
  142200    222.20405    -33.79827    1154250.1   -40721.443    2780.5372    -43501.98 
  142300    223.19507   -5.1239323    1154250.1   -40721.556    2792.9383   -43514.494 
  142400    224.49061    5.4514809    1154250.1   -40721.392    2809.1499   -43530.542 
  142500    225.21714   -4.0316301    1154250.1   -40722.266    2818.2413   -43540.508 
  142600    223.33746   -11.249542    1154250.1   -40721.654    2794.7201   -43516.375 
  142700    229.99304    2.5973972    1154250.1   -40722.144    2878.0043   -43600.148 
  142800    230.32298   -4.5183329    1154250.1   -40723.217    2882.1329    -43605.35 
  142900    228.88963   -19.052025    1154250.1   -40722.161    2864.1968   -43586.358 
  143000    228.53418    15.316042    1154250.1   -40723.124    2859.7489   -43582.873 
  143100    227.90357    3.7903458    1154250.1   -40721.583    2851.8578   -43573.441 
  143200    227.60115    26.567315    1154250.1   -40722.177    2848.0735    -43570.25 
  143300     228.4766   -10.911996    1154250.1   -40723.189    2859.0284   -43582.217 
  143400    224.10902    4.2376181    1154250.1   -40722.478     2804.375   -43526.853 
  143500    223.73288   -16.186106    1154250.1   -40721.549    2799.6681   -43521.217 
  143600    225.64683   -8.6634695    1154250.1   -40722.306    2823.6182   -43545.924 
  143700    222.62353   0.14283163    1154250.1   -40721.367    2785.7863   -43507.154 
  143800    218.63065   -3.2655723    1154250.1   -40720.636    2735.8216   -43456.457 
  143900    225.95249   -38.588555    1154250.1   -40722.752     2827.443   -43550.195 
  144000    225.12996    10.421692    1154250.1   -40721.795    2817.1503   -43538.945 
  144100    218.98788    39.663782    1154250.1   -40721.051    2740.2918   -43461.343 
  144200    221.74024    3.0370401    1154250.1   -40721.837    2774.7333   -43496.571 
  144300    223.35651   -9.4672994    1154250.1   -40721.242    2794.9584   -43516.201 
  144400    226.93049   -19.552256    1154250.1   -40722.918    2839.6812   -43562.599 
  144500    226.60987   -12.442145    1154250.1   -40722.313    2835.6691   -43557.982 
  144600    225.29526   -45.722947    1154250.1    -40722.44    2819.2189   -43541.659 
  144700    223.55691    18.038673    1154250.1   -40721.717    2797.4661   -43519.183 
  144800    226.45337    3.8523834    1154250.1    -40722.57    2833.7108   -43556.281 
  144900    223.63791    12.751453    1154250.1   -40721.728    2798.4796   -43520.208 
  145000    223.09664   -8.4606894    1154250.1   -40721.549    2791.7065   -43513.256 
  145100    221.22929    27.923969    1154250.1   -40721.183    2768.3396   -43489.523 
  145200    227.87869   -5.7792295    1154250.1   -40722.312    2851.5465   -43573.858 
  145300    226.25269   -39.579261    1154250.1   -40722.766    2831.1996   -43553.966 
  145400    226.39856    7.3086556    1154250.1   -40722.309    2833.0249   -43555.334 
  145500    225.65221   -11.199694    1154250.1   -40721.187    2823.6855   -43544.873 
  145600    222.52342    3.0639884    1154250.1   -40721.333    2784.5336   -43505.866 
  145700    217.41912   -4.5636429    1154250.1   -40720.466    2720.6613   -43441.127 
  145800    222.92194    6.2532502    1154250.1   -40721.099    2789.5205    -43510.62 
  145900    223.97752   -31.106224    1154250.1   -40721.982    2802.7294   -43524.712 
  146000    219.34143    17.594901    1154250.1    -40721.51    2744.7159   -43466.226 
  146100     228.3541   -17.132536    1154250.1    -40722.81    2857.4954   -43580.306 
  146200    226.01394    2.2348688    1154250.1   -40721.673     2828.212   -43549.885 
  146300    224.87151    12.324728    1154250.1    -40722.41    2813.9163   -43536.326 
  146400    223.56541    15.436763    1154250.1   -40722.146    2797.5725   -43519.718 
  146500    223.83122   -24.024239    1154250.1   -40722.113    2800.8986   -43523.012 
  146600    225.99952    -22.78209    1154250.1   -40721.414    2828.0316   -43549.446 
  146700    224.16311   -48.190703    1154250.1   -40721.868    2805.0517    -43526.92 
  146800    226.96695    15.739044    1154250.1   -40722.584    2840.1375   -43562.721 
  146900    224.14785    5.6341703    1154250.1   -40722.502    2804.8608   -43527.363 
  147000    222.88583   -47.296014    1154250.1   -40721.853    2789.0686   -43510.922 
  147100    225.74546    18.550727    1154250.1   -40722.887    2824.8525    -43547.74 
  147200    223.63966    26.218532    1154250.1   -40721.955    2798.5016   -43520.457 
  147300    223.35816   -39.417538    1154250.1   -40722.334    2794.9791   -43517.313 
  147400    226.83594     16.67908    1154250.1   -40723.126     2838.498   -43561.624 
  147500    224.56452   -3.6973183    1154250.1   -40721.973    2810.0748   -43532.048 
  147600    227.24608   -26.379372    1154250.1   -40723.061    2843.6303   -43566.691 
  147700    224.26149   -12.706322    1154250.1   -40722.065    2806.2829   -43528.348 
  147800    225.98963   -22.415823    1154250.1   -40722.705    2827.9078   -43550.613 
  147900    224.01277    8.8304094    1154250.1   -40721.383    2803.1705   -43524.553 
  148000    223.18656   -19.088656    1154250.1   -40722.365    2792.8318   -43515.197 
  148100    222.99926    10.545321    1154250.1   -40722.635     2790.488   -43513.123 
  148200    227.21254    15.273326    1154250.1   -40722.023    2843.2107   -43565.233 
  148300    227.78055   -21.409988    1154250.1   -40722.228    2850.3184   -43572.546 
  148400    223.63063  -0.58173702    1154250.1    -40721.44    2798.3886   -43519.829 
  148500    221.99198    -14.56446    1154250.1   -40721.908    2777.8835   -43499.792 
  148600    221.88633    12.325401    1154250.1   -40721.863    2776.5614   -43498.424 
  148700    226.48947   -11.857863    1154250.1   -40722.352    2834.1626   -43556.515 
  148800    225.89294    2.0523011    1154250.1   -40722.561    2826.6979   -43549.258 
  148900    223.01612   -10.394404    1154250.1   -40722.507     2790.699   -43513.206 
  149000    225.57949   -24.839446    1154250.1   -40722.219    2822.7756   -43544.994 
  149100    227.58088   0.15713466    1154250.1   -40723.181    2847.8198   -43571.001 
  149200    224.09126    30.621801    1154250.1   -40722.861    2804.1526   -43527.013 
  149300    223.98116   -21.894556    1154250.1   -40721.683     2802.775   -43524.458 
  149400    224.80903   -10.648636    1154250.1   -40721.813    2813.1344   -43534.948 
  149500    223.40915    1.8127847    1154250.1   -40722.649    2795.6171   -43518.266 
  149600    226.01015     5.354109    1154250.1    -40722.69    2828.1646   -43550.855 
  149700    229.24169     2.231074    1154250.1    -40722.24    2868.6023   -43590.842 
  149800    226.26153   -13.253133    1154250.1   -40722.822    2831.3102   -43554.132 
  149900    227.86071   -5.7011923    1154250.1   -40722.981    2851.3215   -43574.302 
  150000    224.59039   -15.711414    1154250.1   -40721.238    2810.3984   -43531.637 
  150100    220.65823    22.890558    1154250.1   -40721.807    2761.1937   -43483.001 
  150200    224.60448    5.3400467    1154250.1   -40722.208    2810.5748   -43532.783 
  150300    224.65707   -24.770639    1154250.1   -40722.235    2811.2329   -43533.468 
  150400    227.85997    7.2384274    1154250.1   -40722.161    2851.3122   -43573.473 
  150500    227.63068   -6.6643081    1154250.1   -40722.764     2848.443   -43571.207 
  150600    225.05515   -39.911925    1154250.1   -40721.803    2816.2143   -43538.017 
  150700    224.86597   -11.267088    1154250.1   -40721.182     2813.847   -43535.028 
  150721    227.20152    19.508195    1154250.1   -40722.938    2843.0727    -43566.01 
Loop time of 616.028 on 12 procs for 100000 steps with 4199 atoms

Performance: 140.253 ns/day, 0.171 hours/ns, 162.330 timesteps/s
98.8% CPU use with 12 MPI tasks x no OpenMP threads

MPI task timing breakdown:
Section |  min time  |  avg time  |  max time  |%varavg| %total
---------------------------------------------------------------
Pair    | 0.0092055  | 89.502     | 547.36     |2027.9 | 14.53
Neigh   | 0.068593   | 7.1378     | 42.948     | 563.5 |  1.16
Comm    | 2.0499     | 205.98     | 593.26     |1900.9 | 33.44
Output  | 0.62104    | 0.63436    | 0.676      |   2.0 |  0.10
Modify  | 2.2403     | 32.924     | 62.843     | 520.0 |  5.34
Other   |            | 279.9      |            |       | 45.43

Nlocal:        349.917 ave        2151 max           0 min
Histogram: 10 0 0 0 0 0 0 0 1 1
Nghost:        423.833 ave        2144 max           0 min
Histogram: 7 3 0 0 0 0 0 0 0 2
Neighs:        0.00000 ave           0 max           0 min
Histogram: 12 0 0 0 0 0 0 0 0 0
FullNghs:      11103.7 ave       68986 max           0 min
Histogram: 10 0 0 0 0 0 0 0 1 1

Total # of neighbors = 133244
Ave neighs/atom = 31.732317
Neighbor list builds = 11993
Dangerous builds = 0
write_data data.${NAME}
write_data data.10A_cylinder
System init for write_data ...
Total wall time: 0:15:59
