
# Set production fixes - Nose/Hoover
#
fix                 4 water temp/csvr ${START_TEMP} ${END_TEMP} 500.0 928347
fix                 4 water temp/csvr 240 ${END_TEMP} 500.0 928347
fix                 4 water temp/csvr 240 227 500.0 928347


## divide "droplet" into core and surface
#region		core_reg cylinder z 135 135 44.6 20 INF units box
#region		surface_reg cylinder z 135 135 44.6 20 INF units box side out
#group		core dynamic all region core_reg
#group		surface dynamic all region surface_reg

## compute pressure core
#compute        peratom_core core stress/atom NULL
#compute        p_core core reduce sum c_peratom_core[1] c_peratom_core[2] c_peratom_core[3]
#variable       press_core equal -(c_p_core[1]+c_p_core[2]+c_p_core[3])/(3*1249982.5)


## compute pressure surface
#compute        peratom_surf surface stress/atom NULL
#compute        p_surf surface reduce sum c_peratom_surf[1] c_peratom_surf[2] #c_peratom_surf[3]
#variable       press_surf equal -(c_p_surf[1]+c_p_surf[2]+c_p_surf[3])/(3*42395)

## compute total pressure of drop
compute        peratom water stress/atom NULL
compute        p water reduce sum c_peratom[1] c_peratom[2] c_peratom[3]
variable       press equal -(c_p[1]+c_p[2]+c_p[3])/(3*58301)


# compute order parameter
compute        3 all orientorder/atom nnn NULL cutoff 3.5

# compute center of mass of bridge
compute 	4 water com

# Run simulation
thermo_style        custom step c_2 press vol etotal ke pe v_press c_1[4] c_4[*]
thermo              200
dump		     1 water custom 400 ${DIR}/prod.${NAME}.dump id type x y z vx vy vz c_3[*] c_peratom[*]
dump		     1 water custom 400 run_2/prod.${NAME}.dump id type x y z vx vy vz c_3[*] c_peratom[*]
dump		     1 water custom 400 run_2/prod.ibeam_cooling_2.dump id type x y z vx vy vz c_3[*] c_peratom[*]
run                 ${STEPS}
run                 5200000
Neighbor list info ...
  update every 1 steps, delay 0 steps, check yes
  max neighbors/atom: 2000, page size: 100000
  master list distance cutoff = 6.67472
  ghost atom cutoff = 6.67472
  binsize = 3.33736, bins = 57 9 12
  2 neighbor lists, perpetual/occasional/extra = 1 1 0
  (1) pair sw, perpetual
      attributes: full, newton on
      pair build: full/bin/atomonly
      stencil: full/bin/3d
      bin: standard
  (2) compute orientorder/atom, occasional, copy from (1)
      attributes: full, newton on
      pair build: copy
      stencil: none
      bin: none
Per MPI rank memory allocation (min/avg/max) = 6.163 | 6.747 | 7.286 Mbytes
Step c_2 Press Volume TotEng KinEng PotEng v_press c_1[4] c_4[1] c_4[2] c_4[3] 
       0    239.92253   -432.31739    204420.41   -23245.319    1741.4231   -24986.742   -1006.3529    37.371412    95.092742    14.538036    27.939271 
     200    234.75234   -192.08714    204420.41   -23253.779    1703.8964   -24957.675   -115.09662     39.10314    95.091974    14.539442     27.93755 
     400    240.49992   -407.51619    204420.41   -23239.463    1745.6139   -24985.077   -944.70961    40.308732    95.091186    14.538284    27.945009 
     600    244.45285   -542.55502    204420.41   -23109.222    1774.3054   -24883.527   -1395.1672    41.871058    95.091217    14.536624    27.964331 
     800    241.08491   -294.16577    204420.41   -23130.238      1749.86   -24880.097   -471.51461    44.842091    95.090836    14.535469    27.986199 
    1000    242.48082   -403.21113    204420.41   -23189.769    1759.9919   -24949.761   -878.98582    46.019416    95.089755    14.533677     28.01961 
    1200    241.47876   -296.92452    204420.41   -23178.588    1752.7186   -24931.307   -500.65813    48.493101     95.09153    14.532306    28.012596 
    1400    241.56318    -367.1753    204420.41   -23163.827    1753.3314   -24917.158   -754.02043     49.81217    95.090269    14.531779    27.997427 
    1600    236.99689    -307.7017    204420.41   -23179.825     1720.188   -24900.013    -557.2548    51.441573    95.089996    14.533846    28.006587 
    1800    244.11129    -267.1702    204420.41    -23177.57    1771.8263   -24949.396   -410.36806    53.580493    95.089872    14.535864    27.999575 
    2000    244.25686   -478.28514    204420.41    -23100.02    1772.8829   -24872.903   -1144.7259    54.549929    95.089881    14.536875     28.00537 
    2200    238.00374   -327.86105    204420.41   -23166.601     1727.496   -24894.097   -651.86252    56.117742    95.089467    14.535335    28.012346 
    2400    242.25534   -217.63579    204420.41   -23154.934    1758.3553   -24913.289   -266.30552    58.048916     95.08937    14.532587    28.023311 
    2600    238.93873   -408.28562    204420.41   -23237.276    1734.2824   -24971.559   -870.55533     60.77174    95.089348    14.529603    28.005798 
    2800    247.77064   -628.80413    204420.41   -23184.341    1798.3868   -24982.728   -1636.1024    62.853919    95.091626    14.528715    27.994067 
    3000    243.60004   -348.47118    204420.41   -23181.784    1768.1155     -24949.9   -673.80361    64.339648    95.093407    14.527369    27.989838 
    3200     241.7942    -370.0426    204420.41   -23251.536    1755.0081   -25006.544   -743.93823    65.479672    95.095006    14.524972    27.997112 
    3400    235.30504   -270.89835    204420.41   -23253.879    1707.9081   -24961.787   -470.34594    68.659524    95.093943    14.523085    28.007017 
    3600    242.08217   -279.15224    204420.41   -23238.996    1757.0984   -24996.095   -454.87915    70.278617    95.091659    14.523811    28.020613 
    3800    240.83476   -259.77015    204420.41   -23170.126    1748.0443   -24918.171   -348.57191     71.50358    95.089816    14.521903    28.006451 
    4000    241.42789    -430.9583    204420.41   -23222.704    1752.3494   -24975.053    -982.2328    73.592425    95.089423    14.522501      27.9898 
    4200    239.16233   -315.70128    204420.41   -23193.199    1735.9054   -24929.104    -555.3771    75.257724    95.089338    14.523124    27.992142 
    4400    239.78203   -430.60891    204420.41   -23192.479    1740.4033   -24932.882   -952.12408    75.437853    95.090102    14.524193    27.965551 
    4600    242.15002   -244.60024    204420.41   -23295.606    1757.5908   -25053.197   -330.79649    76.909653    95.091655    14.524329    27.944925 
    4800    244.14414    -356.4428    204420.41   -23181.182    1772.0647   -24953.247   -750.38946    78.682133    95.091811    14.524108    27.922405 
    5000    237.95722   -305.23694    204420.41   -23240.772    1727.1584   -24967.931   -533.05373    80.167857    95.092387    14.524701    27.936443 
    5200     235.4867   -435.60153    204420.41   -23226.351    1709.2266   -24935.578   -1018.1434    81.668851    95.093127     14.52434    27.934946 
    5400    236.30208   -267.47284    204420.41   -23247.398    1715.1449   -24962.543   -397.04473    82.148311    95.091608    14.525366    27.947173 
    5600    238.43333   -402.54876    204420.41   -23272.558    1730.6141   -25003.172   -882.60335    83.521026     95.09171    14.530324    27.927772 
    5800    238.83408   -187.64917    204420.41     -23240.4    1733.5228   -24973.923   -121.32982    85.347037    95.092342     14.53522    27.902947 
    6000    239.69171   -381.98544    204420.41    -23277.81    1739.7478   -25017.558   -856.31525    85.837987    95.092156    14.538107    27.879205 
    6200    236.90337   -271.97532    204420.41   -23313.079    1719.5092   -25032.589   -400.14102    86.992464     95.09237    14.539123    27.859109 
    6400    235.79945   -348.11096    204420.41   -23291.904    1711.4967     -25003.4   -709.03205    88.443589    95.090713    14.539054    27.850719 
    6600    236.87635   -395.04026    204420.41   -23255.078    1719.3131   -24974.391   -865.76166    91.370545    95.089829    14.540709    27.867384 
    6800    238.45528   -511.56998    204420.41   -23238.774    1730.7734   -24969.548   -1237.6782    91.420483    95.088788    14.543395    27.868435 
    7000    242.69778   -111.05286    204420.41   -23212.567    1761.5666   -24974.134    194.37219    91.961098    95.089155    14.544997    27.883984 
    7200    233.84704   -358.20477    204420.41   -23313.233    1697.3255   -25010.559   -702.75078    94.402016    95.088196    14.543806     27.88365 
    7400    236.83288   -292.27018    204420.41   -23256.801    1718.9976   -24975.798   -486.06404     96.31496     95.08574    14.544271    27.896873 
    7600     244.1861   -315.20729    204420.41   -23206.208    1772.3693   -24978.577   -555.38009    97.650144    95.084363    14.543434    27.894614 
    7800    232.84018   -349.29093    204420.41   -23325.614    1690.0175   -25015.631   -721.38816    99.095338     95.08291    14.542192    27.900087 
    8000    244.57575   -244.43018    204420.41   -23178.165    1775.1974   -24953.362   -294.64716    101.24098    95.081475    14.539773    27.903833 
    8200    244.28114   -375.99756    204420.41   -23184.277    1773.0591   -24957.336   -820.20834    102.88494    95.082064    14.537163    27.895646 
    8400    241.70931   -483.52106    204420.41   -23130.756    1754.3921   -24885.148   -1175.1836     104.3451    95.082104    14.535123    27.874585 
    8600    242.04196    -342.0347    204420.41   -23188.746    1756.8065   -24945.553   -641.09264    105.89972     95.08103    14.536057    27.854388 
    8800    242.91595   -266.87904    204420.41   -23193.091    1763.1502   -24956.241   -423.14163    106.39312    95.080426    14.536023    27.846773 
    9000    237.66004   -138.57433    204420.41   -23172.681    1725.0014   -24897.682      37.3313    107.85412    95.081372    14.537308    27.832818 
    9200    245.65852   -418.76184    204420.41    -23166.05    1783.0565   -24949.107   -939.94524    109.74955    95.082306    14.538485    27.826333 
    9400    238.66826    -235.4612    204420.41   -23201.598    1732.3192   -24933.918    -323.4377    111.86837    95.082583    14.537936    27.818758 
    9600    233.76812   -325.92712    204420.41   -23252.776    1696.7527   -24949.529   -626.97924    113.50605    95.084261    14.537833    27.820706 
    9800    241.72757    -507.5785    204420.41   -23161.147    1754.5245   -24915.672   -1249.5842    114.52195    95.086393    14.538259    27.802758 
   10000    239.59943   -402.68588    204420.41   -23220.199     1739.078   -24959.277   -887.24656     115.9409     95.08478    14.538549    27.770306 
   10200    245.06683   -391.57537    204420.41   -23149.002    1778.7618   -24927.764   -850.25943    116.63885    95.084891    14.537535    27.785648 
   10400    237.21163   -311.19244    204420.41   -23140.045    1721.7466   -24861.791   -596.27002    118.36797    95.085027    14.534257    27.788194 
   10600    247.29402   -219.19018    204420.41    -23233.05    1794.9274   -25027.977   -226.87591    119.16956    95.084728    14.532137    27.791458 
   10800    235.86854    -287.0155    204420.41   -23273.921    1711.9981   -24985.919   -503.87309    120.58658    95.085043    14.529948    27.782751 
   11000    243.18512   -353.48569    204420.41   -23270.961    1765.1038   -25036.065   -692.67169     121.6985     95.08466    14.528722    27.792988 
   11200    234.68739   -401.14068    204420.41   -23309.054     1703.425   -25012.479   -911.91699    122.89074     95.08267    14.530864    27.807864 
   11400    235.50496   -378.21423    204420.41   -23247.361    1709.3591    -24956.72   -835.04611    125.29201    95.081054    14.534688    27.800859 
   11600    240.33963   -200.68881    204420.41   -23159.159    1744.4505    -24903.61   -166.82466    125.86302    95.080544    14.538304    27.800456 
   11800    239.09922   -399.92709    204420.41   -23145.586    1735.4473   -24881.033    -859.6014    126.76977    95.078746    14.535062    27.780694 
   12000    239.59561   -324.29539    204420.41   -23115.466    1739.0502   -24854.516   -610.12734    128.68463    95.076494    14.531041    27.775108 
   12200    238.30073   -310.35627    204420.41   -23130.471    1729.6516   -24860.123   -541.21151    131.27327    95.076085    14.526544    27.782701 
   12400    241.18328   -266.02865    204420.41   -23195.664    1750.5739   -24946.238   -423.43862    132.15145    95.075407    14.527189    27.757772 
   12600     244.4613   -496.81001    204420.41     -23119.2    1774.3667   -24893.567   -1183.2241     135.0058    95.076415    14.526338    27.738793 
   12800    243.08211    -212.6825    204420.41   -23166.724    1764.3562   -24931.081   -227.38296    137.39672    95.078485    14.527875      27.7446 
   13000    237.23531   -447.92501    204420.41   -23207.995    1721.9185   -24929.914   -978.33672    137.78472    95.079493      14.5304    27.737522 
   13200     235.9111    -270.8449    204420.41   -23241.471    1712.3071   -24953.778   -440.86507    138.51336    95.079921    14.529762    27.725858 
   13400    232.07836   -488.78336    204420.41   -23294.799     1684.488   -24979.287   -1143.0711    139.10404     95.08188     14.52998    27.734645 
   13600    236.43342   -295.52042    204420.41   -23241.332    1716.0982    -24957.43   -536.32876    140.07329    95.079448    14.533384    27.758789 
   13800    240.97639   -417.36915    204420.41   -23181.015    1749.0723   -24930.087   -882.95626     141.6125    95.081096    14.534091    27.768922 
   14000    253.05923   -291.36365    204420.41   -23133.033    1836.7729   -24969.806   -469.98501    143.14603    95.083428    14.533187    27.777215 
   14200    236.01521   -504.61362    204420.41   -23229.899    1713.0627   -24942.961   -1222.9755    144.58465    95.084153    14.534887    27.783263 
   14400    235.19449   -419.13815    204420.41   -23248.681    1707.1057   -24955.786   -957.06441    146.38673    95.084239    14.535735    27.773986 
   14600    236.88533   -133.02682    204420.41   -23231.851    1719.3783    -24951.23    52.083674    147.82641    95.084771    14.537259    27.755784 
   14800    239.61858   -185.13716    204420.41   -23199.856    1739.2169   -24939.073   -142.75579    148.87431    95.084034    14.539193    27.751307 
   15000    240.53119   -227.77255    204420.41    -23209.42    1745.8409    -24955.26   -256.58602    150.96228    95.084471    14.538458    27.771632 
   15200    248.84837   -340.66737    204420.41   -23174.016    1806.2093   -24980.225   -641.03051    151.60385    95.083067     14.53805    27.787533 
   15400    237.49422   -348.59987    204420.41   -23251.242    1723.7978    -24975.04    -632.3098    154.43471    95.085059    14.536922    27.783788 
   15600    244.33798   -439.55634    204420.41   -23123.034    1773.4716   -24896.506   -970.17185    156.45766    95.087809    14.537422    27.788093 
   15800    241.05015    -189.3123    204420.41    -23140.77    1749.6077   -24890.378    -133.5425    157.78214    95.086744    14.539698    27.803314 
   16000    238.86824   -438.82017    204420.41   -23152.828    1733.7707   -24886.599   -972.99666    161.06233    95.086769    14.540713    27.790233 
   16200    243.03517   -223.97957    204420.41   -23122.211    1764.0155   -24886.227   -269.77052    163.42663    95.088543    14.542472    27.782368 
   16400    242.86958   -359.84115    204420.41   -23209.724    1762.8136   -24972.538   -742.40041    165.58545    95.087226    14.541686    27.772434 
   16600    240.09664   -367.38807    204420.41    -23123.46    1742.6868   -24866.146   -723.46101    167.15515    95.085079    14.541261    27.789948 
   16800    244.17039   -326.89785    204420.41   -23154.456    1772.2552   -24926.711   -645.15784    169.33092    95.083978    14.542364    27.788351 
   17000    236.23222   -544.29818    204420.41    -23233.05    1714.6378   -24947.688   -1368.6308    171.88416    95.083219    14.545714    27.796614 
   17200     233.9722    -304.1319    204420.41   -23245.708     1698.234   -24943.942   -515.81809    172.38304    95.082369     14.54831    27.781544 
   17400    234.82693   -396.08616    204420.41   -23286.538    1704.4379   -24990.976   -868.66672     172.5391     95.08027    14.546019    27.789187 
   17600    238.61983   -201.40445    204420.41   -23206.566    1731.9677   -24938.534   -179.06188    174.09473    95.080955    14.545795    27.784525 
   17800     233.5603   -260.12109    204420.41   -23167.958    1695.2443   -24863.202   -405.05715    174.65461    95.080021    14.544755    27.781946 
   18000    242.22979   -330.15328    204420.41    -23147.26    1758.1698    -24905.43   -650.45222    174.72345    95.078332    14.542723    27.807712 
   18200    243.05487   -337.48527    204420.41    -23205.28    1764.1584   -24969.438   -638.92711    176.97768    95.077891    14.542349    27.797491 
   18400    242.03211   -315.09883    204420.41   -23198.137     1756.735   -24954.872   -584.19756    176.93346    95.079065    14.540805     27.77656 
   18600     237.0959   -271.40751    204420.41   -23183.701    1720.9067   -24904.608   -424.67959    179.11877    95.078047    14.540581    27.780528 
   18800    238.75547   -406.00922    204420.41   -23242.811    1732.9523   -24975.763   -891.67933    181.00749    95.078397    14.538833    27.783993 
   19000    241.92388   -248.83817    204420.41   -23194.844    1755.9494   -24950.794   -363.72066    181.66933    95.078404    14.536946    27.789779 
   19200    242.28433   -460.83964    204420.41   -23237.002    1758.5657   -24995.568   -1016.3655    183.72829    95.077887    14.536626    27.788398 
   19400    248.03879   -197.96174    204420.41   -23175.825    1800.3332   -24976.159   -152.97128    185.68201    95.079466    14.536732    27.784999 
   19600    242.51103   -463.32317    204420.41   -23217.186    1760.2111   -24977.398   -1140.3903    188.55882    95.079252    14.537478    27.774108 
   19800    241.27421   -360.34621    204420.41   -23216.711    1751.2339   -24967.945   -736.47491    190.54905    95.078286    14.539048    27.786319 
   20000    239.75027   -319.95133    204420.41   -23218.854    1740.1728   -24959.027   -607.45417    192.47072     95.07689     14.54008    27.796656 
   20200    235.30405   -253.46541    204420.41   -23305.646    1707.9009   -25013.547   -367.05812    193.04352    95.077193    14.537363    27.827719 
   20400    237.33215   -378.69922    204420.41   -23202.684    1722.6214   -24925.305   -797.36429    193.54427    95.080178    14.535974    27.826915 
   20600    238.27083   -203.05995    204420.41   -23256.795    1729.4346    -24986.23   -229.97459    194.30237    95.079117    14.536897     27.82257 
   20800    248.52131    -249.8841    204420.41   -23171.094    1803.8354   -24974.929   -374.32236    195.34866    95.080799    14.535681    27.836522 
   21000    244.45693    -485.5488    204420.41   -23207.347     1774.335   -24981.682   -1161.7092    196.73363      95.0831    14.537866    27.855869 
   21200    241.24601   -209.63095    204420.41   -23190.964    1751.0292   -24941.993    -191.8002    197.34572    95.083693    14.537317    27.852665 
   21400    239.22114   -183.42336    204420.41   -23225.428    1736.3322    -24961.76     -142.727    199.63207    95.083616    14.541723    27.851726 
   21600    240.22252   -469.74263    204420.41    -23155.72    1743.6005   -24899.321   -1098.9032     200.3427     95.08424     14.54446    27.863488 
   21800    244.43116   -144.76517    204420.41    -23283.66    1774.1479   -25057.808    21.198419    200.47413     95.08537    14.547125    27.870865 
   22000     235.7264   -451.96638    204420.41   -23336.135    1710.9664   -25047.102   -1074.8876    201.74124    95.084627    14.545822     27.86678 
   22200     233.2561   -558.06157    204420.41   -23341.116    1693.0363   -25034.152    -1442.529    203.36494    95.085746    14.545719    27.862472 
   22400    238.26828    -358.6728    204420.41   -23186.653    1729.4161   -24916.069   -776.39175    204.80266    95.084818    14.547317    27.879574 
   22600    237.66586   -431.03001    204420.41   -23217.766    1725.0435   -24942.809   -1004.1943    208.75433    95.086617    14.545564    27.869732 
   22800     244.1964    -125.7206    204420.41   -23185.943     1772.444   -24958.387    64.395286    209.88315    95.088284     14.54792      27.8647 
   23000    236.94333   -321.71168    204420.41   -23264.547    1719.7992   -24984.346   -630.29472    212.94056    95.090276    14.547737    27.868099 
   23200    243.05546   -351.08719    204420.41   -23168.635    1764.1628   -24932.797    -728.0262    216.14561    95.090958    14.543966    27.893417 
   23400     238.8537   -445.38583    204420.41   -23111.408    1733.6652   -24845.074   -1101.2878    218.15788    95.090577    14.544281    27.918922 
   23600    243.53352   -242.58461    204420.41   -23082.968    1767.6327     -24850.6   -358.20772    219.44724    95.090998    14.542506    27.908955 
   23800    248.20487   -281.62209    204420.41   -23113.511    1801.5386    -24915.05   -430.41809    219.96892    95.092702    14.542957    27.915256 
   24000    240.56274   -422.88413    204420.41   -23182.797    1746.0699   -24928.867   -974.53558    221.62396    95.091675    14.540602     27.92315 
   24200    240.10434   -383.73745    204420.41   -23167.908    1742.7427    -24910.65   -842.17213    222.08802    95.091565    14.540591    27.904435 
   24400    237.97303   -467.04793    204420.41   -23269.087    1727.2731    -24996.36   -1106.0856    224.33394    95.091487    14.541664    27.907021 
   24600    239.26442   -312.09975    204420.41   -23315.198    1736.6464   -25051.845   -554.96453    227.33962    95.091487    14.541408    27.906836 
   24800    236.69532    -325.7007    204420.41   -23269.942    1717.9991   -24987.941    -614.0208    230.54693    95.093267     14.54051    27.901379 
   25000    235.35353    -417.2601    204420.41   -23297.104    1708.2601   -25005.364   -943.67149    234.52654    95.092863    14.538263    27.893209 
   25200    230.47132   -198.41824    204420.41   -23428.215    1672.8236   -25101.038   -180.14026    234.72049    95.092495    14.536303    27.897787 
   25400    236.54039   -375.08698    204420.41   -23310.433    1716.8746   -25027.308   -786.84069    237.54884    95.092246    14.535045    27.909122 
   25600    251.05881   -248.16317    204420.41    -23180.36    1822.2533   -25002.613   -364.86116    238.66564    95.093636     14.53722    27.900078 
   25800     245.2245   -219.36564    204420.41    -23214.96    1779.9062   -24994.866   -258.55537    241.08486    95.092355     14.53866    27.902423 
   26000    236.64975   -183.14626    204420.41   -23240.203    1717.6684   -24957.872   -148.18226     244.2265    95.090748    14.537625    27.869011 
   26200    236.16994   -353.16832    204420.41   -23219.971    1714.1858   -24934.157   -723.05362    246.82237    95.089753    14.536801    27.868282 
   26400    240.07978    -78.04757    204420.41   -23266.229    1742.5645   -25008.793    232.99684    249.44618    95.088974    14.539972    27.877299 
   26600    246.92568   -356.60709    204420.41   -23150.918    1792.2539   -24943.172   -729.20362     253.5383    95.088226    14.540546    27.886821 
   26800    243.18322    -436.0842    204420.41   -23195.031    1765.0901   -24960.121   -1023.5984    257.19735    95.089796    14.540458    27.882595 
   27000    242.56348   -216.82205    204420.41   -23119.709    1760.5919   -24880.301   -260.00547    257.54166    95.089698    14.542235    27.884402 
   27200     241.9721   -417.20197    204420.41   -23170.872    1756.2994   -24927.171   -929.17694    258.42195    95.089324    14.544818    27.874341 
   27400    243.09199   -356.83974    204420.41   -23119.682    1764.4279    -24884.11   -701.45568    258.90261    95.090327    14.544391    27.839785 
   27600    238.35366   -235.23752    204420.41   -23270.338    1730.0358   -25000.374   -304.67143    260.34528    95.090839    14.547126    27.836559 
   27800    245.75685   -456.07688    204420.41   -23132.015    1783.7702   -24915.785   -1110.4847    261.79189     95.09058    14.549381    27.832406 
   28000    234.29794    -651.4371    204420.41   -23290.774    1700.5983   -24991.372    -1719.097    263.12816    95.090324    14.547753    27.824867 
   28200    238.06316   -170.81238    204420.41   -23281.808    1727.9273   -25009.735   -52.516738    262.87809    95.091179    14.549227    27.812756 
   28400    235.12892   -250.86875    204420.41   -23279.578    1706.6297   -24986.208   -325.08013    262.63013    95.093879    14.547118     27.80789 
   28600    241.71518   -453.03016    204420.41   -23264.915    1754.4346    -25019.35   -1077.5324    261.96832    95.094143    14.545186     27.83451 
   28800    242.57366   -428.09278    204420.41   -23285.957    1760.6658   -25046.623   -1012.1291    261.26921    95.092628    14.545609    27.852157 
   29000    243.90412   -399.37808    204420.41   -23278.137    1770.3226    -25048.46    -865.5022    263.61053    95.092795    14.545526    27.836476 
   29200    245.91487   -264.65395    204420.41   -23227.732    1784.9172   -25012.649   -386.84348    266.98234    95.092742     14.54503    27.842762 
   29400    241.79161    -433.1785    204420.41   -23210.793    1754.9894   -24965.782   -968.50058    269.56867    95.092778    14.547219    27.843103 
   29600    238.86622   -278.29152    204420.41   -23182.735    1733.7561   -24916.491   -433.79989    272.67679     95.09147    14.549064    27.856667 
   29800    234.90491   -301.32581    204420.41   -23303.772    1705.0038   -25008.776   -550.35796    276.15933    95.090861     14.54891    27.853243 
   30000    231.59273   -194.56272    204420.41   -23341.443    1680.9631   -25022.406   -137.82604      278.412    95.088935    14.548452    27.852031 
   30200    237.24542   -472.23416    204420.41   -23257.637    1721.9919   -24979.629   -1084.0487    280.74525     95.08851    14.548549    27.860951 
   30400    239.27884   -307.19402    204420.41   -23283.146     1736.751   -25019.897    -553.4717    280.23385    95.087697    14.547217    27.855331 
   30600     233.6822   -175.40202    204420.41   -23304.671    1696.1291     -25000.8   -104.23253    280.72728     95.08742    14.546091    27.843957 
   30800    236.55712   -252.51922    204420.41   -23257.606    1716.9961   -24974.602   -386.36834    280.68404    95.085043    14.545217    27.837832 
   31000    239.94881   -440.74329    204420.41   -23225.303    1741.6138   -24966.917   -972.83026    282.31163    95.084371    14.543396    27.840104 
   31200     237.6591   -405.91447    204420.41   -23229.914    1724.9945   -24954.909   -929.48892    284.77442    95.084956    14.540859    27.841293 
   31400    243.35923   -301.83736    204420.41   -23212.296    1766.3676   -24978.663   -531.50872     286.1336    95.084485    14.538479    27.848606 
   31600    236.28899   -241.27522    204420.41   -23289.913    1715.0499   -25004.963   -317.42504    287.67371    95.085575    14.536905    27.844304 
   31800    239.83707   -415.76263    204420.41    -23200.13    1740.8028   -24940.933   -939.67765    289.27403    95.087172    14.534922    27.830658 
   32000    238.19731    -287.1491    204420.41    -23254.74     1728.901   -24983.641   -494.94626    289.79313     95.08584    14.534177    27.842789 
   32200    232.86356   -585.95659    204420.41   -23268.598    1690.1872   -24958.785   -1553.2843    291.90719    95.086305     14.53423    27.847277 
   32400    234.87392   -200.33512    204420.41   -23279.361    1704.7789    -24984.14   -133.84649    293.84503    95.086189    14.534994      27.8441 
   32600    239.80464   -355.09784    204420.41   -23179.708    1740.5674   -24920.275   -713.09437    296.31068    95.086928    14.537112    27.844132 
   32800    247.85588   -94.444418    204420.41   -23192.706    1799.0055   -24991.712    180.91242    297.80291    95.090375    14.537398    27.836836 
   33000    237.06885   -308.94593    204420.41   -23198.844    1720.7103   -24919.554   -539.79572    302.09607    95.089993    14.538182     27.83795 
   33200    237.36265   -403.00798    204420.41   -23239.097    1722.8428    -24961.94   -865.25779    302.19898    95.089654     14.53894    27.819318 
   33400    242.74976    -297.9361    204420.41   -23282.793    1761.9439   -25044.737   -481.34932    301.61082    95.090493    14.540349     27.81787 
   33600    235.42629   -229.82602    204420.41     -23284.7    1708.7882   -24993.488   -269.46441    301.74543    95.091585    14.540086    27.797065 
   33800    248.94969   -495.26784    204420.41   -23117.802    1806.9447   -24924.746   -1207.0556    301.47179    95.091374    14.539542     27.79388 
   34000    234.88398   -421.27246    204420.41   -23253.096     1704.852   -24957.948   -924.90566    300.94952    95.091555    14.540702    27.803528 
   34200    234.54007   -114.54607    204420.41   -23244.037    1702.3557   -24946.393    130.29816     302.2285    95.090962    14.539924    27.813731 
   34400    240.23393   -323.23734    204420.41   -23304.665    1743.6833   -25048.348   -584.42262    302.80065    95.091975    14.540194    27.808585 
   34600    247.66835   -471.56962    204420.41   -23143.918    1797.6444   -24941.563   -1097.1056    306.44818    95.092095    14.541595    27.813794 
   34800    240.34293   -402.89083    204420.41   -23259.725    1744.4745     -25004.2   -879.51976    308.43627    95.092446    14.540618    27.813019 
   35000    238.45156   -316.39728    204420.41   -23292.211    1730.7464   -25022.957   -535.72459    311.66406    95.090548    14.541297    27.813408 
   35200    241.33003   -530.72474    204420.41   -23233.592    1751.6391   -24985.231   -1284.9513     314.1855    95.091746    14.541912    27.820495 
   35400    235.86134   -235.52904    204420.41   -23250.809    1711.9459   -24962.755   -291.76932    314.03955    95.092054    14.544829    27.825938 
   35600     241.6434   -368.65266    204420.41   -23294.644    1753.9136   -25048.558   -773.97051    314.66467    95.089435    14.546214     27.83117 
   35800    245.22027   -324.64474    204420.41   -23193.601    1779.8755   -24973.477    -592.1947    318.67437    95.089114    14.547177    27.838573 
   36000    234.91327    -292.0236    204420.41   -23296.182    1705.0645   -25001.247    -490.3822    321.92878    95.087208    14.548709    27.823655 
   36200    238.23272   -393.13772    204420.41    -23310.84     1729.158   -25039.998   -875.12989    324.25243     95.08734    14.548273    27.810906 
   36400    240.74089   -322.52482    204420.41   -23263.297     1747.363    -25010.66   -548.67265    328.55581    95.086026    14.548519    27.807667 
   36600    243.04692   -272.01689    204420.41    -23251.65    1764.1007   -25015.751   -413.33455    331.42022    95.085304    14.547825    27.818675 
   36800     238.4069    -389.5442    204420.41   -23341.869    1730.4223   -25072.291   -852.38377    333.87065    95.086642    14.546509     27.81248 
   37000    239.12527   -456.93252    204420.41   -23299.656    1735.6364   -25035.292   -1103.8531    335.55074    95.085452    14.548187    27.792152 
   37200    238.29651   -256.44759    204420.41   -23270.823     1729.621   -25000.444   -397.35392      338.297    95.086848    14.549736    27.780603 
   37400     239.1863   -567.28381    204420.41   -23262.341    1736.0794    -24998.42   -1465.1005    337.50747    95.086504    14.550081    27.769554 
   37600     237.1067   -313.66035    204420.41   -23296.956     1720.985   -25017.941   -549.43958    333.58405    95.086303    14.549527    27.782588 
   37800    231.92906   -284.71034    204420.41   -23321.619    1683.4043   -25005.023   -461.06335    334.27517    95.087155    14.549114    27.809463 
   38000    236.06631   -370.35046    204420.41   -23244.204    1713.4336   -24957.638   -805.76676    334.21867    95.086254    14.551565    27.799934 
   38200    238.25559   -394.68042    204420.41    -23265.66     1729.324   -24994.984    -869.7855    333.59559    95.085931    14.553344    27.799933 
   38400    241.78868    -223.4524    204420.41   -23185.901    1754.9681   -24940.869   -239.24669    332.20241    95.087401    14.553861    27.798801 
   38600     243.1025   -337.67383    204420.41   -23232.383    1764.5042   -24996.888   -640.38349    332.04091    95.087395    14.553508    27.797756 
   38800    241.40867   -256.95913    204420.41   -23190.924    1752.2099   -24943.134   -392.36691    331.24045    95.087628    14.556686    27.810406 
   39000    243.69964   -278.25155    204420.41   -23144.336    1768.8384   -24913.175   -445.40861    332.39663    95.087846    14.559171    27.802165 
   39200    235.54027   -421.91391    204420.41   -23239.594    1709.6155    -24949.21   -944.47597    334.04818    95.087099    14.561979    27.783126 
   39400    239.00732   -261.97239    204420.41   -23222.821    1734.7803   -24957.602   -381.56689    334.05396    95.087355    14.563648    27.773899 
   39600    244.09614   -207.88792    204420.41   -23193.325    1771.7163   -24965.041    -193.5923    334.82081    95.087704    14.564364    27.765011 
   39800    236.99124   -358.18082    204420.41   -23239.713     1720.147    -24959.86   -744.11639    335.80672    95.086375    14.566334    27.776352 
   40000    247.99797   -206.64921    204420.41   -23185.078    1800.0369   -24985.115   -210.55718    338.68305    95.086559    14.567489    27.768272 
   40200    244.31549   -252.03598    204420.41    -23217.27    1773.3084   -24990.579   -372.75418     341.3643    95.087058    14.570843    27.760404 
   40400    239.63919   -341.02571    204420.41   -23282.895    1739.3666   -25022.262   -648.67882    344.75012    95.086756     14.57346    27.793982 
   40600    241.94205   -308.45159    204420.41   -23206.094    1756.0813   -24962.175   -545.67915    346.20095    95.089134    14.575931    27.801406 
   40800    238.91686    -276.2143    204420.41   -23246.873    1734.1237   -24980.997   -391.90975    348.54904    95.092129    14.575676    27.807114 
   41000    231.95222   -328.86432    204420.41    -23239.44    1683.5724   -24923.012   -665.48805    347.60098     95.09206    14.577387    27.818693 
   41200    241.77671   -540.30682    204420.41    -23101.89    1754.8813   -24856.772    -1386.426    348.66595    95.092464    14.577695    27.832998 
   41400    238.99914    -177.4908    204420.41   -23151.456    1734.7208   -24886.176    -60.44037    350.72904    95.092115    14.577219     27.83097 
   41600    244.61372   -284.97851    204420.41   -23142.847     1775.473    -24918.32   -487.57187    354.44727    95.093744    14.578691     27.83676 
   41800    244.54392   -317.42049    204420.41   -23161.144    1774.9664   -24936.111   -584.09509    358.24783    95.093665    14.580744    27.843826 
   42000    236.23068   -363.01645    204420.41   -23202.895    1714.6266   -24917.522   -736.99907    360.55007    95.094832    14.580372    27.845384 
   42200    238.47522    -408.1676    204420.41   -23255.112    1730.9181    -24986.03   -857.63827    362.07283    95.093629    14.579431    27.848615 
   42400    239.61389   -336.51255    204420.41   -23194.727    1739.1829    -24933.91   -629.78324    364.08753    95.094238    14.578113    27.849765 
   42600    241.22508   -342.94769    204420.41   -23216.469    1750.8773   -24967.346   -701.12057    363.59618    95.095488     14.57711    27.851867 
   42800    244.09503   -320.31892    204420.41    -23189.72    1771.7082   -24961.429   -577.17891    366.09494    95.097537     14.57849    27.841912 
   43000     241.8267   -529.49862    204420.41   -23210.087    1755.2441   -24965.332    -1350.228    368.59005    95.097718    14.578773    27.850623 
   43200     239.3439   -203.67365    204420.41   -23208.803    1737.2232   -24946.026   -148.59939     369.2876    95.097872    14.576534     27.85814 
   43400    240.45741   -358.17861    204420.41   -23219.841    1745.3054   -24965.147   -751.14896    371.10208    95.096238    14.574918    27.867711 
   43600    234.67719    -257.8393    204420.41   -23200.584     1703.351   -24903.935   -390.53859     370.5894    95.096405    14.576834    27.870998 
   43800    237.87708   -222.98125    204420.41   -23235.319    1726.5767   -24961.895   -257.28524    371.21649    95.098213    14.578247    27.879532 
   44000    234.49678   -224.08304    204420.41   -23281.671    1702.0415   -24983.712   -242.82208    372.65658    95.099021    14.576989     27.88947 
   44200    239.80164   -300.38024    204420.41   -23250.732    1740.5457   -24991.277    -540.8724    375.21013    95.096724    14.576609    27.887492 
   44400    240.48082   -172.84916    204420.41    -23238.98    1745.4753   -24984.455   -80.016182    376.50034    95.097221    14.573353     27.89094 
   44600    237.57195     -420.984    204420.41   -23288.597    1724.3619   -25012.959   -944.14168    377.78486    95.097177    14.573976    27.906233 
   44800    233.54461   -349.92246    204420.41     -23294.6    1695.1304   -24989.731   -662.08969    381.71526    95.094944    14.573323      27.9107 
   45000    239.19343   -337.07409    204420.41   -23249.691    1736.1311   -24985.822   -649.43387    384.38366    95.095037    14.572042    27.932919 
   45200    229.31168   -404.97602    204420.41   -23233.102    1664.4066   -24897.509   -847.80763    390.18383    95.094949    14.567532    27.919285 
   45400    234.89854   -276.53541    204420.41    -23310.58    1704.9576   -25015.538   -441.59271    389.47216    95.095463    14.564304    27.920729 
   45600    239.68204   -313.69342    204420.41   -23203.395    1739.6775   -24943.073   -560.59326     388.3961    95.093296    14.567953    27.906223 
   45800    236.68767   -503.53664    204420.41   -23232.628    1717.9436   -24950.572   -1221.1758    392.63734    95.092764    14.568329    27.915001 
   46000    246.60097    -409.2151    204420.41   -23155.641     1789.897   -24945.538   -908.34267    395.50263    95.090714    14.567189     27.90737 
   46200    243.62786    -282.4679    204420.41   -23145.061    1768.3174   -24913.378     -482.121    397.31185     95.09106    14.565257    27.884596 
   46400    237.81297   -388.49776    204420.41   -23245.607    1726.1113   -24971.718   -868.78671    398.49839     95.09243    14.564477    27.874053 
   46600    237.55299   -333.61662    204420.41    -23209.52    1724.2243   -24933.744   -654.80628     398.2172    95.093749    14.564068    27.863104 
   46800    238.35174   -274.45762    204420.41   -23174.153    1730.0219   -24904.175   -417.38847    400.10699    95.092428     14.56502     27.86942 
   47000     241.2537   -264.73596    204420.41   -23142.729    1751.0851   -24893.814   -419.98558    402.90376    95.091958    14.564218    27.863027 
   47200      239.351   -320.56855    204420.41   -23244.288    1737.2748   -24981.563   -583.60415    406.32434    95.090985    14.563253    27.868226 
   47400      245.348   -380.86249    204420.41    -23186.76    1780.8026   -24967.563   -779.17882    406.98426     95.09141    14.562118    27.877112 
   47600    239.26219   -392.75694    204420.41   -23227.158    1736.6301   -24963.788   -890.09873    408.24743     95.09017    14.561872    27.878075 
   47800    239.25846   -379.20379    204420.41   -23280.742    1736.6031   -25017.345   -816.00092    409.45073    95.089871    14.564504    27.875579 
   48000    237.90189   -206.07182    204420.41   -23262.532    1726.7567   -24989.289    -192.1225    412.03646     95.09052    14.561713    27.864213 
   48200    242.36259    -268.5595    204420.41   -23232.293    1759.1337   -24991.427   -383.94474    414.63986    95.090644    14.563649    27.859304 
   48400    235.90311   -452.08181    204420.41   -23217.923     1712.249   -24930.172   -1005.0694    416.34175    95.089572    14.561719    27.854083 
   48600    236.09052   -443.47526    204420.41   -23323.612    1713.6093   -25037.222   -1004.7657    416.00427    95.089714    14.559813    27.851207 
   48800    238.02538   -335.78886    204420.41   -23264.458    1727.6531   -24992.111   -636.50388    416.40598    95.092112    14.558664    27.852594 
   49000    241.60885   -328.94042    204420.41   -23262.917    1753.6629    -25016.58   -632.64958    419.33342    95.092965    14.557578    27.869432 
   49200    242.91367   -186.15032    204420.41   -23210.914    1763.1336   -24974.047   -104.41031    420.25977    95.091816    14.558722    27.858909 
   49400    241.78566   -266.70549    204420.41    -23282.09    1754.9462   -25037.036   -409.13962    425.69447    95.091033    14.558728    27.851453 
   49600    240.49655   -287.35088    204420.41   -23238.016    1745.5895   -24983.606   -497.29684    428.35411    95.090504    14.559147    27.843608 
   49800    242.51111   -328.74483    204420.41   -23248.466    1760.2117   -25008.678   -641.51308    430.58071    95.088944     14.55698      27.8359 
   50000    239.65455   -606.92914    204420.41   -23257.254     1739.478   -24996.732   -1585.9531    432.57142    95.089938    14.555393    27.835505 
   50200    240.60371   -233.06887    204420.41   -23141.613    1746.3673   -24887.981   -279.68463    434.43857    95.089751    14.554282     27.83312 
   50400    235.32842   -328.26907    204420.41    -23201.28    1708.0778   -24909.358   -602.54531    435.62326    95.088974    14.556474    27.843675 
   50600    249.57897   -363.26821    204420.41   -23131.676    1811.5122   -24943.188   -770.97385    436.16873    95.088908    14.556255    27.839241 
   50800    232.44219   -261.04422    204420.41   -23353.011    1687.1288    -25040.14   -409.42301     437.2057    95.087136    14.561112    27.838411 
   51000    234.39359   -295.85319    204420.41   -23279.427    1701.2925    -24980.72   -515.83083    437.50599    95.087218    14.560547    27.843014 
   51200    242.15912   -314.59827    204420.41   -23293.373    1757.6569   -25051.029   -557.79402    437.54784    95.088053    14.560465    27.841405 
   51400    242.24789    -296.6894    204420.41   -23268.972    1758.3012   -25027.273   -534.05307    441.36697    95.086621    14.558427    27.836782 
   51600    239.49068   -436.16295    204420.41   -23291.575    1738.2886   -25029.864   -1007.1297    445.86371    95.085672    14.557179    27.844839 
   51800     238.1775    -420.5357    204420.41   -23246.204    1728.7572   -24974.962   -902.35221    448.21069    95.086009    14.554645    27.857941 
   52000    235.15902   -137.89645    204420.41   -23314.276    1706.8483   -25021.124    14.184905    449.01185    95.085505    14.554153     27.86048 
   52200    234.66348   -382.29563    204420.41   -23325.636    1703.2515   -25028.887   -787.89189    449.29706    95.085294    14.553165    27.854651 
   52400    232.66365   -353.66738    204420.41   -23389.884    1688.7361   -25078.621   -750.64206    447.61925    95.084974    14.551192    27.842475 
   52600    246.93353   -253.95934    204420.41   -23239.302    1792.3109   -25031.613   -350.19176    446.87023    95.086021     14.55038    27.848093 
   52800    247.48162   -249.73102    204420.41   -23185.967     1796.289   -24982.256   -365.47894    446.80103    95.087315    14.550181    27.824856 
   53000    240.29625   -308.30575    204420.41    -23194.21    1744.1357   -24938.346   -555.08275    447.28745    95.086946    14.550714    27.818623 
   53200    236.02003    -281.5403    204420.41   -23288.523    1713.0977   -25001.621   -485.01745     446.3687     95.08656      14.5501    27.813064 
   53400    240.48107   -310.18774    204420.41    -23291.03    1745.4771   -25036.507   -559.59699     448.4969     95.08343    14.549465    27.817526 
   53600    234.59657   -349.89939    204420.41   -23341.672    1702.7658   -25044.438   -709.70643     453.9912     95.08172    14.547521    27.820854 
   53800     238.0867   -493.75684    204420.41   -23302.433    1728.0981   -25030.531   -1207.2478     457.4065    95.083279    14.548761    27.828759 
   54000    244.70713   -180.07994    204420.41   -23276.475     1776.151   -25052.626   -134.84136     458.8564    95.084821    14.545881    27.852588 
   54200    235.33886   -368.42824    204420.41   -23219.197    1708.1536    -24927.35   -800.73819    460.54111    95.084507    14.542967    27.854462 
   54400     239.3236   -318.72375    204420.41   -23151.941    1737.0759   -24889.017   -608.15883    464.31107    95.086078    14.543063    27.849698 
   54600    245.82172   -493.22444    204420.41     -23181.3     1784.241   -24965.541   -1203.5667     463.8636    95.088213    14.542618    27.858909 
   54800    245.50957   -174.09366    204420.41   -23199.509    1781.9754   -24981.484   -60.275565    462.99135    95.086901    14.545264    27.842548 
   55000    245.93589   -275.80349    204420.41   -23184.286    1785.0697   -24969.356   -455.51382    462.60764    95.086643    14.546141    27.819894 
   55200    227.33532   -303.96864    204420.41   -23348.294    1650.0617   -24998.356   -566.79673    462.20231    95.088038    14.543223    27.838997 
   55400    238.54658   -280.75588    204420.41   -23298.841    1731.4361   -25030.278   -446.06959    459.86727    95.088343    14.544376    27.833814 
   55600    242.10664   -397.57739    204420.41   -23273.272     1757.276   -25030.548   -899.73347    460.49378    95.089655    14.548437    27.822385 
   55800    241.47744   -467.50114    204420.41   -23125.557    1752.7091   -24878.266   -1118.7074    459.34412     95.09052    14.550222    27.819289 
   56000    237.30177   -343.48589    204420.41   -23176.642    1722.4009   -24899.043   -646.38437    459.38035    95.090452    14.552495    27.799578 
   56200    241.14326   -598.26101    204420.41   -23173.721    1750.2835   -24924.004   -1541.6709    461.58902    95.089127    14.553882    27.782053 
   56400    237.78233   -416.95262    204420.41    -23236.39    1725.8889   -24962.279   -952.25811    462.33309    95.089685    14.552624    27.781685 
   56600    227.55002   -356.70726    204420.41   -23324.582      1651.62   -24976.202   -726.55763    462.91142    95.090456    14.551073    27.790789 
   56800    237.32655   -326.00752    204420.41   -23225.531    1722.5808   -24948.112   -632.69437    463.20865    95.091204    14.551637    27.795025 
   57000      233.119   -421.60752    204420.41   -23255.444    1692.0412   -24947.486   -976.96795    463.69726    95.092153    14.554954    27.804117 
   57200    241.76431    -342.5117    204420.41   -23152.229    1754.7913    -24907.02   -654.13209    465.17663      95.0932    14.556373    27.812437 
   57400    238.04567   -388.68803    204420.41   -23209.259    1727.8003    -24937.06   -850.03185    464.08976     95.09334    14.559084    27.806366 
   57600    235.07009   -371.82137    204420.41   -23267.768    1706.2027   -24973.971   -766.05756    464.32512    95.093916    14.559512    27.808078 
   57800    244.68646   -313.28562    204420.41   -23199.573     1776.001   -24975.574   -572.44243    465.82968     95.09473    14.563047    27.809352 
   58000    237.97063     -239.212    204420.41   -23234.525    1727.2557   -24961.781   -342.39665    468.31643    95.094568    14.561919    27.835018 
   58200    239.82238   -209.74018    204420.41   -23173.062    1740.6961   -24913.758   -197.90345    472.88392    95.094635    14.559884    27.839227 
   58400    236.79945   -345.69658    204420.41   -23196.736    1718.7549   -24915.491   -671.56228    471.52022     95.09319    14.560646    27.844428 
   58600    234.77921    -291.7933    204420.41   -23211.227    1704.0915   -24915.318   -508.39841    473.79403    95.094025    14.559675    27.824976 
   58800    241.95109   -363.25335    204420.41   -23209.062    1756.1469   -24965.209   -741.81723    473.22224    95.092777    14.560008    27.823898 
   59000    243.14156   -376.02088    204420.41   -23167.004    1764.7877   -24931.792   -783.77554    471.21994    95.095088    14.560109    27.824321 
   59200    241.20986    -45.85667    204420.41   -23258.693    1750.7669    -25009.46    348.76129    470.41835    95.096938    14.557168     27.82618 
   59400    238.54861   -387.05219    204420.41    -23279.76    1731.4508   -25011.211   -798.63533    471.30687    95.096709    14.555584    27.818162 
   59600    233.57696     -459.833    204420.41   -23331.913    1695.3652   -25027.278   -1109.4556    471.94724    95.096611    14.551199    27.829681 
   59800    238.26672   -245.20237    204420.41   -23272.484    1729.4048   -25001.889   -351.40001    471.84146    95.096663    14.551801    27.818636 
   60000    239.53814   -260.96097    204420.41   -23215.817    1738.6331    -24954.45   -423.30253    471.71356    95.097667    14.552102    27.809726 
   60200    239.91953   -397.72049    204420.41   -23248.285    1741.4013   -24989.686   -873.02409    471.86591    95.096248    14.550771    27.806563 
   60400    239.38078    -290.5543    204420.41   -23174.271    1737.4909   -24911.762   -507.79835    474.06599    95.096893    14.553614    27.818543 
   60600    240.90098   -514.29802    204420.41   -23183.469     1748.525   -24931.994   -1298.3134    476.52665    95.094791    14.553799    27.814801 
   60800    242.80544   -296.55697    204420.41   -23104.069    1762.3481   -24866.417   -524.16928    475.79735    95.094829    14.552514    27.833966 
   61000    239.33528   -272.56024    204420.41   -23190.171    1737.1607   -24927.332   -446.64095    478.96138    95.096052    14.552532    27.844581 
   61200    243.30561   -328.34602    204420.41   -23164.299    1765.9784   -24930.278   -612.70106    481.62117    95.096428    14.553322    27.843712 
   61400    242.96071   -354.35451    204420.41   -23196.195     1763.475    -24959.67   -709.15855    483.78337    95.095973    14.555035    27.855157 
   61600    238.72511   -277.86204    204420.41   -23241.803    1732.7319   -24974.535   -424.35219     482.3497    95.095436    14.553393    27.878331 
   61800     237.1147   -482.61205    204420.41   -23308.838    1721.0431   -25029.882   -1153.8758    483.78194    95.095103    14.552039    27.901402 
   62000    240.55292   -396.08456    204420.41   -23232.357    1745.9987   -24978.355   -845.76752    485.86164    95.096187    14.551997    27.908941 
   62200      234.004   -308.17267    204420.41   -23223.812    1698.4648   -24922.277   -545.80913    488.91195    95.097001    14.554518    27.902956 
   62400    238.30773   -343.09794    204420.41   -23242.499    1729.7024   -24972.201   -692.80779    494.27117    95.096259    14.553017    27.886377 
   62600    240.75622   -193.94106    204420.41   -23287.712    1747.4743   -25035.186   -146.83092    495.62926    95.095592    14.553957    27.864124 
   62800    236.88019   -330.39006    204420.41    -23386.16    1719.3409   -25105.501   -609.61185    496.50553    95.096457    14.553394    27.872519 
   63000    239.65485   -275.46428    204420.41   -23276.324    1739.4802   -25015.805   -464.67959    496.43617    95.097158    14.552229    27.875526 
   63200    238.49982   -209.05473    204420.41   -23315.169    1731.0967   -25046.266   -192.84044    497.45436    95.098099    14.551511    27.875123 
   63400    233.09768   -638.02108    204420.41   -23351.208    1691.8864   -25043.094   -1702.2116    496.74336    95.097463     14.55032     27.87857 
   63600    238.65221   -272.93217    204420.41   -23349.519    1732.2027   -25081.722   -449.63534    494.86828    95.097594    14.549493    27.871569 
   63800    234.36958   -434.32895    204420.41    -23364.21    1701.1183   -25065.329   -1017.1567    496.18321    95.099435    14.548275    27.873597 
   64000    241.94502   -375.62832    204420.41   -23239.098    1756.1029   -24995.201    -789.7746    497.71111    95.101144    14.548172    27.855344 
   64200    238.69386   -362.65694    204420.41   -23232.703    1732.5051   -24965.208   -741.55482    499.25742    95.099458    14.549443    27.852914 
   64400    237.69274   -391.28052    204420.41   -23280.267    1725.2387   -25005.506    -838.7491    496.45127    95.098048    14.551542     27.85418 
   64600    239.48312   -241.40516    204420.41   -23257.354    1738.2338   -24995.587    -312.8173    498.58269    95.101474    14.553833    27.851254 
   64800      238.686   -415.58663    204420.41   -23232.175    1732.4481   -24964.623   -937.00854    500.41602    95.101095    14.554411    27.833831 
   65000    239.27724   -306.18957    204420.41   -23122.407    1736.7394   -24859.147   -529.47652     500.5237    95.098617    14.555528    27.824258 
   65200    239.59768   -492.47731    204420.41   -23161.769    1739.0652   -24900.834   -1179.5225     502.4152    95.098909    14.558137    27.818259 
   65400    237.28404   -384.64092    204420.41   -23192.814    1722.2722   -24915.086   -796.28351    505.07884     95.09939    14.558939    27.802165 
   65600    240.58376   -345.25599    204420.41   -23151.645    1746.2225   -24897.867   -660.52657    507.33772    95.098939    14.556975    27.775233 
   65800    244.03489   -361.80061    204420.41   -23169.355    1771.2717   -24940.627   -749.63537     508.1522    95.098924    14.557392    27.788034 
   66000    244.80408   -207.03026    204420.41   -23175.301    1776.8547   -24952.156   -223.32048    508.40599    95.099909    14.557635    27.788593 
   66200    238.09263   -391.00142    204420.41   -23244.689    1728.1412   -24972.831   -880.06407    512.00353    95.099236    14.558242    27.799311 
   66400    237.91972   -367.57963    204420.41    -23234.21    1726.8862   -24961.096   -773.15604    512.73247    95.100182    14.560549    27.804601 
   66600    234.34595   -136.48779    204420.41   -23276.864    1700.9467   -24977.811    46.189357    513.02404    95.103254    14.559452    27.814988 
   66800    238.39024   -359.24557    204420.41   -23255.132    1730.3013   -24985.433   -737.64383    515.02486    95.104014    14.560495    27.806969 
   67000    237.29065   -279.23542    204420.41   -23350.306    1722.3202   -25072.627   -469.52674    515.79978    95.102141    14.559912      27.8007 
   67200    235.69208   -307.96699    204420.41    -23245.16    1710.7173   -24955.877   -525.50212    518.36212     95.10081    14.557351    27.774002 
   67400    229.88673   -318.50674    204420.41   -23228.079    1668.5805   -24896.659    -615.4501    519.17811    95.100062     14.55555    27.774326 
   67600    242.47959   -422.63671    204420.41   -23184.291    1759.9829   -24944.274   -954.64534    520.81574    95.099667    14.554645    27.769959 
   67800    241.23006   -161.71652    204420.41    -23227.24    1750.9135   -24978.154   -32.208437    522.54045    95.101016    14.551528    27.770856 
   68000    238.12529     -197.073    204420.41   -23290.682    1728.3782    -25019.06   -188.23215    522.50306    95.101922    14.550897    27.760714 
   68200    237.17505   -209.03079    204420.41   -23256.722    1721.4812   -24978.204   -194.48722    525.58856    95.100738    14.551994    27.763411 
   68400     237.5034   -220.75978    204420.41   -23189.874    1723.8644   -24913.738   -240.47898    528.85532    95.100236    14.554045    27.787812 
   68600     240.3467   -421.45878    204420.41    -23255.71    1744.5019   -25000.211   -964.06115    532.77436    95.100055    14.555601     27.78688 
   68800    242.35998    -197.1727    204420.41    -23199.55    1759.1148   -24958.664   -202.60914    531.00343    95.101524    14.553809    27.786179 
   69000    240.10473   -321.38123    204420.41   -23187.344    1742.7455    -24930.09   -584.94533    533.94299    95.102737    14.550467    27.781331 
   69200    239.23308   -448.88366    204420.41   -23284.596    1736.4189   -25021.014   -1034.4027    537.42005    95.101286    14.546435    27.775022 
   69400    237.01348   -563.06698    204420.41   -23314.707    1720.3084   -25035.016   -1398.4717    539.59911    95.099795    14.548239     27.77005 
   69600     241.2756   -329.27107    204420.41   -23159.385    1751.2441   -24910.629   -619.00558      539.648    95.099416    14.550513    27.755627 
   69800    239.30482   -308.66928    204420.41     -23195.6    1736.9396    -24932.54   -550.87194    539.07778    95.100018    14.550496    27.757983 
   70000    242.58615    -280.0434    204420.41   -23231.508    1760.7563   -24992.264   -437.19056    539.98746    95.101375    14.549603    27.767333 
   70200    250.07053   -351.14719    204420.41   -23133.952    1815.0801   -24949.032    -686.2901    543.27244    95.100796    14.551852    27.754834 
   70400    243.91261   -203.10512    204420.41   -23181.166    1770.3842    -24951.55   -226.24087    545.91289    95.100001    14.552738    27.757823 
   70600    238.07015   -408.87698    204420.41    -23228.85     1727.978   -24956.828   -947.50432    548.04369    95.097464    14.553101    27.744004 
   70800    239.58631   -202.18214    204420.41   -23201.929    1738.9827   -24940.912   -177.12498    550.67325    95.096005    14.553801    27.733003 
   71000    236.06444    -174.8879    204420.41   -23208.534      1713.42   -24921.954   -130.18621     553.3894    95.096879    14.553504    27.726276 
   71200    239.12894   -218.88575    204420.41   -23228.548     1735.663   -24964.211   -227.23639    553.30049    95.098123    14.551468    27.745806 
   71400    238.39241   -370.24801    204420.41   -23259.607    1730.3171   -24989.924   -757.00342    554.88853    95.097936    14.553271    27.752714 
   71600    242.88592   -119.90413    204420.41    -23185.83    1762.9322   -24948.762    137.52352     551.5539    95.099325    14.555946    27.733705 
   71800     233.2471   -475.00241    204420.41   -23291.123     1692.971   -24984.094   -1133.4327    551.51644    95.099019    14.557341    27.729159 
   72000    236.30503   -396.95246    204420.41   -23288.231    1715.1663   -25003.397   -899.12031    551.11686    95.100098    14.555142    27.754376 
   72200    238.90917   -367.95267    204420.41    -23140.32    1734.0678   -24874.388   -729.82627     552.4453    95.099851     14.55763     27.76476 
   72400    241.13836   -277.78956    204420.41   -23200.781    1750.2479   -24951.029   -437.58817     551.8973    95.099421    14.562192    27.780014 
   72600    243.25811   -244.31239    204420.41    -23203.98    1765.6337   -24969.614   -330.86634    551.79976    95.099428    14.563616    27.753419 
   72800     240.0179   -304.46363    204420.41   -23221.968    1742.1153   -24964.083   -554.53618    551.13797    95.097057    14.565006    27.742287 
   73000    231.35068   -384.74858    204420.41   -23248.355    1679.2062   -24927.561    -838.4998    550.25946    95.098171    14.563614      27.7375 
   73200    245.32523   -368.85166    204420.41   -23206.407    1780.6374   -24987.045   -732.93466    551.65074    95.097623    14.564529    27.713542 
   73400    243.62315   -283.74985    204420.41   -23179.107    1768.2832    -24947.39   -472.38102    551.88021    95.096483    14.562596    27.728702 
   73600    241.68856   -292.19499    204420.41   -23197.473    1754.2414   -24951.714   -507.85284    552.70669    95.097904    14.558225    27.719979 
   73800    233.95482   -383.33135    204420.41   -23301.074    1698.1078   -24999.182   -808.98801    553.38844    95.099062    14.561979    27.697741 
   74000    241.44622   -271.91397    204420.41   -23270.523    1752.4824   -25023.005   -457.62242    554.01144    95.098101    14.567255    27.708402 
   74200    242.75567   -354.46097    204420.41    -23153.94    1761.9868   -24915.927   -700.34708    554.56789     95.09681    14.568371    27.679495 
   74400     246.8274    -410.7861    204420.41   -23191.782    1791.5405   -24983.323   -902.60332    554.76954    95.096731    14.568249    27.682005 
   74600    242.39939   -364.04265    204420.41   -23207.819    1759.4008    -24967.22   -752.43874    555.39834    95.097575    14.567233    27.674796 
   74800    234.35818   -285.88278    204420.41   -23216.156    1701.0356   -24917.192   -456.60007     557.4787    95.099257    14.565534    27.685897 
   75000     238.1676   -421.90271    204420.41   -23210.613    1728.6853   -24939.299   -962.21291    561.15859    95.100142    14.563666    27.689954 
   75200    238.10025   -293.47688    204420.41   -23145.428    1728.1965   -24873.625   -533.02424     565.1685    95.098749    14.564775    27.705568 
   75400    235.81284   -386.25451    204420.41   -23225.689    1711.5939   -24937.283   -827.27242    570.41978    95.098159    14.566728     27.69957 
   75600    236.56573   -238.07444    204420.41   -23183.967    1717.0586   -24901.025   -324.03973    570.18069     95.09637    14.570072    27.719376 
   75800    235.17777   -362.70374    204420.41    -23125.64    1706.9843   -24832.624   -775.04435    572.72349    95.097549    14.570945     27.71839 
   76000    245.00743   -245.84926    204420.41   -23143.032    1778.3307   -24921.363   -352.38423      572.969    95.099612    14.571245    27.745159 
   76200    243.28823   -331.76004    204420.41    -23284.78    1765.8522   -25050.632   -632.26008    574.26453    95.099945    14.572531    27.737293 
   76400    236.42629   -152.40564    204420.41   -23254.845    1716.0464   -24970.891   -12.274059    574.25196    95.101269    14.572292     27.75117 
   76600    240.67097   -423.66591    204420.41   -23202.086    1746.8555   -24948.942   -947.88057    576.12775    95.100079    14.569638    27.764089 
   76800    235.10683   -277.59365    204420.41   -23180.853    1706.4694   -24887.322   -478.32657     575.8314      95.0991    14.566668    27.757947 
   77000    237.43963   -296.25177    204420.41   -23192.084    1723.4015   -24915.486   -554.76964    574.83069    95.099358    14.564243    27.737248 
   77200    246.33947   -396.30206    204420.41    -23174.79     1787.999   -24962.789   -849.92649    574.54121    95.101179    14.564852     27.73236 
   77400    243.89861   -560.66942    204420.41   -23181.352    1770.2826   -24951.634    -1400.881     576.1678    95.102426    14.561153    27.749465 
   77600    235.43026   -252.14249    204420.41    -23233.25     1708.817   -24942.067   -380.01526    575.13497    95.102439    14.558967    27.762305 
   77800    244.90589   -106.28937    204420.41   -23219.456    1777.5936    -24997.05    121.79443    572.80875     95.10173    14.556491    27.745684 
   78000    241.50758   -528.47864    204420.41   -23223.467    1752.9278   -24976.394   -1285.2251    575.88469    95.101913    14.556369      27.7441 
   78200    237.67156   -51.760528    204420.41   -23235.714     1725.085   -24960.799    333.94974    576.70196    95.101965    14.556461    27.756764 
   78400    236.20334   -623.31901    204420.41   -23196.625    1714.4282   -24911.054   -1660.5375     577.2349    95.101916    14.557875    27.777087 
   78600    245.28425    -211.0477    204420.41   -23211.709    1780.3399   -24992.049   -225.35164    577.24147    95.102491    14.560543    27.787472 
   78800    234.69277   -388.91553    204420.41   -23168.516    1703.4641    -24871.98   -849.38439    581.14684    95.103112    14.558768    27.791158 
   79000     240.4615   -505.98157    204420.41   -23184.371    1745.3351   -24929.706   -1238.8595     584.8953    95.104757     14.55706    27.796585 
   79200    242.95867   -280.07976    204420.41    -23165.39    1763.4602    -24928.85   -471.44728    588.08109    95.105656    14.559409    27.813859 
   79400    241.61767   -398.28333    204420.41   -23140.986    1753.7269   -24894.713   -835.50657    591.16794    95.106708    14.560461    27.811407 
   79600    239.86353   -203.89444    204420.41   -23243.236    1740.9948   -24984.231   -244.96418    594.83367    95.105474    14.558959    27.824696 
   79800    237.33474   -393.25996    204420.41   -23212.736    1722.6402   -24935.376   -857.77163    596.36278    95.105507     14.55811    27.829666 
   80000    234.20909   -338.30357    204420.41   -23218.492    1699.9534   -24918.445   -662.99696    599.03781    95.104891    14.558591    27.826834 
   80200     237.6631   -296.64138    204420.41   -23223.121    1725.0235   -24948.145   -479.64638    604.05992    95.106313    14.559317    27.851571 
   80400    231.01141   -185.49625    204420.41   -23212.523    1676.7438   -24889.267   -138.97074    604.21232    95.106315    14.561082    27.860416 
   80600    237.65801   -198.84556    204420.41   -23226.669    1724.9866   -24951.656   -215.44716    609.27051    95.106367    14.561362    27.836182 
   80800    244.32902   -244.05954    204420.41    -23191.49    1773.4066   -24964.897   -317.59591    613.51148    95.108438    14.559521    27.815655 
   81000    235.42249   -418.94749    204420.41   -23227.054    1708.7606   -24935.815   -959.69972    614.22284    95.107462    14.557501    27.807215 
   81200    236.16517   -200.33194    204420.41     -23196.9    1714.1511   -24911.051    -178.3286    613.87074    95.106272     14.55781    27.810371 
   81400    239.26604   -388.19806    204420.41   -23175.041    1736.6581   -24911.699   -795.69635     615.3208    95.105068    14.557067    27.808245 
   81600    237.25609   -560.51308    204420.41   -23262.694    1722.0694   -24984.763    -1475.245    617.80407    95.104498    14.558256    27.827593 
   81800    236.14664   -49.880848    204420.41   -23310.243    1714.0167    -25024.26    332.54811    619.25313    95.106348    14.559583    27.826126 
   82000    236.98814   -263.21585    204420.41   -23243.273    1720.1245   -24963.398   -399.25034    620.46057    95.108327    14.562778    27.807893 
   82200    242.01205   -438.76091    204420.41   -23176.463    1756.5894   -24933.053   -997.65261    620.99642    95.110332    14.562382    27.796273 
   82400    235.83559   -431.16336    204420.41   -23213.871     1711.759    -24925.63   -945.43392    620.93917    95.110774    14.564696    27.781317 
   82600    246.31667   -292.93468    204420.41    -23136.92    1787.8335   -24924.753   -522.88864    622.04199    95.111344    14.563719    27.800764 
   82800    236.94083   -228.41019    204420.41   -23237.177    1719.7811   -24956.958   -300.33744    622.54068    95.111461    14.564012    27.802156 
   83000    245.99904   -414.81851    204420.41   -23120.678    1785.5281   -24906.206   -964.16828    623.89211    95.109828    14.562213    27.790529 
   83200    243.61865   -510.23907    204420.41   -23160.387    1768.2506   -24928.638   -1249.0867    626.65987    95.109008    14.558825    27.795561 
   83400    247.56563   -257.95468    204420.41   -23160.567    1796.8988   -24957.465   -406.01992    628.82574    95.107788    14.557786    27.774403 
   83600     238.9812   -198.41538    204420.41   -23249.242    1734.5906   -24983.833   -200.24183    631.65302    95.107637    14.558322    27.753858 
   83800    238.66173   -276.25368    204420.41    -23228.52    1732.2719   -24960.792   -481.09317    635.12396     95.10638     14.56152    27.754858 
   84000    240.37578   -305.42742    204420.41   -23242.149    1744.7129   -24986.862   -560.11729    634.94303    95.107654    14.565493    27.742616 
   84200    238.08329   -239.08648    204420.41   -23158.264    1728.0734   -24886.337   -315.87863    634.27291    95.108782    14.565672    27.738533 
   84400    236.32206   -182.85555    204420.41   -23264.948    1715.2899   -24980.238   -102.91185    637.30123    95.110278    14.565827    27.708369 
   84600    240.55318   -299.39611    204420.41   -23236.468    1746.0006   -24982.468   -519.74992    640.17367    95.111408    14.566263    27.710648 
   84800    233.87218   -322.57523    204420.41   -23280.524     1697.508   -24978.032    -627.7571    643.91625    95.111637    14.562995    27.708917 
   85000    241.97977   -285.35711    204420.41   -23214.675    1756.3551   -24971.031   -487.63257    647.60625    95.111547    14.560088    27.725392 
   85200    242.27295   -347.98587    204420.41    -23201.56    1758.4831   -24960.043   -698.93164    649.56644     95.11038    14.559189    27.732076 
   85400     233.6393   -216.06014    204420.41   -23284.452    1695.8177    -24980.27   -236.82388    648.96572    95.110664    14.561506    27.745195 
   85600    240.95738   -285.01524    204420.41   -23246.872    1748.9343   -24995.806    -453.2063    648.44396    95.110679    14.562713    27.754474 
   85800    238.11611     -257.984    204420.41   -23274.822    1728.3116   -25003.133   -381.12525    650.08118    95.110097    14.561153    27.732709 
   86000    237.05085   -286.78262    204420.41   -23183.824    1720.5797   -24904.404   -475.81608     648.4653    95.111212    14.559881    27.736947 
   86200    242.50588   -289.88039    204420.41   -23170.412    1760.1738   -24930.586   -480.92857     649.9329    95.111431    14.558056    27.716841 
   86400     233.3615   -231.54084    204420.41   -23247.006    1693.8014   -24940.808   -298.37156    649.74955    95.110615    14.556974    27.727275 
   86600    238.44266   -346.10247    204420.41   -23194.016    1730.6818   -24924.698   -698.91817    649.79566    95.110097    14.555756     27.76136 
   86800    235.37984   -361.43747    204420.41   -23263.413     1708.451   -24971.864   -748.36428     651.6613    95.109138    14.554672     27.76958 
   87000    235.66794   -399.14505    204420.41   -23196.739    1710.5421   -24907.281   -934.36946    649.90559    95.107089    14.553441    27.766581 
   87200    239.25563   -300.40779    204420.41   -23176.356    1736.5826   -24912.938   -526.42482    649.90517    95.106206    14.551455    27.770289 
   87400    230.80279   -486.50638    204420.41   -23304.359    1675.2296   -24979.589   -1157.7903    653.53378    95.105961    14.550815    27.776897 
   87600    244.87876    -425.3039    204420.41   -23217.958    1777.3967   -24995.355    -960.9858    654.29067      95.1051     14.54963    27.766673 
   87800     237.1158   -439.00299    204420.41   -23244.563    1721.0511   -24965.615   -1051.5439    654.87965    95.107248    14.550475    27.740336 
   88000    238.90506   -257.77812    204420.41   -23236.643     1734.038   -24970.681   -354.50167    657.77409    95.109303     14.55047    27.726336 
   88200    241.81145   -186.36311    204420.41   -23257.043    1755.1334   -25012.176   -111.76933    663.61772     95.10937    14.550742    27.716564 
   88400    241.44515    -514.9835    204420.41   -23187.342    1752.4747   -24939.817   -1256.9629    668.02031    95.110671    14.551309    27.733997 
   88600    234.98296   -336.55898    204420.41   -23241.753    1705.5704   -24947.323   -623.55971    669.95395     95.11019    14.550163    27.747004 
   88800    239.08762    -251.6085    204420.41   -23286.202    1735.3631   -25021.565   -361.55438    674.22824    95.109666     14.55136      27.7687 
   89000    234.43362   -177.35619    204420.41   -23258.372    1701.5831   -24959.955   -119.49892    676.50928    95.108602    14.554701    27.782493 
   89200    237.51012   -269.45045    204420.41   -23238.927    1723.9132    -24962.84   -437.43918    680.54202    95.108575    14.553518    27.760806 
   89400    241.77308   -389.87729    204420.41   -23219.002    1754.8549   -24973.857   -843.51833    679.75749     95.10916    14.552813    27.772785 
   89600    233.97929   -540.60164    204420.41   -23352.678    1698.2855   -25050.963   -1369.2202    681.96307    95.108129    14.553568     27.76916 
   89800    237.12248   -147.36833    204420.41   -23202.743    1721.0996   -24923.842   -17.757707     680.5078    95.108555    14.556633    27.779632 
   90000    242.39356   -281.34014    204420.41   -23181.722    1759.3585    -24941.08   -442.78926    679.52139    95.108812    14.558265    27.790306 
   90200    237.38612   -436.17224    204420.41   -23231.245    1723.0131   -24954.258   -1009.9116    676.38017    95.111342    14.561407    27.753858 
   90400     235.7331   -284.43608    204420.41   -23168.997    1711.0151   -24880.012   -476.60571    674.03844    95.110643    14.564123    27.749825 
   90600    245.48192   -283.33883    204420.41   -23205.564    1781.7747   -24987.339   -474.64881    674.02765    95.110292    14.566415    27.755715 
   90800    239.22635   -348.41979    204420.41   -23205.174      1736.37   -24941.544   -655.85179     672.5352    95.110711    14.565859    27.773549 
   91000    236.45722   -302.88806    204420.41   -23308.304    1716.2709   -25024.575   -556.86936    671.39735    95.111421    14.563373    27.761621 
   91200    237.64466   -307.51705    204420.41   -23372.365    1724.8897   -25097.255   -560.39585    675.02831    95.111159    14.562154    27.756577 
   91400    237.14096    -387.3615    204420.41   -23320.024    1721.2337   -25041.258   -806.95588    675.39364    95.111465    14.562958    27.776275 
   91600    242.94547   -463.07719    204420.41   -23205.651    1763.3644   -24969.016   -1114.9657    674.25784    95.111715    14.563528    27.780226 
   91800    240.95593   -318.66949    204420.41   -23232.514    1748.9238   -24981.438   -594.54828    675.25025    95.113872    14.565251    27.786108 
   92000    233.94379   -332.54262    204420.41    -23231.75    1698.0277   -24929.778   -649.25125    679.37577    95.117105    14.565437    27.771036 
   92200     239.2004   -346.12245    204420.41    -23230.37    1736.1816   -24966.552   -688.18198    679.23068    95.117128    14.564595    27.783098 
   92400    242.38888   -197.45357    204420.41   -23232.318    1759.3245   -24991.643   -202.80805    681.23679    95.116016    14.565112    27.767452 
   92600    241.37186   -267.46808    204420.41   -23189.604    1751.9427   -24941.546   -415.08155    680.54562    95.114282    14.565788    27.767125 
   92800    236.84776   -566.90961    204420.41   -23275.206    1719.1055   -24994.312   -1465.8747    683.96624    95.112127      14.5665    27.743205 
   93000    239.73561   -231.73576    204420.41   -23292.153    1740.0664   -25032.219    -272.2022    686.63354    95.110747    14.564895    27.761129 
   93200     238.4818   -515.93989    204420.41   -23278.925    1730.9659   -25009.891   -1298.1931    691.57954    95.111118    14.564658    27.749959 
   93400    239.58041   -237.64627    204420.41   -23385.797    1738.9399   -25124.737   -307.33285    689.99324    95.110583    14.563378    27.756567 
   93600    235.80097   -308.04271    204420.41   -23330.057    1711.5077   -25041.565   -559.37436    692.34524     95.11009    14.558853    27.746214 
   93800    237.36065    -277.2374    204420.41   -23347.941    1722.8283   -25070.769   -449.11918    692.99632    95.108805    14.559989     27.73348 
   94000    234.82006   -350.59994    204420.41   -23343.186     1704.388   -25047.574   -693.27802    692.92151    95.108608    14.560846     27.74557 
   94200    244.39267   -399.52305    204420.41   -23229.863    1773.8686   -25003.731   -910.02799    694.23638     95.10847    14.560721    27.737062 
   94400    234.08063   -344.73654    204420.41   -23263.499     1699.021    -24962.52   -661.96298    694.93237    95.110157    14.559163    27.746689 
   94600    241.46522   -383.30583    204420.41   -23242.756    1752.6203   -24995.376   -848.77613    693.97793    95.110839    14.557981    27.762495 
   94800    244.32306   -436.63155    204420.41    -23187.41    1773.3634   -24960.773   -991.95999    691.92757    95.109728    14.557989    27.765704 
   95000    239.96294   -209.81864    204420.41   -23254.553    1741.7164    -24996.27   -187.43862    693.21378     95.11022    14.556814     27.77909 
   95200     234.3874   -369.56233    204420.41   -23208.632    1701.2476   -24909.879   -758.06551    693.07864    95.109501    14.556723    27.782122 
   95400    248.90812   -340.75121    204420.41   -23161.457    1806.6429     -24968.1   -650.04321    692.61875    95.109095    14.556171    27.796113 
   95600     241.9358   -502.25889    204420.41   -23198.935    1756.0359   -24954.971   -1237.5292      692.602    95.108706    14.552787    27.814947 
   95800      241.434   -406.21022    204420.41   -23247.919    1752.3938   -25000.313   -896.78883    692.01134    95.109765    14.551608    27.827475 
   96000     242.8851   -188.38668    204420.41   -23207.799    1762.9262   -24970.725   -135.70495    694.61157    95.110771     14.55273    27.819363 
   96200    244.47478   -207.96211    204420.41   -23144.792    1774.4645   -24919.257   -205.11395    692.58696     95.11218    14.554234    27.854677 
   96400    239.52843   -342.36261    204420.41   -23203.992    1738.5626   -24942.555   -650.78486    694.39096    95.112153    14.553387    27.849177 
   96600    238.39395   -532.66086    204420.41   -23228.422    1730.3282    -24958.75   -1363.6471    694.05336    95.112058    14.552629    27.856088 
   96800    241.84528   -419.04145    204420.41   -23194.695    1755.3789   -24950.074   -946.91699    695.64751    95.112325    14.552051    27.877306 
   97000    240.25456   -243.15898    204420.41   -23229.742     1743.833   -24973.575   -344.01905    697.48166    95.112879    14.552181    27.876524 
   97200     236.2142   -483.35758    204420.41   -23213.903     1714.507    -24928.41   -1201.1474    697.70122    95.114314    14.554924    27.883381 
   97400    242.74522   -317.45665    204420.41   -23205.571     1761.911   -24967.482    -611.2657    696.80012    95.115585    14.556812    27.906279 
   97600    243.06492   -366.67669    204420.41   -23179.367    1764.2314   -24943.598   -745.27012    699.58503    95.114678    14.554258    27.915971 
   97800    242.21816   -228.71689    204420.41    -23202.41    1758.0854   -24960.495   -286.05515    699.71015    95.116428    14.548918    27.921849 
   98000    236.95241   -311.31129    204420.41   -23233.232    1719.8652   -24953.097   -553.95921    701.82853    95.118056    14.546693    27.909373 
   98200     235.6707    -249.2192    204420.41   -23274.933    1710.5622   -24985.495   -335.56267    700.97178    95.118057     14.54657    27.904369 
   98400    245.95722    -439.2671    204420.41   -23201.168    1785.2245   -24986.392   -965.72094    703.47734    95.119369     14.54656    27.903643 
   98600    240.68052   -341.37625    204420.41   -23222.015    1746.9248   -24968.939   -650.64616    707.26058    95.119113    14.546863    27.901459 
   98800    239.55926   -251.32415    204420.41   -23191.668    1738.7864   -24930.454   -381.22901    706.87155    95.120087    14.548656    27.885753 
   99000    238.26053   -434.60046    204420.41   -23219.247    1729.3598   -24948.606   -995.32807    710.00261    95.119957    14.548708     27.89583 
   99200    242.30908   -349.12738    204420.41   -23186.526    1758.7453   -24945.272   -677.61653    709.63901    95.120737    14.546731    27.897411 
   99400    244.04419   -350.27585    204420.41   -23184.662    1771.3392   -24956.001   -660.85666    712.25115     95.12213    14.543187    27.903248 
   99600    243.24305    -289.2317    204420.41   -23192.902    1765.5243   -24958.426   -481.80746    713.78796    95.121677     14.54369     27.91711 
   99800    244.34992   -289.67274    204420.41   -23244.392    1773.5583    -25017.95   -457.95505    714.66797    95.121894    14.543517    27.904862 
  100000    240.16729   -525.81413    204420.41   -23250.203    1743.1996   -24993.403   -1290.7223    718.39274    95.122565     14.54133    27.895218 
  100200    239.82307    -309.0411    204420.41   -23279.252    1740.7012   -25019.953   -529.21276    718.06331    95.121865    14.539898    27.883961 
  100400    245.11407   -205.73684    204420.41   -23224.476    1779.1047   -25003.581   -200.68677    715.43152    95.121318    14.542566    27.887367 
  100600    237.07774   -411.78604    204420.41   -23246.024    1720.7748   -24966.798   -916.61557    716.10229     95.12066    14.542749    27.900855 
  100800    235.28701    -216.6523    204420.41   -23291.539    1707.7772   -24999.316   -234.10044    716.99454     95.12056    14.543475    27.906198 
[...]
 5175800    225.84512    134.66626    204420.41   -25806.022    1639.2454   -27445.268    943.13859    8031.0651    95.980991    16.490197    27.294056 
 5176000    224.64919    219.86179    204420.41   -25831.327    1630.5651   -27461.892    1294.3683    8030.2109    95.980823    16.492374    27.283729 
 5176200    224.19352    164.49589    204420.41   -25850.626    1627.2577   -27477.884    1053.5953    8030.0926    95.980514    16.493932    27.288902 
 5176400    226.56713    186.41649    204420.41   -25787.214     1644.486     -27431.7    1151.6843    8030.0644    95.980471    16.494607    27.284787 
 5176600    228.04925    164.91231    204420.41    -25722.27    1655.2436   -27377.514    1062.3629    8029.9027    95.979812    16.494813     27.28469 
 5176800    225.53003    238.15055    204420.41   -25780.557    1636.9584   -27417.515    1318.6182    8030.7298      95.9804    16.496328    27.292579 
 5177000    226.06879      206.403    204420.41   -25752.756    1640.8689   -27393.625    1263.3258    8026.7249    95.981191    16.497122    27.288883 
 5177200    236.49909    292.95155    204420.41   -25729.905    1716.5748    -27446.48    1504.6038    8027.1969    95.980969    16.496162    27.286425 
 5177400    234.18944    96.338834    204420.41   -25685.905    1699.8108   -27385.716     856.1945    8035.1169    95.983318    16.496452     27.29417 
 5177600    225.26572    253.38138    204420.41   -25784.433      1635.04   -27419.473    1354.0816    8028.6057      95.9831    16.495239    27.286137 
 5177800    226.46836    86.347051    204420.41   -25804.641    1643.7691    -27448.41    774.37195    8029.6056    95.984913    16.494921    27.295835 
 5178000    229.60874    279.39809    204420.41   -25802.366    1666.5628   -27468.929    1444.5883    8029.7894    95.986217    16.494127    27.286336 
 5178200     226.0007    175.93795    204420.41   -25787.801    1640.3747   -27428.175    1148.9079    8032.0483     95.98701    16.495088    27.289758 
 5178400    225.47266    190.07932    204420.41   -25805.598     1636.542    -27442.14    1189.6371    8030.2149    95.987741    16.494615     27.29196 
 5178600    233.16887    243.13626    204420.41    -25767.24    1692.4032   -27459.643     1356.747    8029.6173    95.988844    16.494531    27.303535 
 5178800    228.15889    130.51894    204420.41   -25775.027    1656.0394   -27431.067    946.79349    8035.7537    95.990273    16.494773    27.293106 
 5179000    227.81029    317.60311    204420.41     -25805.6    1653.5091   -27459.109    1618.5317    8028.4884    95.992033    16.494905    27.297586 
 5179200    222.24833    187.53855    204420.41   -25805.232    1613.1389   -27418.371    1154.5114    8033.2396    95.993501    16.495844    27.303851 
 5179400    231.12883    242.39931    204420.41   -25734.001     1677.596   -27411.597    1331.4581    8029.6843    95.994387    16.495855    27.301914 
 5179600    226.34763    96.167168    204420.41   -25802.826    1642.8928   -27445.718    826.71033    8033.3555    95.994842    16.495719    27.301402 
 5179800    224.33695    220.00804    204420.41   -25794.898    1628.2987   -27423.197    1273.7008    8028.5939    95.994119    16.495834    27.290814 
 5180000    219.08106    69.050753    204420.41   -25879.927    1590.1501   -27470.077    735.65839    8031.7406    95.994767    16.496685    27.296583 
 5180200    219.59564    282.81618    204420.41   -25853.123     1593.885   -27447.007    1487.2975    8028.7695    95.992974    16.497439    27.301074 
 5180400    225.38058     141.3864    204420.41    -25777.17    1635.8737   -27413.044    975.56808    8031.6588    95.992648    16.499362     27.29544 
 5180600    223.63521    178.58596    204420.41   -25781.323    1623.2053   -27404.528    1139.2127    8031.0718    95.990546    16.499531    27.295645 
 5180800    228.12028    184.78872    204420.41   -25813.118    1655.7592   -27468.878    1177.4916    8029.8064    95.989839    16.501367    27.288618 
 5181000    222.58317    93.870945    204420.41   -25859.139    1615.5693   -27474.708    807.41786    8034.8985    95.989418    16.504266    27.283198 
 5181200    222.79604     152.5371    204420.41   -25824.125    1617.1144    -27441.24    1057.5291    8032.9578    95.987978    16.506326    27.283389 
 5181400    234.01933    313.84693    204420.41   -25741.068     1698.576   -27439.644    1612.5469    8022.9448    95.988791    16.506823    27.290514 
 5181600    217.89471    40.549219    204420.41   -25852.769    1581.5392   -27434.308    633.73107    8036.1494    95.989811    16.507156    27.292759 
 5181800    227.50638      222.739    204420.41   -25750.593    1651.3033   -27401.896      1258.92     8028.746    95.990417    16.507805    27.285178 
 5182000    226.88994    105.86093    204420.41   -25778.692     1646.829   -27425.521    903.71194    8034.1016    95.990349    16.505908    27.302621 
 5182200    224.57174    297.32132    204420.41   -25747.193    1630.0029   -27377.196     1534.464    8028.7276    95.991056    16.504566    27.293714 
 5182400    226.48485    202.84331    204420.41   -25826.189    1643.8888   -27470.077    1200.6244    8032.0886    95.992021    16.503767    27.300635 
 5182600    223.96676    143.52093    204420.41   -25785.788    1625.6118     -27411.4     978.7604    8032.2925    95.992034    16.504771    27.293145 
 5182800    230.03409    247.44484    204420.41   -25759.169    1669.6501   -27428.819    1386.7178    8028.5356    95.991991    16.504167    27.301698 
 5183000    233.14029    162.18694    204420.41   -25732.665    1692.1958    -27424.86    1064.9783    8033.6052    95.992126    16.505264    27.297665 
 5183200    230.28228    195.40593    204420.41   -25754.987    1671.4516   -27426.439    1198.5863    8031.1314    95.992264    16.506313    27.290138 
 5183400    221.14503    290.40315    204420.41   -25882.168    1605.1309   -27487.298    1530.7667    8028.0768    95.992043    16.507343    27.296062 
 5183600    222.32649    126.88813    204420.41   -25853.726    1613.7062   -27467.433    931.40959    8036.0656     95.99141    16.508065    27.283696 
 5183800    219.66026    271.84056    204420.41   -25836.973     1594.354   -27431.327    1462.9986    8027.7181    95.991009    16.506481    27.287461 
 5184000    227.75328     93.86495    204420.41    -25753.57    1653.0954   -27406.666    820.09888    8038.9846    95.990848    16.505739    27.302919 
 5184200    226.22837     312.4086    204420.41   -25776.309    1642.0272   -27418.337    1583.7083    8031.7584     95.99093    16.504797    27.292262 
 5184400    231.53296    169.56267    204420.41   -25753.486    1680.5293   -27434.015    1088.5117    8029.7642    95.991469    16.503559    27.299652 
 5184600    222.25634    147.44803    204420.41   -25803.435    1613.1971   -27416.632    1039.7838    8035.5633     95.99115    16.503213    27.284541 
 5184800    226.06464    126.78948    204420.41   -25775.839    1640.8388   -27416.678    973.30713    8030.8712    95.990319    16.501512    27.282082 
 5185000     225.7792    276.26174    204420.41   -25786.066    1638.7669   -27424.833    1475.9325    8030.5343    95.989843    16.500204    27.285938 
 5185200    227.52243    98.753716    204420.41   -25845.878    1651.4198   -27497.298    824.30642     8036.513    95.989947    16.498228    27.288108 
 5185400    223.86233     299.0911    204420.41    -25783.31    1624.8538   -27408.164    1515.0098    8023.7666    95.988431    16.496563    27.290999 
 5185600    228.15115    84.433894    204420.41   -25772.814    1655.9832   -27428.797    854.73314    8037.1063    95.987071    16.494612    27.298725 
 5185800    227.52962    280.91006    204420.41   -25743.775     1651.472   -27395.247    1458.1897     8027.274    95.986333    16.493475    27.287395 
 5186000     226.5572    166.54354    204420.41   -25756.911    1644.4139   -27401.324    1104.6325    8031.7751    95.987063    16.495605    27.297522 
 5186200    235.81074    186.33723    204420.41   -25735.172    1711.5786   -27446.751    1173.3753    8032.2686     95.98666    16.494345    27.294909 
 5186400    228.99733    203.13817    204420.41   -25778.727     1662.125   -27440.852    1169.4476    8031.7789    95.986793    16.493533    27.302393 
 5186600    230.30196     211.0195    204420.41   -25771.149    1671.5944   -27442.744    1252.3055    8034.2443      95.9871    16.493058    27.294589 
 5186800    228.19571    179.63752    204420.41   -25781.189    1656.3066   -27437.495    1148.3785     8030.195    95.987309    16.493154    27.289606 
 5187000    226.54091    118.11862    204420.41   -25749.906    1644.2956   -27394.202     882.4666    8031.5349    95.988335    16.494026    27.286548 
 5187200    220.67231    187.70579    204420.41   -25787.934    1601.6998   -27389.634    1199.9858    8034.4615    95.989134    16.495155     27.28283 
 5187400    224.34493    182.84742    204420.41   -25826.461    1628.3566   -27454.818    1113.6142    8025.7793    95.988677    16.496616    27.283708 
 5187600    226.31513    181.37674    204420.41   -25732.373    1642.6569    -27375.03    1161.0138    8032.3882    95.988907    16.495571    27.286616 
 5187800    227.79804    188.81497    204420.41   -25789.219    1653.4203    -27442.64    1164.7548    8032.3443    95.988969    16.493572    27.279231 
 5188000    227.36564    242.61703    204420.41   -25727.886    1650.2818   -27378.168    1339.0034    8028.0884     95.98828    16.492644    27.284453 
 5188200    224.16911    155.98155    204420.41   -25776.004    1627.0805   -27403.085    1015.3231    8032.7187    95.986788    16.491833    27.280093 
 5188400    226.06084    122.82355    204420.41   -25771.105    1640.8112   -27411.916    920.29251    8029.5555      95.9851    16.489308     27.27612 
 5188600    226.55955    135.89293    204420.41   -25802.025     1644.431   -27446.456    970.08787    8031.7965    95.982443    16.489486    27.284816 
 5188800    221.45073    315.20565    204420.41   -25841.892    1607.3497   -27449.242    1607.9005    8029.5247    95.981608    16.487101    27.280538 
 5189000    227.70049    32.596865    204420.41   -25796.777    1652.7122    -27449.49    587.87124    8036.8103     95.98062     16.48582      27.2779 
 5189200    221.10194    312.31693    204420.41   -25903.958    1604.8181   -27508.777    1604.0797    8025.7532    95.978973    16.485228    27.285784 
 5189400    216.41901   -11.531365    204420.41   -25845.226    1570.8281   -27416.054    443.83212    8037.7173    95.977517    16.485134    27.284031 
 5189600    232.87067    386.48386    204420.41   -25776.829    1690.2387   -27467.067    1877.0262    8022.3045    95.976156    16.486003    27.279004 
 5189800    222.90687    107.00352    204420.41   -25806.201    1617.9188    -27424.12    875.53004    8035.0223    95.975003     16.48649    27.283996 
 5190000    226.02369    258.93865    204420.41   -25792.644    1640.5416   -27433.186    1395.7741    8034.3105    95.974212     16.48618    27.271196 
 5190200    223.68072    159.98923    204420.41     -25803.4    1623.5356   -27426.935    1074.8748    8032.5805    95.972591    16.485978    27.270704 
 5190400    230.68784    340.42971    204420.41   -25710.986    1674.3952   -27385.382    1699.9122    8025.3402    95.970242    16.486906    27.275925 
 5190600    225.65796   -23.917176    204420.41   -25778.624    1637.8869   -27416.511    417.28323     8037.277      95.9699    16.487376    27.280647 
 5190800    228.18025    335.45935    204420.41   -25762.849    1656.1944   -27419.043    1630.6246    8025.4701    95.968497    16.485401    27.284742 
 5191000    225.70031    124.21776    204420.41   -25797.267    1638.1944   -27435.461    958.46678     8032.018    95.968159    16.484292    27.289633 
 5191200    228.90908    260.97225    204420.41   -25793.154    1661.4845   -27454.639    1415.7146    8028.1406    95.966825    16.481209    27.286664 
 5191400    225.49694    179.58608    204420.41   -25780.468    1636.7182   -27417.186    1138.1524    8028.5636    95.966578    16.478826    27.284608 
 5191600     231.9769    171.04445    204420.41   -25801.755    1683.7515   -27485.507    1069.9769    8030.2733    95.965776    16.475804    27.292281 
 5191800    229.11182     151.3864    204420.41   -25747.915     1662.956   -27410.871    994.01157    8028.3307    95.965244    16.473597    27.284313 
 5192000    230.09449    190.88033    204420.41   -25731.751    1670.0885   -27401.839    1140.9013    8029.0905    95.963861    16.472107    27.292177 
 5192200     225.8701    68.684911    204420.41   -25788.618    1639.4267   -27428.045    701.88767    8030.5547    95.963909    16.470829    27.289878 
 5192400     222.5228    282.78266    204420.41   -25794.911    1615.1311   -27410.042    1445.8424    8025.4986    95.962649    16.470684    27.280552 
 5192600    229.33004    94.050129    204420.41    -25823.77    1664.5399    -27488.31    842.49893    8035.0821    95.962492    16.471282    27.288023 
 5192800    227.79101    221.11621    204420.41   -25767.872    1653.3692   -27421.241    1268.5322    8027.0172    95.962764    16.472966    27.281332 
 5193000    223.94852    136.54953    204420.41   -25840.405    1625.4794   -27465.884    1002.7468    8031.2064    95.963194    16.475198    27.295562 
 5193200    223.39113    109.00565    204420.41    -25761.51    1621.4337   -27382.943     878.4985    8033.5949    95.962421     16.47787     27.28648 
 5193400    229.84286    188.68943    204420.41    -25768.91    1668.2621   -27437.172    1129.8379    8025.1209    95.962106    16.480066    27.293191 
 5193600    231.24373    148.46525    204420.41   -25751.916      1678.43   -27430.346    1024.4445    8029.3033    95.960955     16.48197    27.288238 
 5193800    227.31164    64.489507    204420.41   -25775.916    1649.8898   -27425.806    720.98729    8035.7032    95.961791    16.485577    27.287612 
 5194000    221.07223    221.76741    204420.41   -25886.596    1604.6025   -27491.198    1243.6618    8030.1519    95.960845    16.488347    27.285654 
 5194200    222.88457    121.26778    204420.41   -25826.483     1617.757    -27444.24     923.8908    8033.1177    95.960039    16.489778    27.278145 
 5194400    224.51155    205.42121    204420.41   -25775.659     1629.566   -27405.225    1194.9532    8031.0515    95.958972    16.490504    27.281862 
 5194600    228.29491    151.55445    204420.41   -25739.339    1657.0267   -27396.366    1050.6717    8033.4035    95.958452    16.491672    27.284235 
 5194800    225.93227     174.4904    204420.41    -25772.04     1639.878   -27411.918    1063.5553    8032.5508    95.957591    16.491809    27.282984 
 5195000    226.10082    201.14721    204420.41    -25777.62    1641.1013   -27418.721    1217.6702    8029.0389    95.957034    16.489874    27.281356 
 5195200    222.46672    130.51181    204420.41   -25767.578     1614.724   -27382.302    954.62084    8034.6338    95.957341    16.490132    27.286773 
 5195400    224.98755    265.08877    204420.41    -25778.39    1633.0209   -27411.411    1403.9023    8026.8552    95.958726    16.490631    27.290855 
 5195600    223.69486    106.81772    204420.41   -25814.249    1623.6382   -27437.887     859.0321     8032.998    95.959357    16.489913    27.292429 
 5195800    231.27143    189.71274    204420.41    -25702.09     1678.631   -27380.721    1139.0766    8029.1092    95.958505    16.490498    27.284177 
 5196000    232.08123    165.49643    204420.41   -25779.862    1684.5088   -27464.371    1093.5997    8025.9744    95.958134    16.487527    27.286719 
 5196200    231.09136    240.68953    204420.41   -25783.859    1677.3241   -27461.183    1326.1426    8030.7416    95.958165    16.485242    27.277504 
 5196400    227.36464    161.57254    204420.41   -25773.055    1650.2745    -27423.33    1069.4006    8028.9199     95.95764    16.484341    27.281342 
 5196600    227.23076    256.71705    204420.41   -25757.017    1649.3028    -27406.32    1426.9934    8029.6494    95.957804    16.483363    27.283458 
 5196800    221.94795    187.56353    204420.41   -25747.469    1610.9587   -27358.428    1130.3563    8031.2649    95.956734    16.483033    27.287132 
 5197000    234.37714    304.09241    204420.41   -25717.436    1701.1732   -27418.609    1569.0619    8028.4314    95.956934    16.483732    27.292344 
 5197200     224.3961    133.45929    204420.41   -25796.422     1628.728    -27425.15    989.08118    8033.9165    95.956602    16.484934    27.286512 
 5197400    228.72921    229.51007    204420.41   -25803.021    1660.1789     -27463.2    1283.3796     8028.145    95.956924    16.484984    27.288627 
 5197600    223.40438    112.41312    204420.41    -25832.98    1621.5298    -27454.51    900.63157    8031.7312     95.95693    16.485724     27.28693 
 5197800     219.5846    115.11367    204420.41   -25862.707    1593.8049   -27456.512    866.77328    8030.0433    95.957149    16.487068    27.291069 
 5198000    232.72179    247.51246    204420.41   -25733.443    1689.1582   -27422.601    1349.2897     8028.732    95.957104    16.488635    27.291672 
 5198200    228.24389    130.43851    204420.41   -25750.627    1656.6564   -27407.284    923.39376     8037.077    95.957342    16.489266    27.291941 
 5198400    226.60277    228.49358    204420.41   -25818.525    1644.7446    -27463.27    1299.3815    8029.0438    95.956827    16.491855    27.280277 
 5198600    223.44542    137.99619    204420.41   -25869.547    1621.8277   -27491.375    1013.9997     8030.805    95.955342    16.491328    27.284157 
 5198800    228.18132     136.0605    204420.41   -25787.166    1656.2022   -27443.368     957.4454    8034.0825     95.95373    16.491143    27.282985 
 5199000    232.28419    276.58955    204420.41   -25736.671     1685.982   -27422.653    1454.7059    8029.8986    95.952932    16.491776    27.284292 
 5199200    228.10017    113.86998    204420.41   -25794.254    1655.6132   -27449.867     908.2784    8033.9738    95.952913    16.491928    27.289849 
 5199400    229.23392    273.50832    204420.41   -25776.479    1663.8422   -27440.321    1419.6245    8026.8597    95.952196    16.491664    27.292621 
 5199600    229.53853    74.879733    204420.41   -25763.363    1666.0532   -27429.416    772.37654    8035.6252    95.950724    16.492862    27.291995 
 5199800    227.70707    337.81305    204420.41   -25787.574      1652.76   -27440.334    1685.1636    8029.2207    95.949948    16.493766    27.284953 
 5200000    232.26815    150.78775    204420.41   -25744.324    1685.8656   -27430.189    1040.0425    8031.7009    95.949966    16.493894    27.290956 
Loop time of 5644.85 on 64 procs for 5200000 steps with 8482 atoms

Performance: 795.912 ns/day, 0.030 hours/ns, 921.194 timesteps/s
100.0% CPU use with 64 MPI tasks x no OpenMP threads

MPI task timing breakdown:
Section |  min time  |  avg time  |  max time  |%varavg| %total
---------------------------------------------------------------
Pair    | 0.42933    | 1953.2     | 4305.7     |3513.9 | 34.60
Neigh   | 4.7126     | 223.87     | 520.41     |1148.6 |  3.97
Comm    | 114.03     | 1199.1     | 3281.1     |2740.7 | 21.24
Output  | 136.95     | 137.03     | 137.25     |   0.3 |  2.43
Modify  | 204.8      | 2076.8     | 5331.3     |4443.2 | 36.79
Other   |            | 54.82      |            |       |  0.97

Nlocal:    132.531 ave 260 max 0 min
Histogram: 16 2 0 2 12 0 2 12 6 12
Nghost:    808.766 ave 1132 max 520 min
Histogram: 13 7 10 2 0 5 3 2 16 6
Neighs:    0 ave 0 max 0 min
Histogram: 64 0 0 0 0 0 0 0 0 0
FullNghs:  13325.7 ave 28963 max 0 min
Histogram: 18 14 0 0 0 0 2 7 11 12

Total # of neighbors = 852846
Ave neighs/atom = 100.548
Neighbor list builds = 549635
Dangerous builds = 0
write_data 		${DIR}/data.${NAME}_run
write_data 		run_2/data.${NAME}_run
write_data 		run_2/data.ibeam_cooling_2_run
Total wall time: 1:34:16
