
### Dimensions ###


### IMPORT ATOMS ###
read_data ../Box_Setup/data.Ibeam_240K
  orthogonal box = (0 0 0) to (189.989 26.9999 39.8504)
  16 by 2 by 2 MPI processor grid
  reading atoms ...
  8482 atoms
  reading velocities ...
  8482 velocities
group water type 2
2436 atoms in group water
group graphite type 1
6046 atoms in group graphite


# Define potential
#
pair_style          sw
pair_coeff * * MLC_e.sw C mW

# Add velocity/set timestep
#

fix		1 graphite setforce 0.0 0.0 0.0
velocity 	graphite set 0.0 0.0 0.0
velocity            water create ${START_TEMP} ${SEED} rot yes dist gaussian
velocity            water create 240 ${SEED} rot yes dist gaussian
velocity            water create 240 8463 rot yes dist gaussian
timestep            5.0

# Define output
#
compute 1 water msd
compute 2 water temp


thermo	            100
thermo_style custom step c_2 press vol etotal ke pe c_1[4] density

# Neighbor lists
#
neigh_modify        delay 0 every 1 check yes


# Set fixes
#
fix                 2 water momentum 10 linear 1 1 1 rescale
fix                 3 all nve
fix                 4 water temp/csvr ${START_TEMP} ${START_TEMP} 500.0 928347
fix                 4 water temp/csvr 240 ${START_TEMP} 500.0 928347
fix                 4 water temp/csvr 240 240 500.0 928347

# Run 0.05 ns equilibration
#
dump                1 all custom 100 ${DIR}/eq.${NAME}.dump id type x y z vx vy vz
dump                1 all custom 100 run_2/eq.${NAME}.dump id type x y z vx vy vz
dump                1 all custom 100 run_2/eq.ibeam_cooling_2.dump id type x y z vx vy vz
run                 10000
Neighbor list info ...
  update every 1 steps, delay 0 steps, check yes
  max neighbors/atom: 2000, page size: 100000
  master list distance cutoff = 6.67472
  ghost atom cutoff = 6.67472
  binsize = 3.33736, bins = 57 9 12
  1 neighbor lists, perpetual/occasional/extra = 1 0 0
  (1) pair sw, perpetual
      attributes: full, newton on
      pair build: full/bin/atomonly
      stencil: full/bin/3d
      bin: standard
Per MPI rank memory allocation (min/avg/max) = 3.381 | 4.313 | 4.753 Mbytes
Step c_2 Press Volume TotEng KinEng PotEng c_1[4] Density 
       0          240   -262.64038    204420.41   -23347.773    1741.9854   -25089.758            0   0.94632332 
     100    242.41744   -402.36036    204420.41   -23362.102    1759.5319   -25121.634   0.80246883   0.94632332 
     200    238.13254   -195.63247    204420.41   -23392.145    1728.4309   -25120.576    1.2346135   0.94632332 
     300    235.44862   -305.02653    204420.41   -23376.289    1708.9503   -25085.239    1.5926086   0.94632332 
     400    240.80854   -7.3860838    204420.41   -23394.376     1747.854    -25142.23    1.8045806   0.94632332 
     500    237.04723   -325.35934    204420.41    -23378.78    1720.5534   -25099.334    2.2085712   0.94632332 
     600    241.83188   -380.43126    204420.41    -23299.21    1755.2817   -25054.492    2.6486189   0.94632332 
     700    245.97726   -531.67509    204420.41   -23304.073      1785.37   -25089.443    3.0135561   0.94632332 
     800      236.312   -385.57379    204420.41   -23281.085    1715.2169   -24996.302     3.396903   0.94632332 
     900    243.27654   -247.95848    204420.41   -23295.265    1765.7674   -25061.033    3.7235737   0.94632332 
    1000    242.38986   -495.64627    204420.41   -23319.687    1759.3316   -25079.019    4.1567839   0.94632332 
    1100    238.65985   -285.18971    204420.41   -23289.664    1732.2582   -25021.923    4.5184836   0.94632332 
    1200    240.22538   -420.95457    204420.41   -23299.508    1743.6213   -25043.129      4.99431   0.94632332 
    1300    247.17673   -400.72245    204420.41   -23252.315    1794.0761   -25046.391    5.1561633   0.94632332 
    1400    242.42491   -339.29348    204420.41   -23299.382    1759.5861   -25058.968    5.4431028   0.94632332 
    1500    235.18758   -367.41204    204420.41   -23322.539    1707.0556   -25029.595    5.6290467   0.94632332 
    1600    242.43452    -299.1963    204420.41   -23297.319    1759.6558   -25056.974    6.0474599   0.94632332 
    1700    241.45948   -320.67035    204420.41   -23314.952    1752.5787   -25067.531    6.5131698   0.94632332 
    1800    237.64246   -430.76887    204420.41   -23270.695    1724.8737   -24995.569    7.0111933   0.94632332 
    1900    248.69236   -451.27834    204420.41   -23237.547    1805.0769   -25042.624    7.4681498   0.94632332 
    2000    244.48829   -538.01241    204420.41    -23207.52    1774.5626   -24982.082     7.984665   0.94632332 
    2100    241.87015   -333.35173    204420.41   -23303.962    1755.5595   -25059.521    8.2894955   0.94632332 
    2200    238.31684   -398.96791    204420.41   -23257.947    1729.7685   -24987.716    8.6536854   0.94632332 
    2300    239.21186   -411.14973    204420.41   -23221.602    1736.2649   -24957.866    9.0164723   0.94632332 
    2400    249.41651   -181.16366    204420.41   -23228.959     1810.333   -25039.292    9.2192407   0.94632332 
    2500    238.52637   -246.48701    204420.41   -23261.804    1731.2894   -24993.093    9.6731018   0.94632332 
    2600    236.88523   -296.67999    204420.41   -23264.186    1719.3775   -24983.563    10.015541   0.94632332 
    2700    237.02522   -461.18442    204420.41   -23243.374    1720.3936   -24963.768    10.440906   0.94632332 
    2800    245.98893   -76.746221    204420.41   -23187.705    1785.4547    -24973.16    10.778257   0.94632332 
    2900     240.6141   -302.93757    204420.41   -23188.994    1746.4427   -24935.437    11.237216   0.94632332 
    3000    243.68937   -308.00919    204420.41   -23176.683    1768.7638   -24945.447    11.636708   0.94632332 
    3100    245.04626   -229.45451    204420.41   -23167.331    1778.6125   -24945.944    12.088512   0.94632332 
    3200    243.03279   -265.78944    204420.41   -23247.735    1763.9982   -25011.733    12.529126   0.94632332 
    3300     237.0569   -323.53321    204420.41   -23346.236    1720.6235    -25066.86    12.648965   0.94632332 
    3400    240.31637   -357.25221    204420.41   -23306.674    1744.2817   -25050.956    12.936214   0.94632332 
    3500    240.12409   -200.14059    204420.41   -23291.166    1742.8861   -25034.052    13.507953   0.94632332 
    3600    234.39674   -313.09155    204420.41   -23277.018    1701.3154   -24978.333    13.795971   0.94632332 
    3700    244.16568   -426.69636    204420.41   -23252.427    1772.2211   -25024.648    14.257865   0.94632332 
    3800     237.6517   -397.14882    204420.41   -23236.695    1724.9408   -24961.636    14.655999   0.94632332 
    3900    240.80281   -439.20353    204420.41    -23241.85    1747.8124   -24989.662    15.040576   0.94632332 
    4000    241.83262   -358.11946    204420.41   -23282.483    1755.2871    -25037.77    15.389533   0.94632332 
    4100    243.50093   -384.59671    204420.41   -23278.882    1767.3961   -25046.279    15.680461   0.94632332 
    4200    234.73568   -583.07346    204420.41   -23242.052    1703.7755   -24945.828    16.028248   0.94632332 
    4300    229.89468   -460.31769    204420.41    -23295.17    1668.6382   -24963.808    16.435268   0.94632332 
    4400    249.47447   -599.57401    204420.41   -23251.641    1810.7537   -25062.395    16.667788   0.94632332 
    4500    243.96826   -363.77362    204420.41   -23289.296    1770.7881   -25060.084    16.898128   0.94632332 
    4600    236.31506   -379.80073    204420.41   -23344.329    1715.2391   -25059.568    17.235819   0.94632332 
    4700    238.95842   -77.376296    204420.41    -23284.06    1734.4254   -25018.486      17.6659   0.94632332 
    4800    241.95322   -50.670047    204420.41   -23255.313    1756.1624   -25011.475    17.964345   0.94632332 
    4900    245.62795   -209.96134    204420.41   -23219.162    1782.8346   -25001.997    18.390943   0.94632332 
    5000     238.0885   -317.03161    204420.41   -23285.197    1728.1112   -25013.308    18.803948   0.94632332 
    5100    239.37573   -383.68152    204420.41   -23246.679    1737.4543   -24984.133    18.939023   0.94632332 
    5200    243.19682   -542.22285    204420.41   -23281.327    1765.1888   -25046.516    19.410789   0.94632332 
    5300    235.31288   -366.05563    204420.41   -23334.411     1707.965   -25042.376    19.666603   0.94632332 
    5400    241.94264   -257.77577    204420.41   -23324.052    1756.0856   -25080.138    20.094319   0.94632332 
    5500    234.98184   -455.32449    204420.41   -23318.951    1705.5622   -25024.513    20.691419   0.94632332 
    5600    238.72598   -394.09619    204420.41   -23329.586    1732.7382   -25062.324    20.960196   0.94632332 
    5700    235.24928    -398.2793    204420.41   -23294.713    1707.5034   -25002.216     21.25771   0.94632332 
    5800    239.30482   -534.29986    204420.41   -23277.192    1736.9396   -25014.131    21.663039   0.94632332 
    5900    239.03656   -306.49275    204420.41   -23298.889    1734.9925   -25033.881    21.957931   0.94632332 
    6000    234.96806   -408.30239    204420.41   -23313.955    1705.4622   -25019.417    22.381072   0.94632332 
    6100    242.62799   -226.38448    204420.41   -23343.583      1761.06   -25104.643     22.66731   0.94632332 
    6200    242.19694      -245.35    204420.41   -23344.552    1757.9314   -25102.483    22.844113   0.94632332 
    6300    244.74802   -181.43817    204420.41   -23265.401    1776.4478   -25041.848     23.24368   0.94632332 
    6400    231.85537   -511.06113    204420.41   -23304.242    1682.8694   -24987.111     23.56947   0.94632332 
    6500    234.51107   -431.49596    204420.41   -23304.426    1702.1453   -25006.571    23.907651   0.94632332 
    6600    239.50434   -246.02551    204420.41   -23304.862    1738.3878    -25043.25    24.004811   0.94632332 
    6700    231.06019   -279.57515    204420.41   -23341.604    1677.0978   -25018.701    24.305128   0.94632332 
    6800    240.83894   -355.94209    204420.41    -23317.57    1748.0746   -25065.645    24.459864   0.94632332 
    6900    236.17095   -463.47839    204420.41   -23260.618    1714.1931   -24974.811     24.77208   0.94632332 
    7000    241.49794   -372.64858    204420.41   -23255.485    1752.8579   -25008.343    25.088684   0.94632332 
    7100    243.70029   -363.63294    204420.41   -23264.426    1768.8431   -25033.269    25.639972   0.94632332 
    7200    238.24915   -431.52522    204420.41   -23321.855    1729.2773   -25051.132    25.825666   0.94632332 
    7300    228.53732   -376.49758    204420.41   -23343.969    1658.7861   -25002.756    26.040755   0.94632332 
    7400    236.26884   -442.59018    204420.41   -23298.914    1714.9036   -25013.818    26.356339   0.94632332 
    7500     237.9329   -348.12918    204420.41   -23281.384    1726.9818   -25008.365    26.815317   0.94632332 
    7600    241.78466   -308.52322    204420.41   -23246.206    1754.9389   -25001.144    27.478425   0.94632332 
    7700     244.1232   -337.48409    204420.41   -23260.682    1771.9127   -25032.595    27.847511   0.94632332 
    7800    232.53747   -251.21636    204420.41   -23336.428    1687.8203   -25024.249    28.339913   0.94632332 
    7900    243.75949   -383.56215    204420.41   -23294.479    1769.2728   -25063.752    28.908981   0.94632332 
    8000     241.9855   -258.15013    204420.41   -23220.947    1756.3967   -24977.343    29.597908   0.94632332 
    8100    244.68531   -387.03222    204420.41   -23197.765    1775.9926   -24973.757    29.923782   0.94632332 
    8200    243.70904   -296.67924    204420.41   -23208.608    1768.9066   -24977.515    30.167985   0.94632332 
    8300    243.75181   -544.05281    204420.41   -23182.464     1769.217   -24951.681    30.704451   0.94632332 
    8400    240.32908   -440.05835    204420.41   -23163.957    1744.3739   -24908.331    31.401302   0.94632332 
    8500    240.21529   -452.52387    204420.41   -23205.557     1743.548   -24949.105    31.727812   0.94632332 
    8600     242.9163   -520.01268    204420.41    -23214.54    1763.1527   -24977.693    31.969685   0.94632332 
    8700    240.33016   -462.89455    204420.41   -23242.567    1744.3818   -24986.949    31.953862   0.94632332 
    8800    241.92476   -222.63379    204420.41   -23255.914    1755.9558   -25011.869    32.364324   0.94632332 
    8900    238.80945   -198.13261    204420.41   -23299.263     1733.344   -25032.607    32.920814   0.94632332 
    9000    243.81881   -260.26318    204420.41   -23262.994    1769.7033   -25032.697    33.275241   0.94632332 
    9100    243.82419   -375.84538    204420.41   -23277.025    1769.7424   -25046.767    33.599065   0.94632332 
    9200    242.84535    -229.1092    204420.41   -23227.189    1762.6377   -24989.826    34.147482   0.94632332 
    9300    232.32036   -120.57713    204420.41   -23294.273    1686.2444   -24980.518     34.66854   0.94632332 
    9400     243.4526   -304.81208    204420.41   -23264.922    1767.0453   -25031.967    34.905779   0.94632332 
    9500     234.1821   -345.73099    204420.41   -23311.854    1699.7575   -25011.612    35.203614   0.94632332 
    9600    239.49004   -433.92629    204420.41   -23312.808     1738.284   -25051.092    35.598857   0.94632332 
    9700    242.39979   -427.74864    204420.41   -23270.162    1759.4037   -25029.565    36.314876   0.94632332 
    9800    242.72137   -207.41402    204420.41   -23218.958    1761.7378   -24980.696    36.464896   0.94632332 
    9900    241.64989   -365.81989    204420.41   -23239.967    1753.9607   -24993.927    37.030467   0.94632332 
   10000    239.92253   -432.31739    204420.41   -23245.319    1741.4231   -24986.742    37.371412   0.94632332 
Loop time of 10.9349 on 64 procs for 10000 steps with 8482 atoms

Performance: 395.064 ns/day, 0.061 hours/ns, 914.500 timesteps/s
100.0% CPU use with 64 MPI tasks x no OpenMP threads

MPI task timing breakdown:
Section |  min time  |  avg time  |  max time  |%varavg| %total
---------------------------------------------------------------
Pair    | 0.00083337 | 3.9162     | 8.9013     | 170.5 | 35.81
Neigh   | 0.0050222  | 0.23688    | 0.55057    |  36.8 |  2.17
Comm    | 0.19137    | 1.9799     | 7.0304     | 121.5 | 18.11
Output  | 0.17131    | 0.17137    | 0.17211    |   0.0 |  1.57
Modify  | 0.31893    | 4.5172     | 10.462     | 195.7 | 41.31
Other   |            | 0.1133     |            |       |  1.04

Nlocal:    132.531 ave 262 max 0 min
Histogram: 16 0 3 2 11 0 2 15 4 11
Nghost:    806.938 ave 1155 max 520 min
Histogram: 14 10 8 0 4 2 2 4 15 5
Neighs:    0 ave 0 max 0 min
Histogram: 64 0 0 0 0 0 0 0 0 0
FullNghs:  13281.6 ave 29048 max 0 min
Histogram: 17 15 0 0 0 0 2 9 11 10

Total # of neighbors = 850022
Ave neighs/atom = 100.215
Neighbor list builds = 580
Dangerous builds = 0
write_data 	    ${DIR}/data.${NAME}_eq
write_data 	    run_2/data.${NAME}_eq
write_data 	    run_2/data.ibeam_cooling_2_eq

undump              1
unfix               4



################################################
#######         Run Simulation         #########
################################################

reset_timestep      0
timestep	    10.0
log                 ${DIR}/log.run_${NAME}
log                 run_2/log.run_${NAME}
log                 run_2/log.run_ibeam_cooling_2
