LAMMPS data file via write_data, version 29 Sep 2021, timestep = 5200000

9436 atoms
2 atom types

0 157.504 xlo xhi
0 36.48765944037512 ylo yhi
0 45.87204637965853 zlo zhi

Masses

1 12.01
2 18.015

Atoms # atomic

1 1 0 2.8417180249513345 1.677 0 0 0
3 1 0 0 1.677 0 0 0
5 1 1.2305 0.7104295062378347 1.677 0 0 0
12 1 1.2305 2.1312885187135 1.677 0 0 0
14 1 2.461 2.8417180249513345 1.677 0 0 0
16 1 2.461 0 1.677 0 0 0
18 1 3.6915 0.7104295062378347 1.677 0 0 0
33 1 3.6914999999999996 2.1312885187135 1.677 0 0 0
35 1 4.922 2.841718024951334 1.677 0 0 0
37 1 4.922 0 1.677 0 0 0
39 1 6.1525 0.7104295062378343 1.677 0 0 0
62 1 6.1525 2.1312885187134993 1.677 0 0 0
64 1 7.382999999999999 2.8417180249513345 1.677 0 0 0
66 1 7.382999999999999 0 1.677 0 0 0
68 1 8.613499999999998 0.7104295062378343 1.677 0 0 0
97 1 8.613499999999998 2.1312885187135002 1.677 0 0 0
99 1 9.844 2.8417180249513336 1.677 0 0 0
101 1 9.844 0 1.677 0 0 0
103 1 11.0745 0.7104295062378334 1.677 0 0 0
132 1 11.0745 2.1312885187135002 1.677 0 0 0
134 1 12.305 2.8417180249513336 1.677 0 0 0
136 1 12.305 0 1.677 0 0 0
138 1 13.535499999999999 0.7104295062378352 1.677 0 0 0
167 1 13.535499999999999 2.1312885187134984 1.677 0 0 0
169 1 14.765999999999998 2.8417180249513354 1.677 0 0 0
171 1 14.765999999999998 0 1.677 0 0 0
6 1 0 7.104295062378334 1.677 0 0 0
8 1 0 4.262577037427 1.677 0 0 0
10 1 1.2305000000000001 4.973006543664834 1.677 0 0 0
25 1 1.2305 6.393865556140499 1.677 0 0 0
27 1 2.461 7.104295062378334 1.677 0 0 0
29 1 2.461 4.262577037427 1.677 0 0 0
31 1 3.6914999999999996 4.973006543664834 1.677 0 0 0
54 1 3.6914999999999996 6.393865556140499 1.677 0 0 0
56 1 4.922 7.104295062378334 1.677 0 0 0
58 1 4.922 4.262577037426999 1.677 0 0 0
60 1 6.1525 4.973006543664834 1.677 0 0 0
89 1 6.1525 6.393865556140499 1.677 0 0 0
91 1 7.383 7.104295062378334 1.677 0 0 0
93 1 7.382999999999999 4.262577037427 1.677 0 0 0
95 1 8.6135 4.973006543664834 1.677 0 0 0
124 1 8.6135 6.3938655561405 1.677 0 0 0
126 1 9.844 7.104295062378334 1.677 0 0 0
128 1 9.844 4.2625770374270004 1.677 0 0 0
130 1 11.074499999999999 4.973006543664834 1.677 0 0 0
159 1 11.074499999999999 6.393865556140499 1.677 0 0 0
161 1 12.305 7.104295062378334 1.677 0 0 0
163 1 12.305 4.262577037426999 1.677 0 0 0
165 1 13.535499999999999 4.973006543664834 1.677 0 0 0
194 1 13.535499999999999 6.393865556140499 1.677 0 0 0
196 1 14.765999999999998 7.104295062378332 1.677 0 0 0
198 1 14.766 4.262577037426999 1.677 0 0 0
21 1 0 8.525154074854 1.677 0 0 0
23 1 1.2304999999999997 9.235583581091834 1.677 0 0 0
46 1 1.2304999999999997 10.656442593567498 1.677 0 0 0
50 1 2.4609999999999994 8.525154074854 1.677 0 0 0
52 1 3.6915 9.235583581091834 1.677 0 0 0
81 1 3.6914999999999996 10.6564425935675 1.677 0 0 0
85 1 4.922 8.525154074854 1.677 0 0 0
87 1 6.1525 9.235583581091834 1.677 0 0 0
116 1 6.1525 10.6564425935675 1.677 0 0 0
120 1 7.383 8.525154074854 1.677 0 0 0
122 1 8.613499999999998 9.235583581091834 1.677 0 0 0
151 1 8.613499999999998 10.656442593567498 1.677 0 0 0
155 1 9.844 8.525154074853997 1.677 0 0 0
157 1 11.074499999999999 9.235583581091834 1.677 0 0 0
186 1 11.0745 10.656442593567498 1.677 0 0 0
190 1 12.305 8.525154074854 1.677 0 0 0
192 1 13.535499999999999 9.235583581091833 1.677 0 0 0
221 1 13.535499999999999 10.6564425935675 1.677 0 0 0
225 1 14.765999999999998 8.525154074854 1.677 0 0 0
19 1 0 11.366872099805333 1.677 0 0 0
42 1 0 12.787731112280998 1.677 0 0 0
44 1 1.2305000000000001 13.498160618518833 1.677 0 0 0
48 1 2.461 11.366872099805335 1.677 0 0 0
77 1 2.461 12.787731112280998 1.677 0 0 0
79 1 3.6915 13.498160618518833 1.677 0 0 0
83 1 4.922 11.366872099805333 1.677 0 0 0
112 1 4.922 12.787731112281 1.677 0 0 0
114 1 6.152499999999999 13.498160618518833 1.677 0 0 0
118 1 7.382999999999999 11.366872099805335 1.677 0 0 0
147 1 7.382999999999999 12.787731112280998 1.677 0 0 0
149 1 8.6135 13.498160618518835 1.677 0 0 0
153 1 9.844 11.366872099805335 1.677 0 0 0
182 1 9.844 12.787731112280998 1.677 0 0 0
184 1 11.074499999999999 13.498160618518833 1.677 0 0 0
188 1 12.304999999999998 11.366872099805333 1.677 0 0 0
217 1 12.305 12.787731112280998 1.677 0 0 0
219 1 13.535499999999999 13.498160618518837 1.677 0 0 0
223 1 14.765999999999998 11.366872099805336 1.677 0 0 0
252 1 14.765999999999998 12.787731112281 1.677 0 0 0
40 1 0 15.629449137232333 1.677 0 0 0
69 1 0 17.050308149708 1.677 0 0 0
71 1 1.2305000000000001 17.76073765594583 1.677 0 0 0
73 1 1.2305000000000001 14.919019630994498 1.677 0 0 0
75 1 2.4610000000000003 15.629449137232331 1.677 0 0 0
104 1 2.4610000000000003 17.050308149708 1.677 0 0 0
106 1 3.6914999999999996 17.76073765594583 1.677 0 0 0
108 1 3.6915 14.919019630994498 1.677 0 0 0
110 1 4.921999999999999 15.629449137232333 1.677 0 0 0
139 1 4.921999999999999 17.050308149708 1.677 0 0 0
141 1 6.1525 17.76073765594583 1.677 0 0 0
143 1 6.152499999999999 14.919019630994498 1.677 0 0 0
145 1 7.382999999999999 15.629449137232333 1.677 0 0 0
174 1 7.383 17.050308149708 1.677 0 0 0
176 1 8.613499999999998 17.76073765594583 1.677 0 0 0
178 1 8.6135 14.919019630994498 1.677 0 0 0
180 1 9.844 15.629449137232331 1.677 0 0 0
209 1 9.844 17.050308149708 1.677 0 0 0
211 1 11.0745 17.760737655945835 1.677 0 0 0
213 1 11.074499999999999 14.919019630994498 1.677 0 0 0
215 1 12.305 15.629449137232337 1.677 0 0 0
244 1 12.304999999999998 17.050308149708 1.677 0 0 0
246 1 13.5355 17.760737655945835 1.677 0 0 0
248 1 13.535499999999999 14.919019630994498 1.677 0 0 0
250 1 14.766 15.629449137232337 1.677 0 0 0
279 1 14.766 17.050308149708 1.677 0 0 0
2 1 0 1.420859012475665 5.031000000000001 0 0 0
4 1 0 0 5.031000000000001 0 0 0
11 1 1.2305 3.552147531189165 5.031000000000001 0 0 0
13 1 1.2305 2.1312885187135 5.031000000000001 0 0 0
15 1 2.461 1.420859012475665 5.031000000000001 0 0 0
17 1 2.461 0 5.031000000000001 0 0 0
32 1 3.6914999999999996 3.552147531189165 5.031000000000001 0 0 0
34 1 3.6914999999999996 2.1312885187135 5.031000000000001 0 0 0
36 1 4.922 1.420859012475665 5.031000000000001 0 0 0
38 1 4.922 0 5.031000000000001 0 0 0
61 1 6.1525 3.5521475311891653 5.031000000000001 0 0 0
63 1 6.1525 2.1312885187134993 5.031000000000001 0 0 0
65 1 7.382999999999999 1.420859012475666 5.031000000000001 0 0 0
67 1 7.382999999999999 0 5.031000000000001 0 0 0
96 1 8.613499999999998 3.552147531189166 5.031000000000001 0 0 0
98 1 8.613499999999998 2.1312885187135002 5.031000000000001 0 0 0
100 1 9.844 1.420859012475666 5.031000000000001 0 0 0
102 1 9.844 0 5.031000000000001 0 0 0
131 1 11.0745 3.5521475311891644 5.031000000000001 0 0 0
133 1 11.0745 2.1312885187135002 5.031000000000001 0 0 0
135 1 12.305 1.420859012475665 5.031000000000001 0 0 0
137 1 12.305 0 5.031000000000001 0 0 0
166 1 13.535499999999999 3.5521475311891653 5.031000000000001 0 0 0
168 1 13.535499999999999 2.1312885187134984 5.031000000000001 0 0 0
170 1 14.765999999999998 1.420859012475665 5.031000000000001 0 0 0
172 1 14.765999999999998 0 5.031000000000001 0 0 0
7 1 0 5.683436049902665 5.031000000000001 0 0 0
9 1 0 4.262577037427 5.031000000000001 0 0 0
26 1 1.2305 6.393865556140499 5.031000000000001 0 0 0
28 1 2.461 5.683436049902665 5.031000000000001 0 0 0
30 1 2.461 4.262577037427 5.031000000000001 0 0 0
55 1 3.6914999999999996 6.393865556140499 5.031000000000001 0 0 0
57 1 4.922 5.6834360499026655 5.031000000000001 0 0 0
59 1 4.922 4.262577037426999 5.031000000000001 0 0 0
90 1 6.1525 6.393865556140499 5.031000000000001 0 0 0
92 1 7.382999999999999 5.6834360499026655 5.031000000000001 0 0 0
94 1 7.382999999999999 4.262577037427 5.031000000000001 0 0 0
125 1 8.6135 6.3938655561405 5.031000000000001 0 0 0
127 1 9.844 5.683436049902665 5.031000000000001 0 0 0
129 1 9.844 4.2625770374270004 5.031000000000001 0 0 0
160 1 11.074499999999999 6.393865556140499 5.031000000000001 0 0 0
162 1 12.305 5.683436049902665 5.031000000000001 0 0 0
164 1 12.305 4.262577037426999 5.031000000000001 0 0 0
195 1 13.535499999999999 6.393865556140499 5.031000000000001 0 0 0
197 1 14.765999999999998 5.6834360499026655 5.031000000000001 0 0 0
199 1 14.766 4.262577037426999 5.031000000000001 0 0 0
20 1 0 9.946013087329664 5.031000000000001 0 0 0
22 1 0 8.525154074854 5.031000000000001 0 0 0
24 1 1.2304999999999997 7.814724568616164 5.031000000000001 0 0 0
47 1 1.2304999999999997 10.656442593567498 5.031000000000001 0 0 0
49 1 2.4609999999999994 9.946013087329664 5.031000000000001 0 0 0
51 1 2.4609999999999994 8.525154074854 5.031000000000001 0 0 0
53 1 3.6914999999999996 7.814724568616165 5.031000000000001 0 0 0
82 1 3.6914999999999996 10.6564425935675 5.031000000000001 0 0 0
84 1 4.922 9.946013087329666 5.031000000000001 0 0 0
86 1 4.922 8.525154074854 5.031000000000001 0 0 0
88 1 6.1525 7.814724568616166 5.031000000000001 0 0 0
117 1 6.1525 10.6564425935675 5.031000000000001 0 0 0
119 1 7.383 9.946013087329664 5.031000000000001 0 0 0
121 1 7.383 8.525154074854 5.031000000000001 0 0 0
123 1 8.6135 7.814724568616164 5.031000000000001 0 0 0
152 1 8.613499999999998 10.656442593567498 5.031000000000001 0 0 0
154 1 9.844 9.946013087329664 5.031000000000001 0 0 0
156 1 9.844 8.525154074853997 5.031000000000001 0 0 0
158 1 11.0745 7.814724568616165 5.031000000000001 0 0 0
187 1 11.0745 10.656442593567498 5.031000000000001 0 0 0
189 1 12.305 9.946013087329664 5.031000000000001 0 0 0
191 1 12.305 8.525154074854 5.031000000000001 0 0 0
193 1 13.535499999999999 7.814724568616165 5.031000000000001 0 0 0
222 1 13.535499999999999 10.6564425935675 5.031000000000001 0 0 0
224 1 14.765999999999998 9.94601308732966 5.031000000000001 0 0 0
226 1 14.765999999999998 8.525154074854 5.031000000000001 0 0 0
41 1 0 14.208590124756665 5.031000000000001 0 0 0
43 1 0 12.787731112280998 5.031000000000001 0 0 0
45 1 1.2304999999999997 12.077301606043164 5.031000000000001 0 0 0
76 1 2.461 14.208590124756665 5.031000000000001 0 0 0
78 1 2.461 12.787731112280998 5.031000000000001 0 0 0
80 1 3.6914999999999996 12.077301606043164 5.031000000000001 0 0 0
111 1 4.922 14.208590124756663 5.031000000000001 0 0 0
113 1 4.922 12.787731112281 5.031000000000001 0 0 0
115 1 6.1525 12.077301606043164 5.031000000000001 0 0 0
146 1 7.383 14.208590124756665 5.031000000000001 0 0 0
148 1 7.382999999999999 12.787731112280998 5.031000000000001 0 0 0
150 1 8.6135 12.077301606043164 5.031000000000001 0 0 0
181 1 9.844 14.208590124756665 5.031000000000001 0 0 0
183 1 9.844 12.787731112280998 5.031000000000001 0 0 0
185 1 11.074499999999999 12.077301606043164 5.031000000000001 0 0 0
216 1 12.304999999999998 14.208590124756661 5.031000000000001 0 0 0
218 1 12.305 12.787731112280998 5.031000000000001 0 0 0
220 1 13.535499999999999 12.07730160604316 5.031000000000001 0 0 0
251 1 14.765999999999998 14.208590124756661 5.031000000000001 0 0 0
253 1 14.765999999999998 12.787731112281 5.031000000000001 0 0 0
70 1 0 17.050308149708 5.031000000000001 0 0 0
72 1 1.2305000000000001 16.339878643470165 5.031000000000001 0 0 0
74 1 1.2305000000000001 14.919019630994498 5.031000000000001 0 0 0
105 1 2.4610000000000003 17.050308149708 5.031000000000001 0 0 0
107 1 3.6915 16.339878643470165 5.031000000000001 0 0 0
109 1 3.6915 14.919019630994498 5.031000000000001 0 0 0
140 1 4.921999999999999 17.050308149708 5.031000000000001 0 0 0
142 1 6.1525 16.339878643470165 5.031000000000001 0 0 0
144 1 6.152499999999999 14.919019630994498 5.031000000000001 0 0 0
175 1 7.383 17.050308149708 5.031000000000001 0 0 0
177 1 8.613499999999998 16.339878643470165 5.031000000000001 0 0 0
179 1 8.6135 14.919019630994498 5.031000000000001 0 0 0
210 1 9.844 17.050308149708 5.031000000000001 0 0 0
212 1 11.074499999999999 16.33987864347016 5.031000000000001 0 0 0
214 1 11.074499999999999 14.919019630994498 5.031000000000001 0 0 0
245 1 12.304999999999998 17.050308149708 5.031000000000001 0 0 0
247 1 13.535499999999997 16.33987864347016 5.031000000000001 0 0 0
249 1 13.535499999999999 14.919019630994498 5.031000000000001 0 0 0
280 1 14.766 17.050308149708 5.031000000000001 0 0 0
386 1 0 2.8417180249513345 8.385 0 0 0
387 1 0 0 8.385 0 0 0
388 1 1.2305 0.7104295062378347 8.385 0 0 0
392 1 1.2305 2.1312885187135 8.385 0 0 0
393 1 2.461 2.8417180249513345 8.385 0 0 0
394 1 2.461 0 8.385 0 0 0
395 1 3.6915 0.7104295062378347 8.385 0 0 0
403 1 3.6914999999999996 2.1312885187135 8.385 0 0 0
6411 2 0.7808816099108392 1.7895110067801245 11.056507488015525 0 1 0
404 1 4.922 2.841718024951334 8.385 0 0 0
405 1 4.922 0 8.385 0 0 0
406 1 6.1525 0.7104295062378343 8.385 0 0 0
418 1 6.1525 2.1312885187134993 8.385 0 0 0
419 1 7.382999999999999 2.8417180249513345 8.385 0 0 0
420 1 7.382999999999999 0 8.385 0 0 0
5478 2 7.990505724363825 8.70595089779032 10.978391980297761 0 0 0
6588 2 11.270852177767596 12.080338177910427 11.243352632026367 0 3 0
421 1 8.613499999999998 0.7104295062378343 8.385 0 0 0
436 1 8.613499999999998 2.1312885187135002 8.385 0 0 0
437 1 9.844 2.8417180249513336 8.385 0 0 0
438 1 9.844 0 8.385 0 0 0
439 1 11.0745 0.7104295062378334 8.385 0 0 0
454 1 11.0745 2.1312885187135002 8.385 0 0 0
512 1 12.304999999999998 17.050308149708 8.385 0 0 0
455 1 12.305 2.8417180249513336 8.385 0 0 0
456 1 12.305 0 8.385 0 0 0
457 1 13.535499999999999 0.7104295062378352 8.385 0 0 0
472 1 13.535499999999999 2.1312885187134984 8.385 0 0 0
473 1 14.765999999999998 2.8417180249513354 8.385 0 0 0
474 1 14.765999999999998 0 8.385 0 0 0
4680 2 14.446726103831164 3.3767467578664045 11.228027362786182 0 1 0
4601 2 4.2699262418116914 16.965065457110505 11.285630994204848 0 3 0
389 1 0 7.104295062378334 8.385 0 0 0
390 1 0 4.262577037427 8.385 0 0 0
391 1 1.2305000000000001 4.973006543664834 8.385 0 0 0
399 1 1.2305 6.393865556140499 8.385 0 0 0
400 1 2.461 7.104295062378334 8.385 0 0 0
401 1 2.461 4.262577037427 8.385 0 0 0
402 1 3.6914999999999996 4.973006543664834 8.385 0 0 0
414 1 3.6914999999999996 6.393865556140499 8.385 0 0 0
6847 2 10.490806774228187 0.06829196715740196 10.983309150139767 0 5 0
415 1 4.922 7.104295062378334 8.385 0 0 0
416 1 4.922 4.262577037426999 8.385 0 0 0
417 1 6.1525 4.973006543664834 8.385 0 0 0
432 1 6.1525 6.393865556140499 8.385 0 0 0
433 1 7.383 7.104295062378334 8.385 0 0 0
434 1 7.382999999999999 4.262577037427 8.385 0 0 0
7529 2 4.47541334744516 4.985503099877483 11.089365219236305 0 0 0
435 1 8.6135 4.973006543664834 8.385 0 0 0
450 1 8.6135 6.3938655561405 8.385 0 0 0
451 1 9.844 7.104295062378334 8.385 0 0 0
452 1 9.844 4.2625770374270004 8.385 0 0 0
453 1 11.074499999999999 4.973006543664834 8.385 0 0 0
468 1 11.074499999999999 6.393865556140499 8.385 0 0 0
5604 2 11.747030859353918 14.911059499940102 11.17114143098425 0 3 0
5707 2 14.826095918053271 15.792309597419557 11.145350606872988 0 0 0
469 1 12.305 7.104295062378334 8.385 0 0 0
470 1 12.305 4.262577037426999 8.385 0 0 0
471 1 13.535499999999999 4.973006543664834 8.385 0 0 0
486 1 13.535499999999999 6.393865556140499 8.385 0 0 0
487 1 14.765999999999998 7.104295062378332 8.385 0 0 0
488 1 14.766 4.262577037426999 8.385 0 0 0
6669 2 11.658503753717621 2.74535421430757 10.903866298135275 0 0 0
397 1 0 8.525154074854 8.385 0 0 0
398 1 1.2304999999999997 9.235583581091834 8.385 0 0 0
410 1 1.2304999999999997 10.656442593567498 8.385 0 0 0
412 1 2.4609999999999994 8.525154074854 8.385 0 0 0
413 1 3.6915 9.235583581091834 8.385 0 0 0
428 1 3.6914999999999996 10.6564425935675 8.385 0 0 0
8236 2 5.454819419502603 7.696759608815687 11.251417349071469 0 -1 0
4050 2 1.754650783615032 16.15645513149232 11.204932687992306 0 -2 -1
430 1 4.922 8.525154074854 8.385 0 0 0
431 1 6.1525 9.235583581091834 8.385 0 0 0
446 1 6.1525 10.6564425935675 8.385 0 0 0
448 1 7.383 8.525154074854 8.385 0 0 0
5548 2 9.433611409889165 16.52089940666108 10.733541353723744 0 1 1
6637 2 0.802193806859737 13.516828065581716 10.749307960050373 0 -1 0
449 1 8.613499999999998 9.235583581091834 8.385 0 0 0
464 1 8.613499999999998 10.656442593567498 8.385 0 0 0
466 1 9.844 8.525154074853997 8.385 0 0 0
467 1 11.074499999999999 9.235583581091834 8.385 0 0 0
482 1 11.0745 10.656442593567498 8.385 0 0 0
7534 2 13.308882566367178 10.403441607419856 11.018319377517885 0 1 0
484 1 12.305 8.525154074854 8.385 0 0 0
485 1 13.535499999999999 9.235583581091833 8.385 0 0 0
500 1 13.535499999999999 10.6564425935675 8.385 0 0 0
502 1 14.765999999999998 8.525154074854 8.385 0 0 0
3154 2 6.017161965369908 12.837220284379026 10.878826233337914 0 1 0
396 1 0 11.366872099805333 8.385 0 0 0
408 1 0 12.787731112280998 8.385 0 0 0
409 1 1.2305000000000001 13.498160618518833 8.385 0 0 0
411 1 2.461 11.366872099805335 8.385 0 0 0
426 1 2.461 12.787731112280998 8.385 0 0 0
427 1 3.6915 13.498160618518833 8.385 0 0 0
530 1 14.766 17.050308149708 8.385 0 0 0
429 1 4.922 11.366872099805333 8.385 0 0 0
444 1 4.922 12.787731112281 8.385 0 0 0
445 1 6.152499999999999 13.498160618518833 8.385 0 0 0
447 1 7.382999999999999 11.366872099805335 8.385 0 0 0
462 1 7.382999999999999 12.787731112280998 8.385 0 0 0
1779 2 9.540170166693406 4.22102401234968 11.194900290232399 0 0 1
497 1 12.305 15.629449137232337 8.385 0 0 0
514 1 13.535499999999999 14.919019630994498 8.385 0 0 0
463 1 8.6135 13.498160618518835 8.385 0 0 0
465 1 9.844 11.366872099805335 8.385 0 0 0
480 1 9.844 12.787731112280998 8.385 0 0 0
481 1 11.074499999999999 13.498160618518833 8.385 0 0 0
515 1 14.766 15.629449137232337 8.385 0 0 0
483 1 12.304999999999998 11.366872099805333 8.385 0 0 0
498 1 12.305 12.787731112280998 8.385 0 0 0
499 1 13.535499999999999 13.498160618518837 8.385 0 0 0
501 1 14.765999999999998 11.366872099805336 8.385 0 0 0
516 1 14.765999999999998 12.787731112281 8.385 0 0 0
407 1 0 15.629449137232333 8.385 0 0 0
422 1 0 17.050308149708 8.385 0 0 0
423 1 1.2305000000000001 17.76073765594583 8.385 0 0 0
424 1 1.2305000000000001 14.919019630994498 8.385 0 0 0
425 1 2.4610000000000003 15.629449137232331 8.385 0 0 0
440 1 2.4610000000000003 17.050308149708 8.385 0 0 0
441 1 3.6914999999999996 17.76073765594583 8.385 0 0 0
442 1 3.6915 14.919019630994498 8.385 0 0 0
4049 2 3.239497723919278 12.14962105458635 11.373369778300766 0 -2 -1
2446 2 6.70710138022057 3.2275553471064016 10.900548634471358 0 -1 0
513 1 13.5355 17.760737655945835 8.385 0 0 0
443 1 4.921999999999999 15.629449137232333 8.385 0 0 0
458 1 4.921999999999999 17.050308149708 8.385 0 0 0
459 1 6.1525 17.76073765594583 8.385 0 0 0
460 1 6.152499999999999 14.919019630994498 8.385 0 0 0
461 1 7.382999999999999 15.629449137232333 8.385 0 0 0
476 1 7.383 17.050308149708 8.385 0 0 0
6937 2 0.1901532882526356 8.657175889466385 11.016996803768949 0 2 0
496 1 11.074499999999999 14.919019630994498 8.385 0 0 0
495 1 11.0745 17.760737655945835 8.385 0 0 0
494 1 9.844 17.050308149708 8.385 0 0 0
479 1 9.844 15.629449137232331 8.385 0 0 0
477 1 8.613499999999998 17.76073765594583 8.385 0 0 0
478 1 8.6135 14.919019630994498 8.385 0 0 0
3110 2 9.977856934907479 6.956727193524441 10.774660582193784 0 3 0
6734 2 8.459089311593361 11.439129689858623 10.743219241579247 0 -2 0
4329 2 12.705040343995222 7.699894602127928 11.055898081715823 0 2 0
5314 2 6.7831421770767735 15.674859124849691 11.07375986760671 0 -3 1
5677 2 1.8352447358694193 4.313188373545777 11.28641871063653 0 1 0
6929 2 5.743306233693371 0.6933321636100439 10.903962949812161 0 2 0
4478 2 1.149214343699049 1.6460764739532687 14.321297894897288 0 -1 0
6560 2 14.97637653230902 15.690082623400228 14.10820297763883 0 -1 0
6671 2 6.814070096557157 3.5553641096391275 13.816485647294037 0 -1 0
5462 2 5.664853766708736 0.9652825709135122 13.608150578709381 0 -1 1
4611 2 11.649420000661863 2.7050279010898985 13.685365923895393 0 1 0
4203 2 14.223406848669654 3.385919673225237 14.164408882555701 0 2 0
8266 2 1.9151280997128384 4.3183198183721405 14.161721365624635 0 0 0
6529 2 4.718042719859446 5.27523948070032 13.962685132501747 0 2 0
5493 2 9.550593040823484 4.452901804244285 14.04136683724931 0 3 0
5623 2 10.072932105328249 7.033995642845294 14.480212449571043 0 -1 0
5426 2 15.018346494668567 6.031764321994728 14.413401060917145 0 0 0
6563 2 12.75918065740781 7.93882101697062 14.062485994575438 0 -1 0
4102 2 2.836367846564581 9.190716854736879 14.28858680039062 0 -2 0
7612 2 5.234022119993727 7.838044821178301 14.01154298849555 0 -1 1
3132 2 8.051908888418101 8.707074674771775 13.846413760495574 0 -2 1
5711 2 8.97588376126201 11.356517682642032 13.438242646216871 0 1 0
3401 2 13.46637210585237 10.685420897294945 13.992795691161158 0 1 0
2392 2 3.4452583968854613 11.860761729786924 14.166310753456104 0 3 0
4194 2 0.8853717117118327 13.694108125897966 13.884729478418679 0 -1 -1
1713 2 6.166930640446208 12.516444152501558 13.82075311156956 0 1 0
3282 2 11.328321033139753 12.532000609210018 14.554539245847431 0 -1 0
4172 2 12.0180559866252 15.124448181636524 13.677799658934232 0 0 -1
6468 2 1.7776867414358475 16.3636744995719 14.018360494811276 0 -1 0
8268 2 4.717119027856836 16.99962361988191 14.24470687249695 0 0 -1
6964 2 6.785431079303522 15.171499242821193 13.86454997882445 0 -4 0
3394 2 9.509278329292078 16.20796065793436 13.810849345326696 0 3 0
4253 2 10.637986481328586 0.18678136779331356 13.717965167702863 0 3 0
8330 2 3.0140256013157 9.26033713004222 11.557654990270837 0 -2 -1
2381 2 14.618477789841313 6.027198906107669 11.662221118759993 0 0 0
8326 2 1.1072674227251802 2.465706271802334 42.07661668288731 1 -1 0
5544 2 7.109847418222033 2.984503123393424 41.98090422096032 1 1 1
4615 2 9.948287231057105 3.298484750845541 41.83139145320533 1 0 0
3219 2 0.8233999536931239 5.186184297411296 42.5123191444583 1 1 0
7600 2 6.275999483067292 5.693381039913024 42.155020116317814 1 0 0
1798 2 7.589977972842858 7.960244800714857 41.944857130190165 1 -1 0
4558 2 5.65857666834654 0.4446075862642545 42.20509976041468 1 2 0
2403 2 1.1003568709959617 11.470822611721566 42.186165781059934 1 1 0
6307 2 12.313602885989228 10.573440448501811 41.82972765118457 1 -1 0
4656 2 15.010332741857342 9.7274465579573 41.93029261645524 1 -1 0
2466 2 2.0378496295547537 14.05250590980797 42.26649854288447 1 0 0
3476 2 4.909698378218844 14.728931175353503 42.456757213518166 1 -1 0
4732 2 11.353772223708553 13.16404636141815 42.15617299641635 1 1 0
5646 2 9.127066309252118 14.640415204677629 42.28047716513379 1 1 0
1812 2 9.052600872948327 17.28522025141272 41.90439691682967 1 0 0
3335 2 1.285154341755262 2.3898086271069903 45.072079876012296 1 0 0
4137 2 7.335602842944743 2.84633182266232 44.74938643962339 1 0 0
6288 2 10.057343167222706 3.1120078080101767 44.86240604624392 1 -1 0
3145 2 8.730232638379194 17.555739359168047 44.88820899539819 1 0 0
3124 2 3.31473987799136 6.5025461878695925 42.00122619475434 1 4 0
4664 2 0.8424899085566034 4.903829735318073 45.29636319286488 1 1 0
5320 2 3.390647607134903 6.353166366882636 44.71201788817013 1 -2 1
6596 2 5.869159973229504 5.216297612397626 44.97252885262206 1 -1 0
3187 2 7.09300835887074 7.986827399780913 44.86233743690046 1 2 0
4514 2 11.375996747543903 5.6775627085283515 41.553749451403036 1 6 0
4321 2 10.421544794359084 8.286968188785705 42.2461039240299 1 0 0
6881 2 9.892174993888556 8.367518342603676 45.04885366265163 1 0 0
3160 2 11.376477235007075 5.990639268176438 44.728270634040676 1 -1 0
5588 2 14.16773928409448 5.846123811830144 42.178237218202774 1 1 1
5355 2 13.860832693270522 6.846403423189566 44.752606189713106 1 -1 0
4255 2 3.1243626514769884 9.30370738854425 41.685218579007824 1 -2 0
2482 2 3.2311530115555263 9.346830195867994 44.56591255398533 1 -1 -1
5429 2 1.1522160347352808 11.325407733214362 44.78819198518499 1 3 0
6461 2 5.8931954496844225 10.236093456252613 41.65500585556792 1 -1 1
5391 2 5.733676058223931 10.733563674238981 44.831443348519 1 -1 1
7617 2 11.622808152519578 10.694610029423464 44.70348388970561 1 -2 1
3362 2 14.244121230265806 9.765786709687792 44.71141238837356 1 0 0
4688 2 1.8255353388229953 13.92519278051841 45.14858898168961 1 1 0
6280 2 6.687626052922527 12.8926325280178 42.353687330340286 1 1 -1
4056 2 6.723084248696778 13.27528820396638 45.32511768956243 1 1 0
7584 2 4.608239748701004 14.935873176924455 45.238073240698206 1 1 1
5698 2 8.94479359929047 14.722698146451789 45.138441099921856 1 -1 1
4314 2 11.416700265776019 13.294502258612415 44.91170588395213 1 1 0
5387 2 13.392612317025614 15.384241388729283 42.093944665334206 1 1 0
6885 2 13.612026850825485 15.366935938918536 44.86915004299204 1 1 0
8243 2 5.969679634997113 0.5854191305258282 44.90627257670604 1 0 0
3142 2 14.459730755769062 1.196765344869944 44.760872171333794 1 0 0
4460 2 6.120948101496422 17.311287625324834 42.12651876652927 1 3 -1
4643 2 5.958385572411356 17.241844363310122 45.14748276868928 1 1 0
3372 2 0.25660588492878417 16.183562703100197 41.98634717812259 1 -1 0
3205 2 13.975423296825728 1.2572317068378431 42.055785214552294 1 0 1
4706 2 11.618095505901342 0.7883611718939134 45.17273309090768 1 0 0
1800 2 11.388548735498128 0.8730180265266714 42.42810450912093 1 2 0
6815 2 0.23253405647479888 16.247177601986802 44.818985286281006 1 0 0
7555 2 14.311129494500575 17.9833009992643 41.91960313333385 1 0 0
4048 2 14.359931394912298 18.089116282569325 44.712028650108834 1 2 -1
584 1 0 19.892026174659332 1.677 0 0 0
1130 1 3.6914999999999996 19.1815966684215 1.677 0 0 0
1134 1 2.4609999999999994 21.312885187134995 1.677 0 0 0
1146 1 2.4609999999999994 19.892026174659332 1.677 0 0 0
1148 1 1.2305000000000001 19.1815966684215 1.677 0 0 0
1152 1 0 21.312885187135 1.677 0 0 0
1075 1 7.382999999999999 21.312885187135 1.677 0 0 0
1102 1 7.382999999999999 19.892026174659332 1.677 0 0 0
1104 1 6.1525 19.1815966684215 1.677 0 0 0
1108 1 4.922000000000001 21.312885187134995 1.677 0 0 0
1128 1 4.922 19.892026174659332 1.677 0 0 0
1036 1 11.074499999999999 19.1815966684215 1.677 0 0 0
1040 1 9.844 21.312885187135 1.677 0 0 0
1069 1 9.844 19.892026174659335 1.677 0 0 0
1071 1 8.6135 19.1815966684215 1.677 0 0 0
970 1 14.765999999999998 21.312885187135 1.677 0 0 0
999 1 14.766 19.892026174659332 1.677 0 0 0
1001 1 13.535499999999999 19.1815966684215 1.677 0 0 0
1005 1 12.305 21.312885187135 1.677 0 0 0
1034 1 12.305000000000001 19.892026174659335 1.677 0 0 0
1112 1 3.6915000000000004 23.4441737058485 1.677 0 0 0
1132 1 3.6914999999999996 22.023314693372832 1.677 0 0 0
1136 1 2.4609999999999994 24.154603212086332 1.677 0 0 0
1138 1 1.2304999999999993 23.4441737058485 1.677 0 0 0
1150 1 1.2304999999999993 22.023314693372832 1.677 0 0 0
1154 1 0 24.154603212086332 1.677 0 0 0
1077 1 7.383 24.154603212086336 1.677 0 0 0
1079 1 6.1525 23.4441737058485 1.677 0 0 0
1106 1 6.152499999999999 22.023314693372832 1.677 0 0 0
1110 1 4.921999999999999 24.154603212086332 1.677 0 0 0
1009 1 11.0745 23.4441737058485 1.677 0 0 0
1038 1 11.0745 22.023314693372836 1.677 0 0 0
1042 1 9.844000000000001 24.154603212086336 1.677 0 0 0
1044 1 8.613499999999998 23.4441737058485 1.677 0 0 0
1073 1 8.6135 22.023314693372836 1.677 0 0 0
972 1 14.766000000000002 24.154603212086332 1.677 0 0 0
974 1 13.535499999999999 23.4441737058485 1.677 0 0 0
1003 1 13.5355 22.023314693372832 1.677 0 0 0
1007 1 12.305 24.154603212086332 1.677 0 0 0
1087 1 3.6914999999999996 27.7067507432755 1.677 0 0 0
1114 1 3.6914999999999987 26.285891730799833 1.677 0 0 0
1116 1 2.4610000000000003 25.575462224561996 1.677 0 0 0
1118 1 2.4609999999999994 28.41718024951333 1.677 0 0 0
1120 1 1.230500000000001 27.706750743275496 1.677 0 0 0
1140 1 1.2305000000000001 26.285891730799833 1.677 0 0 0
1142 1 0 25.575462224561996 1.677 0 0 0
1144 1 0 28.417180249513333 1.677 0 0 0
1048 1 7.382999999999999 25.575462224561996 1.677 0 0 0
1050 1 7.383000000000001 28.417180249513336 1.677 0 0 0
1052 1 6.152499999999999 27.7067507432755 1.677 0 0 0
1081 1 6.1525 26.285891730799836 1.677 0 0 0
1083 1 4.922 25.575462224561996 1.677 0 0 0
1085 1 4.922 28.417180249513336 1.677 0 0 0
982 1 11.074499999999999 27.7067507432755 1.677 0 0 0
1011 1 11.0745 26.285891730799833 1.677 0 0 0
1013 1 9.844 25.575462224562 1.677 0 0 0
1015 1 9.844000000000001 28.417180249513333 1.677 0 0 0
1017 1 8.6135 27.7067507432755 1.677 0 0 0
1046 1 8.613500000000002 26.285891730799836 1.677 0 0 0
943 1 14.765999999999998 25.575462224561996 1.677 0 0 0
945 1 14.766 28.417180249513333 1.677 0 0 0
947 1 13.535499999999999 27.706750743275496 1.677 0 0 0
976 1 13.5355 26.285891730799833 1.677 0 0 0
978 1 12.305 25.575462224562 1.677 0 0 0
980 1 12.305000000000001 28.417180249513333 1.677 0 0 0
1060 1 3.6914999999999996 31.969327780702496 1.677 0 0 0
1089 1 3.6915000000000004 30.548468768226833 1.677 0 0 0
1091 1 2.4610000000000003 29.838039261988996 1.677 0 0 0
1093 1 2.4610000000000003 32.67975728694034 1.677 0 0 0
1095 1 1.2304999999999993 31.969327780702496 1.677 0 0 0
1122 1 1.2304999999999993 30.548468768226833 1.677 0 0 0
1124 1 0 29.838039261988996 1.677 0 0 0
1126 1 0 32.67975728694033 1.677 0 0 0
1021 1 7.383 29.838039261988996 1.677 0 0 0
1023 1 7.383 32.67975728694033 1.677 0 0 0
1025 1 6.1525 31.9693277807025 1.677 0 0 0
1054 1 6.152500000000001 30.548468768226833 1.677 0 0 0
1056 1 4.921999999999999 29.838039261988996 1.677 0 0 0
1058 1 4.9220000000000015 32.67975728694034 1.677 0 0 0
955 1 11.074499999999999 31.969327780702493 1.677 0 0 0
984 1 11.0745 30.548468768226833 1.677 0 0 0
986 1 9.844 29.838039261988996 1.677 0 0 0
988 1 9.844000000000001 32.67975728694033 1.677 0 0 0
990 1 8.613499999999998 31.9693277807025 1.677 0 0 0
1019 1 8.6135 30.548468768226833 1.677 0 0 0
916 1 14.766 29.838039261988996 1.677 0 0 0
918 1 14.766000000000002 32.67975728694033 1.677 0 0 0
920 1 13.535499999999999 31.969327780702496 1.677 0 0 0
949 1 13.5355 30.548468768226833 1.677 0 0 0
951 1 12.304999999999998 29.838039261988996 1.677 0 0 0
953 1 12.305 32.67975728694033 1.677 0 0 0
1032 1 3.6914999999999996 36.23190481812949 1.677 0 0 0
1062 1 3.6915000000000013 34.81104580565383 1.677 0 0 0
1064 1 2.4609999999999985 34.100616299416 1.677 0 0 0
1067 1 1.2304999999999993 36.23190481812949 1.677 0 0 0
1097 1 1.230500000000001 34.81104580565383 1.677 0 0 0
1099 1 0 34.100616299416 1.677 0 0 0