
### Dimensions ###


### IMPORT ATOMS ###
read_data ../Box_Setup/data.Ibeam_240K
Reading data file ...
  orthogonal box = (0.0000000 0.0000000 0.0000000) to (157.50400 36.487659 45.872046)
  10 by 2 by 4 MPI processor grid
  reading atoms ...
  9436 atoms
  reading velocities ...
  9436 velocities
  read_data CPU = 0.029 seconds
group water type 2
2716 atoms in group water
group graphite type 1
6720 atoms in group graphite


# Define potential
#
pair_style          sw
pair_coeff * * MLC_e.sw C mW

# Add velocity/set timestep
#

fix		1 graphite setforce 0.0 0.0 0.0
velocity 	graphite set 0.0 0.0 0.0
velocity            water create ${START_TEMP} ${SEED} rot yes dist gaussian
velocity            water create 240 ${SEED} rot yes dist gaussian
velocity            water create 240 2582 rot yes dist gaussian
timestep            5.0

# Define output
#
compute 1 water msd
compute 2 water temp


thermo	            100
thermo_style custom step c_2 press vol etotal ke pe c_1[4] density

# Neighbor lists
#
neigh_modify        delay 0 every 1 check yes


# Set fixes
#
fix                 2 water momentum 10 linear 1 1 1 rescale
fix                 3 all nve
fix                 4 water temp/csvr ${START_TEMP} ${START_TEMP} 500.0 928347
fix                 4 water temp/csvr 240 ${START_TEMP} 500.0 928347
fix                 4 water temp/csvr 240 240 500.0 928347

# Run 0.05 ns equilibration
#
dump                1 all custom 100 ${DIR}/eq.${NAME}.dump id type x y z vx vy vz
dump                1 all custom 100 run_7/eq.${NAME}.dump id type x y z vx vy vz
dump                1 all custom 100 run_7/eq.ibeam_cooling_7.dump id type x y z vx vy vz
run                 10000
Neighbor list info ...
  update every 1 steps, delay 0 steps, check yes
  max neighbors/atom: 2000, page size: 100000
  master list distance cutoff = 6.6747184
  ghost atom cutoff = 6.6747184
  binsize = 3.3373592, bins = 48 11 14
  1 neighbor lists, perpetual/occasional/extra = 1 0 0
  (1) pair sw, perpetual
      attributes: full, newton on
      pair build: full/bin/atomonly
      stencil: full/bin/3d
      bin: standard
Per MPI rank memory allocation (min/avg/max) = 3.597 | 4.372 | 4.790 Mbytes
Step c_2 Press Volume TotEng KinEng PotEng c_1[4] Density 
       0          240   -384.81349    263624.46   -25860.227    1942.2958   -27802.523            0   0.81656126 
     100    238.23937   -363.44412    263624.46   -25862.343    1928.0472    -27790.39   0.81427854   0.81656126 
     200    234.05651   -252.49903    263624.46   -25877.773    1894.1958   -27771.969    1.3183118   0.81656126 
     300    234.23408   -37.378332    263624.46   -25854.936    1895.6328   -27750.568    1.8119626   0.81656126 
     400    234.21419   -234.56531    263624.46   -25836.951    1895.4719   -27732.423    2.2422703   0.81656126 
     500    239.77691   -313.73893    263624.46   -25807.547    1940.4904   -27748.037    2.5146487   0.81656126 
     600    244.94548   -272.76707    263624.46   -25732.502    1982.3191   -27714.821    2.7731573   0.81656126 
     700     244.4435   -289.19284    263624.46   -25755.696    1978.2566   -27733.953    3.1588263   0.81656126 
     800    240.47385   -313.74035    263624.46   -25735.721    1946.1306   -27681.851    3.5902332   0.81656126 
     900    236.51299   -230.88224    263624.46   -25757.744    1914.0758    -27671.82    3.9248108   0.81656126 
    1000    239.74008   -241.06614    263624.46   -25772.526    1940.1923   -27712.718    4.2629353   0.81656126 
    1100    247.43854   -325.81225    263624.46   -25746.992    2002.4952   -27749.487    4.6587694   0.81656126 
    1200    240.71707   -338.20955    263624.46   -25761.365     1948.099   -27709.464    5.0638911   0.81656126 
    1300    243.92543   -379.40842    263624.46   -25713.325     1974.064   -27687.389    5.4764563   0.81656126 
    1400    243.79143   -360.40426    263624.46   -25763.485    1972.9795   -27736.465    5.8524344   0.81656126 
    1500    244.65826   -159.60004    263624.46    -25795.22    1979.9946   -27775.215    6.2081806   0.81656126 
    1600    242.37335   -73.338004    263624.46    -25770.38    1961.5031   -27731.883    6.5041466   0.81656126 
    1700    243.02834   -368.95731    263624.46   -25792.246    1966.8039    -27759.05    6.5510791   0.81656126 
    1800     238.0781   -173.35591    263624.46   -25759.298    1926.7421    -27686.04    6.9311317   0.81656126 
    1900     241.1689   -291.71041    263624.46   -25717.417    1951.7557   -27669.173    7.3941097   0.81656126 
    2000    243.43057   -174.27734    263624.46   -25677.136    1970.0591   -27647.195    7.8077045   0.81656126 
    2100    243.71033    -238.7131    263624.46   -25764.774    1972.3232   -27737.098    8.4260929   0.81656126 
    2200    240.56534   -265.77308    263624.46   -25721.603    1946.8711   -27668.474    8.6704746   0.81656126 
    2300     242.1294     -404.421    263624.46   -25703.035    1959.5288   -27662.564    9.0660991   0.81656126 
    2400     239.5837   -240.22257    263624.46   -25701.344    1938.9267   -27640.271    9.6219125   0.81656126 
    2500    238.49311   -234.81978    263624.46   -25724.029    1930.1007    -27654.13    10.028573   0.81656126 
    2600    241.04087   -381.00339    263624.46   -25734.309    1950.7195   -27685.029    10.612831   0.81656126 
    2700    241.99862   -244.83605    263624.46   -25730.196    1958.4704   -27688.666    11.033881   0.81656126 
    2800    247.62358   -255.54398    263624.46   -25670.538    2003.9927    -27674.53    11.364229   0.81656126 
    2900     240.2771   -326.47185    263624.46   -25687.735    1944.5384   -27632.274    11.650597   0.81656126 
    3000    243.83533   -280.01438    263624.46   -25683.413    1973.3348   -27656.748    12.078508   0.81656126 
    3100    245.60996   -377.76991    263624.46   -25681.905    1987.6967   -27669.601    12.493437   0.81656126 
    3200     239.8686   -381.71338    263624.46   -25742.087    1941.2324   -27683.319    12.976816   0.81656126 
    3300    232.20691   -180.08863    263624.46   -25830.109    1879.2272   -27709.336    13.463755   0.81656126 
    3400    237.39717   -236.43045    263624.46   -25770.951    1921.2314   -27692.182    13.912179   0.81656126 
    3500    239.83474   -329.25985    263624.46   -25766.548    1940.9584   -27707.507    14.361096   0.81656126 
    3600    232.73689   -165.14679    263624.46   -25756.151    1883.5162   -27639.667    14.796451   0.81656126 
    3700    239.73478   -197.45299    263624.46   -25737.237    1940.1494   -27677.386     15.28653   0.81656126 
    3800    240.18932   -269.80636    263624.46   -25730.262     1943.828    -27674.09     15.83203   0.81656126 
    3900     242.8614   -420.74502    263624.46   -25740.648    1965.4528   -27706.101    16.098608   0.81656126 
    4000    240.04096   -394.46645    263624.46    -25784.55    1942.6273   -27727.177    16.579458   0.81656126 
    4100    239.72506   -164.21338    263624.46   -25773.622    1940.0708   -27713.693    16.881767   0.81656126 
    4200    241.19552   -137.25131    263624.46   -25753.221    1951.9711   -27705.193    17.125046   0.81656126 
    4300    240.95867   -57.117703    263624.46   -25833.798    1950.0543   -27783.852    17.625393   0.81656126 
    4400    238.36574   -163.63419    263624.46   -25799.702    1929.0699   -27728.771    18.196571   0.81656126 
    4500    234.58822   -386.77816    263624.46   -25824.193    1898.4988   -27722.692    18.964014   0.81656126 
    4600    232.10953   -241.85345    263624.46   -25870.101     1878.439    -27748.54     19.16515   0.81656126 
    4700    243.02603   -195.50345    263624.46   -25813.665    1966.7852    -27780.45    19.392052   0.81656126 
    4800    247.45063   -340.71098    263624.46   -25787.026     2002.593   -27789.619    19.818161   0.81656126 
    4900    246.77498   -239.37825    263624.46   -25713.545     1997.125    -27710.67    20.074691   0.81656126 
    5000    242.48697   -346.29818    263624.46   -25796.125    1962.4226   -27758.547    20.584365   0.81656126 
    5100    244.32477   -238.20609    263624.46   -25769.833    1977.2958   -27747.128    20.899638   0.81656126 
    5200    244.59011   -103.97438    263624.46   -25819.239    1979.4431   -27798.682    21.147936   0.81656126 
    5300    240.72593   -440.18337    263624.46   -25894.119    1948.1707    -27842.29    21.518745   0.81656126 
    5400    246.05585   -398.25695    263624.46   -25878.104    1991.3052   -27869.409    21.945538   0.81656126 
    5500    237.40326   -477.35847    263624.46   -25885.888    1921.2807   -27807.169    22.347325   0.81656126 
    5600    242.79661   -275.80555    263624.46   -25917.528    1964.9285   -27882.457    22.684204   0.81656126 
    5700     236.9688   -349.81148    263624.46   -25895.972    1917.7646   -27813.736    23.006354   0.81656126 
    5800    237.87242   -216.38984    263624.46   -25864.965    1925.0775   -27790.043    23.065102   0.81656126 
    5900    235.53315   -172.40235    263624.46   -25893.501     1906.146   -27799.647    23.304732   0.81656126 
    6000    238.09177   -32.129271    263624.46   -25899.536    1926.8527   -27826.388    23.731812   0.81656126 
    6100    241.13959   -436.41783    263624.46   -25930.136    1951.5184   -27881.654    23.974509   0.81656126 
    6200     239.5334   -358.11931    263624.46   -25920.629    1938.5197   -27859.149    24.340143   0.81656126 
    6300    242.17214   -276.70999    263624.46    -25854.22    1959.8747   -27814.095    25.034454   0.81656126 
    6400     235.3341   -304.52018    263624.46   -25892.266    1904.5352   -27796.801    25.326419   0.81656126 
    6500     237.0745   -250.38395    263624.46   -25908.191      1918.62   -27826.811    25.733473   0.81656126 
    6600    239.54203   -345.71602    263624.46   -25915.228    1938.5895   -27853.818    26.078759   0.81656126 
    6700    239.03748   -419.16488    263624.46   -25944.588    1934.5062   -27879.094     26.39851   0.81656126 
    6800    237.58579   -198.44342    263624.46   -25927.051    1922.7579   -27849.809    26.472993   0.81656126 
    6900    241.92513   -213.93086    263624.46   -25867.905    1957.8757   -27825.781      26.7914   0.81656126 
    7000    241.38526   -110.66365    263624.46   -25874.485    1953.5066   -27827.992    27.111461   0.81656126 
    7100    235.46431   -223.12462    263624.46    -25880.57     1905.589   -27786.159    27.556165   0.81656126 
    7200    230.56091   -360.12539    263624.46   -25941.538    1865.9062   -27807.445    27.914816   0.81656126 
    7300    229.99599   -287.03925    263624.46     -25978.3    1861.3344   -27839.634    27.816676   0.81656126 
    7400    235.85523   -257.88154    263624.46   -25907.549    1908.7526   -27816.302    28.096689   0.81656126 
    7500    240.98779   -394.32838    263624.46   -25880.492      1950.29   -27830.782    28.516615   0.81656126 
    7600    249.09459   -359.25446    263624.46   -25832.663    2015.8975    -27848.56    28.823484   0.81656126 
    7700    242.18403   -221.40991    263624.46   -25873.899     1959.971    -27833.87     29.13995   0.81656126 
    7800    235.44661   -220.88182    263624.46   -25932.901    1905.4457   -27838.347    29.591817   0.81656126 
    7900    240.44497    -255.3143    263624.46   -25889.318    1945.8969   -27835.215    30.184378   0.81656126 
    8000    245.44907    -140.2467    263624.46   -25823.616    1986.3946   -27810.011    30.577309   0.81656126 
    8100    240.95595   -303.57905    263624.46   -25782.473    1950.0323   -27732.505    30.552348   0.81656126 
    8200    242.13104   -327.37861    263624.46    -25784.55    1959.5421   -27744.092    31.005844   0.81656126 
    8300    242.49366   -389.41587    263624.46   -25762.855    1962.4767   -27725.331    31.136184   0.81656126 
    8400    240.99333   -266.84709    263624.46   -25752.545    1950.3347   -27702.879    31.362611   0.81656126 
    8500    243.31157   -259.78819    263624.46   -25796.858     1969.096   -27765.954    31.612315   0.81656126 
    8600    246.25017   -264.36045    263624.46   -25814.624    1992.8778   -27807.501    31.894216   0.81656126 
    8700    237.80347   -294.81013    263624.46   -25823.683    1924.5195   -27748.202    31.995682   0.81656126 
    8800      240.312   -204.70334    263624.46   -25824.156    1944.8208   -27768.976    31.989224   0.81656126 
    8900    236.33599   -358.45727    263624.46   -25839.939    1912.6434   -27752.582    32.312084   0.81656126 
    9000    236.24798   -358.67321    263624.46   -25813.726    1911.9311   -27725.657    32.668031   0.81656126 
    9100    238.70629   -275.60546    263624.46   -25826.328     1931.826   -27758.154    33.044018   0.81656126 
    9200    238.02763    -263.6864    263624.46   -25764.125    1926.3337   -27690.459    33.385254   0.81656126 
    9300      243.245   -256.11063    263624.46   -25834.542    1968.5573   -27803.099    33.615231   0.81656126 
    9400    245.20131   -152.54841    263624.46   -25818.883    1984.3895   -27803.272    34.529025   0.81656126 
    9500    238.78717   -279.41355    263624.46   -25850.912    1932.4805   -27783.392    35.079714   0.81656126 
    9600    236.98127   -181.85615    263624.46   -25840.757    1917.8656   -27758.623    35.500987   0.81656126 
    9700     239.0106   -274.95147    263624.46   -25791.784    1934.2887   -27726.073    35.758703   0.81656126 
    9800    240.95589   -298.59265    263624.46   -25730.808    1950.0317    -27680.84    35.967502   0.81656126 
    9900    243.22655   -301.05008    263624.46   -25740.181    1968.4079   -27708.589    36.391141   0.81656126 
   10000    241.84112   -184.92375    263624.46   -25751.973    1957.1959   -27709.168    37.367818   0.81656126 
Loop time of 33.6971 on 80 procs for 10000 steps with 9436 atoms

Performance: 128.201 ns/day, 0.187 hours/ns, 296.761 timesteps/s
98.0% CPU use with 80 MPI tasks x no OpenMP threads

MPI task timing breakdown:
Section |  min time  |  avg time  |  max time  |%varavg| %total
---------------------------------------------------------------
Pair    | 0.00053358 | 7.8252     | 29.032     | 373.1 | 23.22
Neigh   | 0.00051165 | 0.25003    | 0.93367    |  62.9 |  0.74
Comm    | 0.01367    | 10.167     | 30.366     | 344.6 | 30.17
Output  | 0.18253    | 0.18272    | 0.18826    |   0.1 |  0.54
Modify  | 0.54949    | 15.087     | 33.335     | 381.3 | 44.77
Other   |            | 0.1852     |            |       |  0.55

Nlocal:        117.950 ave         369 max           0 min
Histogram: 36 0 18 6 0 0 0 0 2 18
Nghost:        755.150 ave        1261 max           0 min
Histogram: 12 0 0 4 1 22 17 0 10 14
Neighs:         0.00000 ave           0 max           0 min
Histogram: 80 0 0 0 0 0 0 0 0 0
FullNghs:      11523.5 ave       44800 max           0 min
Histogram: 48 12 0 0 0 0 0 2 10 8

Total # of neighbors = 921882
Ave neighs/atom = 97.698389
Neighbor list builds = 589
Dangerous builds = 0
write_data 	    ${DIR}/data.${NAME}_eq
write_data 	    run_7/data.${NAME}_eq
write_data 	    run_7/data.ibeam_cooling_7_eq
System init for write_data ...

undump              1
unfix               4



################################################
#######         Run Simulation         #########
################################################

reset_timestep      0
timestep	    10.0
log                 ${DIR}/log.run_${NAME}
log                 run_7/log.run_${NAME}
log                 run_7/log.run_ibeam_cooling_7
