
### Dimensions ###


### IMPORT ATOMS ###
read_data ../Box_Setup/data.Ibeam_240K
  orthogonal box = (0 0 0) to (157.504 36.4877 39.8503)
  10 by 2 by 3 MPI processor grid
  reading atoms ...
  8943 atoms
  reading velocities ...
  8943 velocities
group water type 2
2223 atoms in group water
group graphite type 1
6720 atoms in group graphite


# Define potential
#
pair_style          sw
pair_coeff * * MLC_e.sw C mW

# Add velocity/set timestep
#

fix		1 graphite setforce 0.0 0.0 0.0
velocity 	graphite set 0.0 0.0 0.0
velocity            water create ${START_TEMP} ${SEED} rot yes dist gaussian
velocity            water create 235 ${SEED} rot yes dist gaussian
velocity            water create 235 30478 rot yes dist gaussian
timestep            5.0

# Define output
#
compute 1 water msd
compute 2 water temp


thermo	            100
thermo_style custom step c_2 press vol etotal ke pe c_1[4] density

# Neighbor lists
#
neigh_modify        delay 0 every 1 check yes


# Set fixes
#
fix                 2 water momentum 10 linear 1 1 1 rescale
fix                 3 all nve
fix                 4 water temp/csvr ${START_TEMP} ${START_TEMP} 500.0 928347
fix                 4 water temp/csvr 235 ${START_TEMP} 500.0 928347
fix                 4 water temp/csvr 235 235 500.0 928347

# Run 0.05 ns equilibration
#
dump                1 all custom 100 ${DIR}/eq.${NAME}.dump id type x y z vx vy vz
dump                1 all custom 100 run_7/eq.${NAME}.dump id type x y z vx vy vz
dump                1 all custom 100 run_7/eq.ibeam_cooling_7.dump id type x y z vx vy vz
run                 10000
Neighbor list info ...
  update every 1 steps, delay 0 steps, check yes
  max neighbors/atom: 2000, page size: 100000
  master list distance cutoff = 6.67472
  ghost atom cutoff = 6.67472
  binsize = 3.33736, bins = 48 11 12
  1 neighbor lists, perpetual/occasional/extra = 1 0 0
  (1) pair sw, perpetual
      attributes: full, newton on
      pair build: full/bin/atomonly
      stencil: full/bin/3d
      bin: standard
Per MPI rank memory allocation (min/avg/max) = 3.374 | 4.219 | 4.781 Mbytes
Step c_2 Press Volume TotEng KinEng PotEng c_1[4] Density 
       0          235    -169.9624    229018.04   -21244.698    1556.4896   -22801.188            0   0.87555383 
     100     233.5416   -230.81804    229018.04   -21223.514    1546.8301   -22770.344   0.82499991   0.87555383 
     200    230.98676   -391.86383    229018.04   -21270.399    1529.9084   -22800.308    1.1808903   0.87555383 
     300    232.91333    -359.5067    229018.04   -21265.416    1542.6688   -22808.085    1.4652725   0.87555383 
     400     228.9688   -233.37196    229018.04   -21281.805    1516.5427   -22798.348    1.7727879   0.87555383 
     500     229.4615   -126.01576    229018.04   -21288.135    1519.8061   -22807.941    2.0814982   0.87555383 
     600    231.03152   -422.10278    229018.04   -21399.509    1530.2049   -22929.714    2.5251737   0.87555383 
     700    227.62272   -302.65075    229018.04    -21370.14    1507.6272   -22877.768    2.9244479   0.87555383 
     800    231.10832   -320.31883    229018.04   -21412.944    1530.7136   -22943.657    3.1545579   0.87555383 
     900    231.26387   -410.00863    229018.04   -21354.696    1531.7438    -22886.44    3.3428742   0.87555383 
    1000    240.51249   -342.19602    229018.04   -21298.156    1593.0008   -22891.157    3.6278398   0.87555383 
    1100    232.19266   -221.79624    229018.04   -21325.971    1537.8956   -22863.867    3.8855097   0.87555383 
    1200    233.42444   -418.55576    229018.04   -21361.187    1546.0541   -22907.241    4.2551479   0.87555383 
    1300    232.94767   -309.85887    229018.04   -21313.184    1542.8963    -22856.08    4.6020417   0.87555383 
    1400    248.71264   -336.82285    229018.04   -21258.663    1647.3133   -22905.976    4.9462752   0.87555383 
    1500    239.79458    -135.2179    229018.04   -21266.129    1588.2458   -22854.375    5.1850573   0.87555383 
    1600    239.54221   -125.97279    229018.04   -21261.367    1586.5743   -22847.942    5.5406141   0.87555383 
    1700    232.93061   -216.49199    229018.04   -21268.631    1542.7833   -22811.415    5.8418874   0.87555383 
    1800    235.14494   -290.29388    229018.04   -21279.279    1557.4496   -22836.728    6.0936292   0.87555383 
    1900    240.74277   -210.77336    229018.04   -21199.101     1594.526   -22793.627    6.6318914   0.87555383 
    2000    243.15625   -227.44683    229018.04   -21187.963    1610.5114   -22798.474     6.950706   0.87555383 
    2100    240.39877   -141.63111    229018.04   -21225.567    1592.2476   -22817.815    7.1292451   0.87555383 
    2200    241.30054   -257.73147    229018.04   -21226.734    1598.2203   -22824.954    7.5190296   0.87555383 
    2300     237.2581   -319.06311    229018.04   -21273.238    1571.4458   -22844.684    7.7184246   0.87555383 
    2400    235.52228   -304.40906    229018.04    -21270.93    1559.9488   -22830.879    7.9409963   0.87555383 
    2500    243.51173   -189.35173    229018.04   -21272.711    1612.8659   -22885.576    8.1025845   0.87555383 
    2600    235.09592   -119.93946    229018.04    -21323.05    1557.1249   -22880.175    8.4040701   0.87555383 
    2700    234.80687    -188.3727    229018.04   -21301.185    1555.2104   -22856.395    8.9438572   0.87555383 
    2800    238.17009     -469.124    229018.04   -21307.273    1577.4862   -22884.759    9.1642517   0.87555383 
    2900     228.2706   -365.84515    229018.04   -21356.303    1511.9183   -22868.222     9.414823   0.87555383 
    3000    229.75439   -172.10206    229018.04   -21381.481     1521.746   -22903.227    9.8004117   0.87555383 
    3100    232.97801   -118.32887    229018.04   -21367.998    1543.0972   -22911.095    10.111503   0.87555383 
    3200    233.26889   -261.68671    229018.04   -21390.734    1545.0238   -22935.758    10.391823   0.87555383 
    3300     233.0461   -221.48701    229018.04   -21356.634    1543.5482   -22900.182    10.574501   0.87555383 
    3400    236.42122   -343.54069    229018.04   -21354.666    1565.9028   -22920.569    10.655127   0.87555383 
    3500     235.5555   -327.08737    229018.04   -21349.428    1560.1688   -22909.597    10.938441   0.87555383 
    3600    233.78279   -288.52267    229018.04   -21333.774    1548.4276   -22882.201    11.120754   0.87555383 
    3700    233.77493   -322.53557    229018.04   -21361.442    1548.3755   -22909.817     11.33214   0.87555383 
    3800     231.7825   -296.09255    229018.04   -21359.871    1535.1789    -22895.05      11.6963   0.87555383 
    3900     234.5118   -319.12431    229018.04   -21347.321    1553.2561   -22900.577    11.893845   0.87555383 
    4000    228.80035    -194.5737    229018.04   -21368.684    1515.4271   -22884.111    12.082125   0.87555383 
    4100    237.16581   -152.61662    229018.04   -21324.433    1570.8345   -22895.268    12.433987   0.87555383 
    4200     235.7884   -246.08314    229018.04   -21291.652    1561.7115   -22853.363    12.743561   0.87555383 
    4300    241.81231   -427.24079    229018.04   -21194.864      1601.61   -22796.474    13.271375   0.87555383 
    4400    237.97114   -357.13052    229018.04   -21194.325    1576.1685   -22770.494    13.679596   0.87555383 
    4500    233.36196   -234.70296    229018.04   -21230.651    1545.6403   -22776.291    13.939048   0.87555383 
    4600    234.09462   -442.32962    229018.04   -21243.019    1550.4929   -22793.512    14.248685   0.87555383 
    4700    227.07396   -330.56538    229018.04   -21282.724    1503.9926   -22786.717    14.482547   0.87555383 
    4800    233.83932   -330.50068    229018.04   -21238.815     1548.802   -22787.617    14.666021   0.87555383 
    4900    237.54423   -347.05326    229018.04   -21243.831    1573.3409   -22817.172     14.91217   0.87555383 
    5000    233.84711   -291.82722    229018.04   -21276.117    1548.8536   -22824.971     15.26311   0.87555383 
    5100    234.10894   -272.42679    229018.04   -21296.151    1550.5878   -22846.738    15.250892   0.87555383 
    5200    239.78451   -355.93272    229018.04   -21276.371    1588.1791   -22864.551    15.625982   0.87555383 
    5300    230.93222   -361.60386    229018.04    -21324.81    1529.5472   -22854.357    15.878002   0.87555383 
    5400    239.80629   -148.11026    229018.04   -21290.662    1588.3234   -22878.985       16.287   0.87555383 
    5500    230.27015   -284.58205    229018.04   -21318.817    1525.1621   -22843.979    16.584805   0.87555383 
    5600    230.68483   -342.90597    229018.04   -21342.142    1527.9086    -22870.05    16.690956   0.87555383 
    5700    232.48433   -252.32507    229018.04    -21311.11    1539.8274   -22850.938      17.0768   0.87555383 
    5800    235.82613   -233.02836    229018.04     -21230.7    1561.9614   -22792.662    17.429617   0.87555383 
    5900    237.75213   -310.80836    229018.04   -21246.761     1574.718   -22821.479    17.829452   0.87555383 
    6000    226.01186   -183.22787    229018.04   -21340.202    1496.9579    -22837.16    18.006303   0.87555383 
    6100    233.10314   -419.46924    229018.04   -21324.308     1543.926   -22868.234    18.311181   0.87555383 
    6200    237.12667   -351.25681    229018.04   -21299.215    1570.5753    -22869.79    18.877818   0.87555383 
    6300    231.56835   -302.67713    229018.04   -21260.096    1533.7605   -22793.856    19.219665   0.87555383 
    6400     235.4655    -162.1462    229018.04   -21254.489    1559.5728   -22814.062     19.66858   0.87555383 
    6500     238.2972   -139.03807    229018.04   -21289.696    1578.3281   -22868.024      19.6964   0.87555383 
    6600    229.37133   -289.88235    229018.04   -21338.802    1519.2089    -22858.01    19.788206   0.87555383 
    6700    228.32559   -318.48074    229018.04    -21386.36    1512.2826   -22898.643    20.290958   0.87555383 
    6800    234.04249   -479.07534    229018.04   -21348.865    1550.1476   -22899.013     20.65053   0.87555383 
    6900    231.01376   -394.09808    229018.04   -21388.861    1530.0873   -22918.948    21.071373   0.87555383 
    7000    231.50539    -243.5999    229018.04   -21409.625    1533.3435   -22942.969    21.196725   0.87555383 
    7100    238.73364   -251.45668    229018.04   -21323.715    1581.2188   -22904.934    21.299222   0.87555383 
    7200    236.73312   -284.35585    229018.04   -21331.688    1567.9687   -22899.657    21.762363   0.87555383 
    7300     225.9283   -422.39121    229018.04   -21405.161    1496.4044   -22901.566     22.21549   0.87555383 
    7400    229.31582   -294.95317    229018.04   -21419.628    1518.8412   -22938.469    22.587966   0.87555383 
    7500    225.82419   -411.60858    229018.04   -21429.046    1495.7149   -22924.761    22.987181   0.87555383 
    7600     223.7842   -291.69728    229018.04   -21444.922    1482.2033   -22927.126     23.38964   0.87555383 
    7700    233.68088   -302.22196    229018.04   -21393.466    1547.7526   -22941.218    23.605131   0.87555383 
    7800    235.79472   -276.43237    229018.04   -21350.002    1561.7533   -22911.755     23.57842   0.87555383 
    7900    237.35757   -278.58676    229018.04   -21325.443    1572.1046   -22897.547    23.704495   0.87555383 
    8000    238.65533   -187.46682    229018.04   -21320.823    1580.7002   -22901.523    23.998729   0.87555383 
    8100     236.3302   -94.195795    229018.04   -21354.049       1565.3   -22919.349    24.332351   0.87555383 
    8200    236.72262   -225.68686    229018.04   -21388.273    1567.8991   -22956.172      24.6387   0.87555383 
    8300    229.22162   -316.08307    229018.04   -21389.622    1518.2173   -22907.839    24.783571   0.87555383 
    8400    230.20519   -522.61208    229018.04   -21381.046    1524.7318   -22905.778    24.992679   0.87555383 
    8500    239.56558   -323.91684    229018.04   -21386.423    1586.7291   -22973.152    25.387325   0.87555383 
    8600    228.24513   -265.74482    229018.04   -21328.712    1511.7497   -22840.462    25.266137   0.87555383 
    8700    230.48609   -94.457574    229018.04   -21393.627    1526.5924    -22920.22    25.541746   0.87555383 
    8800    231.43525   -168.60019    229018.04   -21325.203     1532.879   -22858.082    25.788545   0.87555383 
    8900    232.27271   -286.83603    229018.04   -21353.094    1538.4258    -22891.52    25.985871   0.87555383 
    9000    229.43964   -276.47554    229018.04   -21313.198    1519.6613   -22832.859    26.533889   0.87555383 
    9100    237.59936   -287.45571    229018.04   -21308.539    1573.7061   -22882.245    26.657934   0.87555383 
    9200    232.52725   -507.72197    229018.04   -21358.026    1540.1116   -22898.138    26.948793   0.87555383 
    9300    238.03529   -385.91908    229018.04   -21389.862    1576.5934   -22966.455    27.050106   0.87555383 
    9400    228.49581   -435.73987    229018.04   -21444.046      1513.41   -22957.456    27.164567   0.87555383 
    9500    233.56803   -218.05903    229018.04   -21406.493    1547.0052   -22953.498    27.235052   0.87555383 
    9600     224.5805    -338.4486    229018.04   -21469.504    1487.4775   -22956.982    27.612175   0.87555383 
    9700    233.84099   -322.95705    229018.04   -21414.209     1548.813   -22963.022    27.725376   0.87555383 
    9800    226.76021   -287.34309    229018.04   -21403.641    1501.9145   -22905.555    28.122221   0.87555383 
    9900    240.46141   -320.41421    229018.04   -21339.622    1592.6625   -22932.285    28.252868   0.87555383 
   10000    239.24425   -286.62194    229018.04   -21255.121    1584.6008   -22839.722    28.861371   0.87555383 
Loop time of 62.0992 on 60 procs for 10000 steps with 8943 atoms

Performance: 69.566 ns/day, 0.345 hours/ns, 161.033 timesteps/s
89.7% CPU use with 60 MPI tasks x no OpenMP threads

MPI task timing breakdown:
Section |  min time  |  avg time  |  max time  |%varavg| %total
---------------------------------------------------------------
Pair    | 0.0007062  | 8.2652     | 27.152     | 361.8 | 13.31
Neigh   | 0.0029275  | 0.25374    | 0.74253    |  53.1 |  0.41
Comm    | 0.20055    | 14.126     | 53.338     | 371.2 | 22.75
Output  | 0.31314    | 0.31632    | 0.32443    |   0.4 |  0.51
Modify  | 2.2582     | 37.815     | 60.905     | 316.9 | 60.89
Other   |            | 1.323      |            |       |  2.13

Nlocal:    149.05 ave 375 max 0 min
Histogram: 24 0 5 11 0 0 0 0 4 16
Nghost:    817.167 ave 1295 max 360 min
Histogram: 10 2 0 4 20 4 4 4 4 8
Neighs:    0 ave 0 max 0 min
Histogram: 60 0 0 0 0 0 0 0 0 0
FullNghs:  15032 ave 45131 max 0 min
Histogram: 28 12 0 0 0 0 0 2 10 8

Total # of neighbors = 901918
Ave neighs/atom = 100.852
Neighbor list builds = 563
Dangerous builds = 0
write_data 	    ${DIR}/data.${NAME}_eq
write_data 	    run_7/data.${NAME}_eq
write_data 	    run_7/data.ibeam_cooling_7_eq

undump              1
unfix               4



################################################
#######         Run Simulation         #########
################################################

reset_timestep      0
timestep	    10.0
log                 ${DIR}/log.run_${NAME}
log                 run_7/log.run_${NAME}
log                 run_7/log.run_ibeam_cooling_7
