LAMMPS data file via write_data, version 7 Aug 2019, timestep = 5000000

4091 atoms
1 atom types

7.7142150690367117e-02 5.1342857849310356e+01 xlo xhi
7.7142150690367117e-02 5.1342857849310356e+01 ylo yhi
7.7142150690367117e-02 5.1342857849310356e+01 zlo zhi

Masses

1 18.15

Atoms # atomic

3511 1 1.9700833605631529e+00 2.1537382934751155e+00 1.2120767320840806e+00 0 0 3
653 1 6.2045528715565865e+00 1.5207159079846917e+00 3.5781438130304571e-01 0 0 0
198 1 1.1067757490800599e+01 1.5266396075570650e+00 2.9879490443239440e+00 0 0 1
2244 1 1.1963430692961225e+01 1.4115615121477015e-01 1.0245674162495604e+01 3 1 0
2930 1 1.3502853941485903e+01 5.3997328277248624e-01 4.2196621469160904e+00 0 0 1
258 1 1.7446950318383077e+01 1.0537779721401337e+01 1.6709486231072336e+01 2 -1 1
2509 1 2.5273673391173496e+01 1.0711164783864335e+01 1.6553280690525231e+01 1 0 0
3311 1 2.3245811370474378e+01 2.5471463047272987e+01 3.4458145979922632e+00 1 -2 1
3318 1 1.9647665250939891e+01 1.7478343560118004e+00 1.8477978065535492e+00 0 0 2
1189 1 2.5576943253116433e+01 2.1439071794238718e+01 3.2571639903993703e+00 -1 0 2
66 1 4.3623996150100215e+00 5.5915454544992835e+00 7.0973798634114960e-01 1 2 0
2929 1 4.7758235504379281e+00 6.0899229161913393e+00 3.2032470395834380e+00 0 1 2
2580 1 8.9904624425847217e+00 5.4227117783537704e+00 2.6325040206417367e+00 3 0 2
3921 1 1.8789592022111767e-01 1.3068078704964456e+01 2.3237784528052882e-01 1 -1 0
2983 1 1.3134586381967972e+01 5.3659344583418127e+00 2.1268977101223236e+00 1 1 1
3711 1 1.5520936766919506e+01 4.0597851812850063e+00 2.8727168781014503e+00 -1 2 0
2918 1 2.1291997571988503e+01 5.8840210562340927e+00 1.1498405167264258e+00 -1 2 1
521 1 9.0978451581548541e+00 7.9311654218137084e+00 3.3918448877886789e+00 -1 0 -1
2716 1 1.1124257110335448e+01 9.1496883958745787e+00 2.3222721395487156e+00 0 1 -1
2384 1 1.3504705169933047e+01 8.0262013705883675e+00 3.2083777419082518e+00 1 2 1
3574 1 1.5564755435899553e+01 9.4168009423991705e+00 1.9191877512690450e+00 1 2 2
1836 1 1.7823848647923406e+01 8.0125512915143791e+00 2.4308921156093035e+00 0 1 2
1426 1 1.7171938048420330e+01 3.2501574549652839e+00 7.7590195187018240e-01 -1 1 1
1142 1 2.3269561878331697e+01 7.5453180327994449e+00 2.0337054408039892e+00 -2 1 1
617 1 2.1838720136770515e+00 9.6645323765153535e+00 8.0924644648108857e-01 1 0 1
1315 1 2.3241633136189397e+00 1.0078241469853243e+01 3.4772579641248891e+00 2 1 0
3512 1 6.6688608014848905e+00 9.4398564117233992e+00 2.6281390161839577e+00 2 -2 0
1509 1 7.1051523171226467e+00 1.2035083832542805e+01 3.4081727277205860e+00 1 -1 0
763 1 1.1446062033663363e+01 1.1609146953938472e+01 3.0056578223925543e+00 -3 0 0
842 1 1.5621726180448565e+01 1.2153793676411485e+01 2.4764021735938906e+00 -2 0 1
1304 1 1.8103457889819076e+01 1.3124317010999054e+01 1.1977055712569225e+00 -1 2 -2
3085 1 2.0471780623277166e+01 1.2062765324251513e+01 1.8426732799630337e+00 1 2 2
283 1 5.0986074768093017e+00 1.3224255164474243e+01 2.4052882273624316e+00 0 -2 -1
3744 1 2.5516415227485145e-01 2.3299058800322882e+01 9.8197712156906327e+00 0 2 4
3095 1 9.4193176971777639e+00 1.2631150240540419e+01 1.9559876276361263e+00 2 0 1
3642 1 9.5030476864188280e+00 1.5438390995821338e+01 2.9047899671284880e+00 1 1 0
3647 1 1.3360519020062561e+01 1.2985770233082073e+01 1.5138913094023638e+00 -1 -1 0
207 1 1.3605210834218690e+01 1.5841767774357221e+01 2.1509058472831630e+00 0 1 1
2937 1 1.8328638519234143e+01 1.5719556936181156e+01 1.6006192762313125e+00 1 0 0
851 1 2.2194480430551749e+01 1.3639260387560839e+01 2.7037981764736321e+00 -1 2 1
1511 1 2.3030305915191320e+01 1.5354595961633612e+01 8.9318940483479159e-01 1 0 -1
1838 1 2.7468256456497437e+00 1.7149351349885450e+01 2.6145547310220696e+00 0 1 1
2173 1 4.8513301602667900e+00 1.5862150381988691e+01 3.2333179151596196e+00 1 1 -1
377 1 7.1778349834924935e+00 1.7147652974397403e+01 2.0062468557816642e+00 -2 0 0
4065 1 1.1323799715435355e+01 1.7035597747260894e+01 1.7947666098732535e+00 0 2 0
3917 1 1.1933091615213707e+01 1.9623793307509505e+01 2.2743624179518651e+00 4 1 1
2467 1 1.5704265516612740e+01 1.6608254716925678e+01 8.4803537395565753e-01 -1 -1 1
690 1 2.0686447939220866e+01 1.9224986258000094e+01 7.5206553517106167e-01 2 -1 0
3791 1 2.1156032219430880e+01 1.9246528999381006e+01 3.4803103915452125e+00 -1 -1 2
3571 1 1.9117220303430894e+01 2.5436219605243689e+01 4.2859233238801933e+00 1 0 1
312 1 2.4753785601992597e+01 1.7087258158772091e+01 1.9993701336329317e+00 0 -2 2
957 1 1.2257997133405127e+01 2.4707815853251986e+01 1.5322164454432544e+01 1 -3 0
3999 1 4.7654094283875825e-01 2.1250315996545329e+01 2.4301155058252752e+00 2 1 -1
1032 1 2.8529593304260010e+00 1.9778475104731090e+01 3.1227535261106567e+00 -1 1 0
1898 1 4.9817002215754806e+00 2.1165123567244880e+01 2.0055651287146175e+00 -3 1 1
2939 1 7.1890291339727854e+00 1.9656909713847881e+01 2.7443543950218623e+00 1 0 2
1874 1 9.4349652001915238e+00 2.0605789669973532e+01 1.6921266306601010e+00 -1 0 1
2478 1 1.3959746583291077e+01 2.0610002681031876e+01 9.4358797378297132e-01 1 0 -2
1023 1 1.6075294128344261e+01 1.9099219588462919e+01 1.4752597481610290e+00 2 1 0
482 1 7.4722166004789803e-01 2.3747420739431050e+01 3.2490479191074972e+00 0 2 2
1445 1 3.0984974497711120e+00 2.4362622775681185e+01 2.0863223283728694e+00 3 -1 -1
1448 1 5.4475184316883549e+00 2.3406494740868428e+01 2.9924139133433938e+00 1 2 0
1261 1 7.6542364317894016e+00 2.4294248324640748e+01 1.4450502784368529e+00 0 1 2
2794 1 9.8248288122137009e+00 2.3080494804021125e+01 2.0526917907463860e+00 0 1 1
4087 1 1.1808631254638296e+01 2.4290701613004209e+01 7.6485671926258680e-01 0 2 1
3579 1 1.4276391691562083e+01 2.3305588301804232e+01 1.4937848626856389e+00 2 1 1
433 1 7.8192417269812822e+00 2.5647386303776035e+01 1.5603545511113969e+01 -1 -1 0
1798 1 1.8370675624000917e+01 2.2757818952080754e+01 8.2538857664201981e-01 -1 1 0
3691 1 1.9020108765993680e+01 2.2887440312585817e+01 3.2814803856917698e+00 1 2 0
3031 1 2.3364585667387079e+01 2.2855968090306220e+01 2.8708473234691470e+00 0 2 1
1598 1 2.5360248161046218e+01 2.3643990813750198e+00 3.5808484147170190e+00 -1 0 1
2815 1 3.0340663973413666e+00 2.8037141429660242e+00 5.6932838640948651e+00 3 -2 2
3251 1 4.3780051299501865e+00 1.0246722453674202e+00 4.3171926283123314e+00 3 0 0
1062 1 6.4214710973577960e+00 2.0158783066454360e+00 3.0067076534785082e+00 -1 0 0
1417 1 8.6066354516101384e+00 5.7338897534006750e-01 4.0630396448886081e+00 0 1 2
2030 1 8.9201206010264880e+00 1.0781242997546407e+00 6.7982763867320157e+00 2 1 -1
811 1 1.3420577185607641e+01 6.8857536560474997e-01 6.9303056201933941e+00 0 1 -1
3233 1 1.5875620206560010e+01 1.6486735973458022e+00 3.7850087534720380e+00 0 2 1
2406 1 1.7372235648063299e+01 8.9934372174499499e-01 6.0061557199435285e+00 0 -1 1
1899 1 8.4377749248899274e+00 2.5417796296148605e+01 9.4804193303881839e+00 -1 -1 1
3291 1 2.2238013060250395e+01 8.5162500763168680e-01 5.8320180931887622e+00 0 0 2
2933 1 2.2949416334738931e+01 3.0946929950079527e+00 4.7638320855309244e+00 -1 -1 2
139 1 2.6910146677823867e+00 5.1460189075077132e+00 4.3430447650579769e+00 0 1 0
3899 1 6.8392971617072673e+00 4.7135859191082741e+00 4.0297045421546347e+00 1 0 -1
599 1 6.9833480180119016e+00 4.9843754510406297e+00 6.6816510967842460e+00 0 1 2
62 1 1.1137964860895567e+01 4.2659606977146911e+00 3.4647097328494563e+00 1 1 0
926 1 1.1287109580394885e+01 4.9762529785044931e+00 6.3673078144901751e+00 1 0 3
2070 1 1.7233234993550884e+01 6.1826630192535772e+00 4.2076306826893450e+00 2 1 0
3517 1 2.0865191976584555e+01 3.8837887715022150e+00 3.0794293346746775e+00 -1 0 0
922 1 1.9566265893408339e+01 4.7172145277254804e+00 5.0787248232095008e+00 0 1 1
726 1 9.5648273251964255e-01 6.7427745923173985e+00 5.8510201824020234e+00 -2 -1 0
921 1 4.5843332114688158e+00 8.7147674059939177e+00 4.0131524012032482e+00 1 -2 1
2288 1 4.6810798373343445e+00 8.8941628715431644e+00 6.7169126620590225e+00 0 -2 2
703 1 9.5227814964308646e+00 8.6295259856799778e+00 6.0368907337252447e+00 2 0 0
2651 1 1.1761886542974379e+01 7.5468449682999301e+00 7.1449174581372565e+00 2 1 1
2412 1 1.3819362688301249e+01 8.4848406198692210e+00 5.9064246585215576e+00 0 -1 0
829 1 1.5942496366268948e+01 6.9891959455608852e+00 6.3991195891004713e+00 -2 1 1
2828 1 2.1508249291946296e+01 6.3498195011902334e+00 6.0735479759386068e+00 -2 -1 1
3723 1 2.1946772569794387e+01 8.2359313208457934e+00 4.2815646619336265e+00 0 -1 2
1005 1 2.5681834261390271e+00 1.2714545325962428e+01 3.8755582973794094e+00 0 -2 0
2907 1 2.8632689455708737e+00 1.2960100596475051e+01 6.6942655800178832e+00 0 0 0
2673 1 7.4430187025233305e+00 1.2319281970434595e+01 5.9131092332875594e+00 2 1 1
2334 1 1.1896899587831259e+01 1.2285615033637205e+01 5.7739662981530930e+00 0 0 2
2582 1 1.4094538675749741e+01 1.1051517099327089e+01 6.5611815857543263e+00 -1 -1 2
2095 1 1.6219669680559754e+01 1.2111675521224727e+01 5.2914914682200367e+00 -1 1 0
852 1 1.8501427490212119e+01 1.0754325448162579e+01 5.9259997048719315e+00 -1 0 0
595 1 1.9693861769498337e+01 1.0035628007982021e+01 3.6244138851608367e+00 0 -1 1
3486 1 2.3380625835018758e+01 1.0016198048395628e+01 5.6119041695855136e+00 1 1 2
2912 1 1.7347327900802632e+01 4.3928299770857322e+00 1.6706849467780465e+01 1 -1 1
1251 1 5.3886067261092840e+00 1.6200670325818631e+01 6.0939399117853528e+00 1 1 1
3719 1 7.7549312242794510e+00 1.4916665709890962e+01 6.6057125763464031e+00 0 2 0
3325 1 1.0048016578074085e+01 1.6141890938110116e+01 5.4587676001384793e+00 1 2 -2
2671 1 1.2283280196709027e+01 1.4872951503557347e+01 6.1771140930471731e+00 1 -1 -2
2196 1 1.4244102391800988e+01 1.5978738762172625e+01 4.7600270896785997e+00 2 0 0
2749 1 1.6592813903023739e+01 1.4665950053014187e+01 5.6009758909677752e+00 -1 1 2
2116 1 1.8726961378718226e+01 1.5537085063042406e+01 4.5481010890953595e+00 1 3 0
362 1 2.0832987511239637e+01 1.4157454739705768e+01 5.1767460378935120e+00 2 -1 1
3872 1 2.3969740557766535e+01 1.2621035979385468e+01 4.5802216348633991e+00 0 -1 -1
1333 1 2.4367984000576278e+01 1.4383183947594937e+01 6.8281762726874708e+00 0 1 -1
775 1 8.1203455250347656e-01 1.6355279241376095e+01 6.6852421818958563e+00 -2 2 -1
966 1 2.0994450382689273e+01 3.3061171004439212e+00 1.7127761371474222e+01 -1 0 2
1596 1 5.6279648654744854e+00 1.9062283016211264e+01 6.8188384597435130e+00 1 0 0
3890 1 1.0224862871493389e+01 1.8641277237583118e+01 6.2755924139020465e+00 1 0 -1
1768 1 1.4459902342179143e+01 1.8547875990835117e+01 5.7428799020634820e+00 3 -1 -1
3609 1 1.9137568348972358e+01 1.8364985241447719e+01 5.0515131610661221e+00 0 0 0
614 1 2.2350617635031970e+01 1.5942703605580970e+01 6.0710646053322623e+00 1 2 2
620 1 2.3495080966749551e+01 1.7797757115027736e+01 4.2496519246503404e+00 0 -2 1
3208 1 3.3643772816135247e+00 2.0068541353113801e+01 5.8635621076496509e+00 0 -1 -1
3745 1 7.7064352674910488e+00 1.9639086548450820e+01 5.1970859959935822e+00 1 1 -2
2274 1 1.2322895699054561e+01 1.9825135175859273e+01 4.8447855098501558e+00 3 0 0
2182 1 1.2740259538371618e+01 2.2402226921510582e+01 5.3834573773429266e+00 1 -1 1
1407 1 1.6592968098283048e+01 1.9383216250165681e+01 4.2065904338736377e+00 1 -1 1
1936 1 1.7104587623919635e+01 2.1821443934289295e+01 5.0414281869972077e+00 0 -2 0
2473 1 2.1361354117849647e+01 2.1964552587784635e+01 4.2512203210951931e+00 1 1 2
3055 1 2.5096126016719957e+01 1.9749802948720319e+01 5.6270683085400153e+00 0 -1 2
2062 1 2.3429109096201422e+01 7.2022173742060254e+00 1.6917775647868545e+01 1 -1 -2
2131 1 1.3549321168933623e+00 2.3881518564499874e+01 5.8453742149768875e+00 1 1 2
2561 1 3.5674446705939609e+00 2.2806128976964644e+01 6.4510117577098249e+00 1 -1 -1
625 1 5.8288735089241994e+00 2.3731570207583427e+01 5.5229876797592521e+00 2 0 2
2908 1 8.0034535579932111e+00 2.2230070077991076e+01 6.3469876079979137e+00 1 1 1
2664 1 1.0149802647650420e+01 2.3512129088811577e+01 4.7872222016488504e+00 2 -2 1
1277 1 1.4768068159742882e+01 2.3380811461816563e+01 4.0815688066791589e+00 0 -1 0
1739 1 9.6602469792163443e+00 2.3795709606361054e+01 1.6175451800279756e+01 -2 1 3
2660 1 6.0394951423108012e-01 2.0358914886926076e+00 6.7586106673129205e+00 -1 1 1
1450 1 5.5566847375767487e+00 2.0719154273959806e+00 9.2361176400676364e+00 0 0 -1
1134 1 1.2105078379306653e+01 3.0662666246800492e+00 1.0141224121387829e+01 -1 2 -2
3073 1 1.3125386268776900e+01 3.4064360960737643e+00 7.5759781549119891e+00 3 -1 0
2858 1 1.8974895175156639e+01 2.7927374911421223e+00 6.8457440883750502e+00 1 2 0
1320 1 2.1050486750767362e+01 1.6631355527519980e+00 8.1066171733312711e+00 1 1 0
1986 1 4.5694881424652998e+00 3.9268652990343549e+00 7.7748737937459715e+00 -1 -2 -1
272 1 3.0577657219907870e+00 5.6473698740880707e+00 9.3649735423905351e+00 3 0 0
1423 1 9.2141742230059815e+00 3.6402747947393816e+00 7.4574389617281387e+00 -1 4 1
1362 1 9.4477964158495542e+00 3.7968288178130440e+00 1.0060749757836229e+01 0 1 -1
3210 1 1.5715359938398223e+01 4.9263111032270448e+00 8.2268492588115318e+00 -1 -1 0
3426 1 1.4653723559799891e+01 6.2958555601356023e+00 1.0363354208112089e+01 1 2 3
3812 1 1.7895718861609488e+01 3.8383141718822364e+00 9.1130892705339885e+00 1 2 2
1616 1 1.9511272085254628e+01 5.7248349410327855e+00 1.0091622709295857e+01 1 2 0
2050 1 2.3619807353647651e+01 4.7899285359770190e+00 6.9740459161399890e+00 0 1 0
3553 1 2.3016211622373451e+01 3.2339891814871353e+00 9.0820037850773918e+00 1 2 2
1156 1 2.4126322302790895e+00 7.8154557750381350e+00 7.7226005371525490e+00 0 0 1
3588 1 1.3997799483045015e+00 9.6538611610426663e+00 9.4274803924142816e+00 2 -1 -1
501 1 7.0782963361484921e+00 7.6529581544585854e+00 7.0871261582318645e+00 -1 0 -1
678 1 7.3042268098549537e+00 7.5824969386708103e+00 9.7176848336212753e+00 -1 -2 -1
3483 1 1.2288622511906638e+01 7.4321624489644300e+00 9.6223600072122437e+00 1 0 1
37 1 1.7781283398124714e+01 8.6293720673658374e+00 7.4528726595145400e+00 -2 0 -1
344 1 1.9964147441402236e+01 7.6360277752940524e+00 8.1616208806605215e+00 1 0 0
3348 1 2.1715696824647647e+01 9.0457440949426502e+00 9.6155399010746372e+00 -2 1 0
3177 1 6.8678902496453387e-01 1.1660755891278287e+01 7.8673309931808735e+00 0 2 -1
2363 1 5.3303248658615860e+00 1.1357186711883275e+01 7.4134736547200069e+00 1 0 -1
2666 1 5.2006145175298020e+00 1.1463596124899761e+01 1.0008919137522124e+01 2 0 2
974 1 9.9186202029127859e+00 1.1265017012414917e+01 7.0286936685985344e+00 1 1 -2
3731 1 9.8752720761751327e+00 1.1427486702699287e+01 9.8040245225209102e+00 0 2 1
2114 1 1.2248297024185014e+01 9.9618445721319979e+00 1.0343061476037287e+01 3 -2 1
2938 1 1.4416700477764280e+01 1.1240369227756446e+01 9.4131038188283007e+00 -1 1 1
3349 1 1.6573752413359571e+01 9.6377367107088538e+00 9.7418696554571298e+00 0 1 1
1767 1 2.0355450743594051e+01 1.2322887185303159e+01 7.0508825841143707e+00 0 1 0
3716 1 2.2418056875119230e+01 1.0788072431181023e+01 8.0041220712116381e+00 0 3 3
1870 1 2.4046082211216387e+01 1.2720258834387005e+01 8.8141629724528734e+00 1 -2 1
264 1 3.3858715726103883e+00 1.5411205232816464e+01 7.5522725028746676e+00 1 0 -1
372 1 3.6195293280756666e+00 1.5394979519134816e+01 1.0041845488600480e+01 0 1 1
415 1 8.0097324190122343e+00 1.5270514180246218e+01 9.3905859335093886e+00 -1 1 -2
2483 1 1.2179312584600451e+01 1.5279828905674760e+01 9.0102695211724040e+00 2 -1 1
2982 1 1.4517112874174073e+01 1.3954290504096791e+01 9.2939344838151410e+00 -1 -2 1
2985 1 1.9113308891826549e+01 1.3814904388734043e+01 8.7481500198354762e+00 1 2 2
2144 1 1.6879676180089461e+01 1.5299950862410441e+01 8.3480294038838689e+00 1 3 0
3422 1 2.0825620408122123e+01 1.5156591147977094e+01 9.9829005438711196e+00 0 0 1
944 1 9.6362136892799366e-01 1.9344622130971317e+01 7.2060782378507504e+00 0 1 -2
3176 1 1.7721563895870764e+00 1.8767404661345644e+01 9.6966355050878814e+00 0 0 1
2304 1 6.4081548464807190e+00 1.9270857977014298e+01 9.5122064992585411e+00 0 1 2
3540 1 8.3960426207509222e+00 1.7570105576026378e+01 1.0174599705101308e+01 0 1 -2
1014 1 1.0194931076907888e+01 1.9148773549453683e+01 8.8174388516396629e+00 1 2 0
3411 1 1.2555628708409902e+01 1.7844712269720823e+01 9.7999744812190013e+00 0 2 0
2680 1 1.4901644651004823e+01 1.8663250480800780e+01 8.4550696825642380e+00 -1 1 1
2035 1 1.7346280798563200e+01 1.7878487968566816e+01 8.9346318324221379e+00 0 0 -1
3460 1 1.9592802534325138e+01 1.8936126155615586e+01 7.5371994473590940e+00 0 1 2
2997 1 2.1636917045502571e+01 1.7173887902346006e+01 8.3787121983660491e+00 1 0 2
2847 1 2.3200574518136872e+01 1.8799440481045664e+01 9.5838913874883520e+00 1 2 1
4008 1 2.1791956637412926e+00 2.1408191828229455e+01 1.0521710378911758e+01 1 -1 1
4015 1 6.3043442630021289e+00 2.1830396192586146e+01 1.0133152456300339e+01 -1 1 1
1823 1 1.0746899251088704e+01 2.1885121847120285e+01 9.3978146962211024e+00 2 1 -1
1888 1 1.4961120744596069e+01 2.1391613531670934e+01 8.9832177508926065e+00 0 2 1
3165 1 1.6954998771315726e+01 2.2500793276354631e+01 7.9118353138440192e+00 0 -1 0
2351 1 1.9273358278765361e+01 2.1460937136659183e+01 8.3007647493973931e+00 0 0 1
2239 1 2.1646682267035089e+01 2.2261056637111814e+01 6.9872629078554587e+00 -1 0 0
3948 1 2.3758177656951140e+01 2.0726526093006992e+01 7.8905369378731693e+00 0 -2 1
1525 1 3.4583443742117265e-01 1.3494931634540242e+01 2.8877657616392267e+00 0 3 1
63 1 4.0996360314362246e+00 2.3021982323808057e+01 9.0956571347731519e+00 1 3 -1
3939 1 8.3778317091036261e+00 2.2833096739103262e+01 8.8335962300801558e+00 4 0 2
857 1 3.3412212078410519e+00 6.2796663363680805e-01 1.0201577168482141e+01 -1 1 3
470 1 1.2818502454100546e+01 2.2807099388084794e+01 7.9954860501713139e+00 1 -1 1
3529 1 1.3171424454989753e+01 2.5569032348938915e+01 8.5978617511821760e+00 0 -2 1
2398 1 1.7484152543785275e+01 2.5220219790594296e+01 8.3587568382710984e+00 0 0 0
1066 1 2.1518046683223126e+01 2.5036802518483778e+01 7.6343663229910685e+00 1 0 1
1954 1 2.2368611550105509e+01 2.5367195428838279e+01 1.0131522326868959e+01 0 1 1
979 1 3.9882530778189569e+00 2.5405066773016959e+01 9.8156982838352445e+00 1 -1 3
4040 1 2.1272565042001141e+00 2.3945039873080431e+00 1.2150370021403971e+01 1 1 3
364 1 7.8516220113557544e+00 6.5588413735303142e-01 1.2733055076484831e+01 -1 -1 -2
1128 1 7.2124105356712347e+00 2.5280160752229812e+00 1.1120818188768380e+01 -1 2 -3
2956 1 1.5907271044813150e+01 3.0920453284493208e+00 1.2831652606897196e+01 1 -1 0
2585 1 1.7656475399507773e+01 1.6692186832221474e+00 1.1048134625015026e+01 1 1 -1
1590 1 2.0036621246435530e+01 1.4686686679153347e+00 1.2923772845479363e+01 -1 2 1
1645 1 2.4574199881092941e+01 1.7202267932031297e+00 1.0622179179306608e+01 0 1 1
2948 1 8.1306261369720190e+00 1.6958873444521124e+01 1.6664741678632407e+01 -1 -2 -1
3509 1 8.9597465922910335e-01 4.3551567969980640e+00 1.0683021671058990e+01 1 4 0
3877 1 6.1882974668369934e+00 4.5488471700068036e+00 1.2768463750667760e+01 0 1 1
2773 1 9.7296211536976713e+00 6.3784598535467909e+00 1.0711463547856699e+01 0 -1 0
3563 1 1.0046073088322597e+01 6.3009821839338134e+00 1.3235883529080567e+01 1 0 0
789 1 1.3737213537202610e+01 4.3894538632803579e+00 1.1720593619365655e+01 -1 0 -1
4064 1 2.2054756686159799e+01 5.4387916871244517e+00 1.0712001131989897e+01 -1 0 2
2961 1 2.2163739287939464e+01 4.6357263835930276e+00 1.3271255758813364e+01 3 0 -1
1409 1 5.0776525653590481e+00 6.2586671491210195e+00 1.0907732576662005e+01 1 -1 1
793 1 3.9525628267742401e+00 7.9996761354596968e+00 1.2550350475683024e+01 1 0 -2
1554 1 1.5985585352728849e+01 8.0485264942284154e+00 1.1750945235340991e+01 2 0 1
538 1 1.8089700993509691e+01 6.7139598806400773e+00 1.2430610552782028e+01 0 -1 0
2713 1 2.0196575164992463e+01 8.4663036274334349e+00 1.3696118150408017e+01 0 2 0
4039 1 2.3710036086389184e+01 7.5539547827654348e+00 1.0842284311450667e+01 2 1 1
3032 1 2.4192664881558148e+01 8.4937179417301838e+00 1.3253738798696252e+01 0 2 -2
1572 1 1.9976490238757201e+00 1.2318418704025362e+01 1.3012637001204988e+01 -1 0 1
2503 1 3.0561055914485249e+00 1.0255488039283330e+01 1.1386031148407044e+01 2 1 0
1076 1 7.6236484824845476e+00 1.0402309243055006e+01 1.0794228272004059e+01 0 0 -1
1220 1 7.9820420770914229e+00 1.0230576108037491e+01 1.3604438951679084e+01 0 4 -2
2205 1 1.2426966180885014e+01 1.0068153668377368e+01 1.2710282515844726e+01 0 -1 1
2251 1 1.8458570798679236e+01 1.1626147740793817e+01 1.0632716733293849e+01 1 0 2
2137 1 1.7047901373007935e+01 1.2518733132263606e+01 1.2735162291122561e+01 0 -1 0
2496 1 2.0662629722760208e+01 1.0486960250331302e+01 1.1563633525530156e+01 1 1 1
455 1 2.2447688090113029e+01 1.2203122325215107e+01 1.2821071583877348e+01 -1 -1 1
3071 1 1.5695094976393973e+00 1.4268334579562577e+01 1.1143178977525301e+01 2 0 1
767 1 5.7207146029968712e+00 1.4240812034362138e+01 1.0839377852358959e+01 -1 -2 3
1604 1 6.4135464014600370e+00 1.4515668704150114e+01 1.3419171323301532e+01 1 2 0
1867 1 1.0135651160197114e+01 1.3957127643930145e+01 1.0376607722776615e+01 -1 2 1
73 1 1.0412537416757409e+01 1.3992680577192472e+01 1.2807855425694020e+01 1 0 -1
2906 1 1.4978755706328732e+01 1.3964994334343846e+01 1.1969439850588929e+01 0 0 0
3314 1 1.9813283132657123e+01 1.6034814223480574e+01 1.2417554613418350e+01 1 0 0
3769 1 2.3306824105177995e+01 1.4060874183747574e+01 1.0870159820079584e+01 0 -2 0
1900 1 2.4741771720853521e+01 1.5237568999796906e+01 1.2348567674329813e+01 0 1 0
2882 1 8.6369995909490349e-01 1.6001626954713295e+01 1.2931205803814088e+01 0 0 -1
3114 1 4.1927997249952424e+00 1.7970132076327022e+01 1.0627337780750313e+01 0 2 2
3891 1 4.6680313995650833e+00 1.8152201461195624e+01 1.3272700311733979e+01 0 0 1
2608 1 9.0833117577696942e+00 1.7960085189086218e+01 1.2688075228138638e+01 2 1 1
1197 1 1.1251096253024180e+01 1.6658317971786762e+01 1.3611528039203280e+01 1 0 0
2151 1 1.3241410752312550e+01 1.8256342006119226e+01 1.2227971924917634e+01 0 1 1
1820 1 1.5591798498921863e+01 1.6463209473660882e+01 1.2934257532030788e+01 -1 0 -1
1943 1 1.7664187236988294e+01 1.7751731329161032e+01 1.1843224328055534e+01 -1 0 -2
1672 1 2.1471080107109739e+01 1.7708043404026711e+01 1.3874368450230563e+01 0 2 2
3755 1 2.5221010534581602e+01 1.7736963857031903e+01 1.1253584818262397e+01 1 0 1
673 1 2.0662685223538486e+00 2.2097684024461206e+01 1.3007561868809031e+01 -2 0 0
2249 1 6.5047845079749465e+00 2.2071344749704402e+01 1.2766874865902924e+01 0 -1 0
53 1 8.8232901203908778e+00 2.0636499617004795e+01 1.3524344252886982e+01 3 -1 1
231 1 1.0945255112351212e+01 2.1745868269652895e+01 1.2306525219456896e+01 -1 0 1
710 1 1.3386714091624981e+01 2.0751282539803285e+01 1.3082429847853131e+01 1 0 2
1853 1 1.5572865595328670e+01 2.1694165877023853e+01 1.1791474314591865e+01 1 1 1
91 1 1.7807789257301248e+01 2.0483626647251558e+01 1.2719065791795668e+01 -2 0 -1
738 1 1.9800065351009735e+01 2.1571069538156390e+01 1.1095903563085875e+01 1 -1 0
515 1 2.1753471462077080e+01 2.0005983550339259e+01 1.1753770999289978e+01 -3 1 -1
1087 1 2.3912590222451051e+01 2.1721001250008133e+01 1.2567967068924901e+01 2 0 0
888 1 1.6114834002339289e+00 2.4786050139431918e+01 1.3099950114155581e+01 -3 1 0
2770 1 1.6629653409909256e+01 2.4304046871556093e+01 1.5162218841449144e+01 2 1 -1
2202 1 2.2333074095894496e+01 6.2746734915253999e-01 1.1814464903265067e+01 0 2 -1
1397 1 6.7469991259067550e+00 2.4737514526714936e+01 1.3374342384161659e+01 -3 0 -2
3373 1 1.1407056049244247e+01 2.4479783359464633e+01 1.2713390822038642e+01 0 1 0
306 1 1.6203017920763944e+01 2.4139884479030851e+01 1.2464092344966634e+01 -2 0 0
1097 1 6.6630916818311003e-01 3.9335435974555883e+00 2.5315351257306133e+00 1 -1 0
3629 1 1.4131356979211589e+01 2.3286349266922031e+01 1.6596344514860927e+01 1 1 -1
665 1 2.0323029465922289e+01 2.4230007980786198e+01 1.1871593480857513e+01 2 -2 0
288 1 2.4547097221398147e+01 2.3806664968276507e+01 1.0930370487652809e+01 1 -1 3
3922 1 4.4752926426578421e+00 1.3919140366479685e+00 1.5390931704535815e+01 0 1 1
2445 1 3.9937489332809655e+00 3.3804636521813385e+00 1.3831419568025799e+01 3 2 0
1137 1 9.6173431061216306e+00 1.4505418293013657e+00 1.5010126659111792e+01 1 1 1
1311 1 1.2086904343833876e+01 2.7951849822686143e+00 1.5288121010562685e+01 -1 2 0
216 1 1.4790280087004010e+01 1.7522264713728504e+00 1.4864444131145511e+01 1 -1 0
2578 1 2.4776452864776061e+01 3.5176136087508172e+00 1.6549820843730117e+01 1 -1 2
2837 1 6.6374705655404465e-01 4.1077930932673565e+00 1.6606256769284599e+01 -1 0 0
830 1 2.6587190338643221e+00 4.8585318843789613e+00 1.5401207921873352e+01 -2 2 0
3548 1 8.5026106386536036e+00 3.3750206015748545e+00 1.6378691440841223e+01 0 0 1
3790 1 7.9322870000991772e+00 5.4819675812047928e+00 1.4553751727437000e+01 -1 2 0
2286 1 1.2320719603038903e+01 5.0033369939347132e+00 1.3759907230388404e+01 2 2 -2
1989 1 8.3914906170708470e+00 1.2255972987484805e+01 1.7077036911985523e+01 1 -1 1
1796 1 1.7715316489014949e+01 4.6775007961830655e+00 1.3973215887805635e+01 0 1 0
2565 1 2.0207889366369919e+01 3.4720177580447635e+00 1.4441584908634946e+01 -1 1 2
1664 1 2.4806476585974245e+01 4.1468229293829060e+00 1.4100964918506454e+01 0 2 0
3363 1 1.7502176514265388e+00 7.2681611836754128e+00 1.3871879006330893e+01 1 1 -1
208 1 6.4835000930610887e-01 8.9273787120530912e+00 1.5639228522185890e+01 1 3 -2
2433 1 5.5632827514496377e+00 9.3163339977262662e+00 1.4290469982291677e+01 1 0 1
420 1 6.2866901918853886e+00 7.2716634796339061e+00 1.6058271578519864e+01 1 0 0
934 1 1.0255063601717893e+01 8.7267287507113291e+00 1.4005078474257994e+01 -1 0 1
2977 1 1.1492990057386804e+01 8.2070549966180337e+00 1.6386423613672839e+01 0 1 0
1631 1 1.4478063162954795e+01 9.2536667923872624e+00 1.3548317848770386e+01 -1 -1 0
3367 1 1.3451055362678705e+01 6.8910902965514493e+00 1.5172509671771993e+01 1 0 -1
2271 1 2.2475042265225149e+01 7.0046947685818193e+00 1.4506440319656839e+01 0 1 -1
3245 1 1.3593492904201325e+01 2.0773949626022326e+01 1.5665978884406549e+01 1 1 1
1763 1 4.3560631713313613e+00 2.4883753659921204e+01 1.5704127097389817e+01 2 0 -1
4083 1 3.5804100361642579e+00 1.0782575631608003e+01 1.5252057289696918e+01 1 -2 1
1881 1 2.0564534830690327e+01 1.6592327962668950e+01 3.3061235988187204e-01 -1 0 1
3795 1 8.5246830391402391e+00 1.2731924074480252e+01 1.4335805312440575e+01 -2 0 1
975 1 1.3777860641502826e+01 1.2722954122221319e+01 1.5928129486369134e+01 1 -1 1
1491 1 1.5786951729918528e+01 1.1163041299398721e+01 1.4934672519170340e+01 1 1 -1
1125 1 8.9457446499429860e+00 2.1173461237195145e+01 1.6242795532793938e+01 1 2 0
749 1 2.0039402397343714e+01 9.9605258801573751e+00 1.5914671797628579e+01 0 1 -1
3179 1 2.0788514764320034e+01 1.2688066312102125e+01 1.5018028164700054e+01 0 1 -2
2295 1 5.8239664229067045e-01 1.6159043220761909e+01 3.8466673824617446e+00 1 -2 0
3833 1 2.4770383400887074e+01 1.1123152422770353e+01 1.3805987153785015e+01 2 0 2
333 1 3.7512419260630891e+00 1.3959480607965503e+01 1.4484695488213752e+01 -2 0 -2
641 1 1.2571204397390533e+01 1.2632054221527859e+01 1.3452923871139761e+01 1 1 2
1045 1 9.2118911699046286e+00 2.5604041801448698e+01 1.1949446971831300e+01 -2 0 1
1653 1 1.8039921943637633e+01 1.5506414692294991e+01 1.6323174808611626e+01 -1 0 0
1206 1 1.8810824411923846e+01 1.4351261474274352e+01 1.4084348888259560e+01 0 0 1
561 1 2.2580586813865374e+01 1.4307330624541930e+01 1.6617165001210658e+01 -2 2 -1
2927 1 2.8123191988446701e+00 1.6869355270913072e+01 1.4497189616568754e+01 1 0 1
3025 1 7.1157421396175460e+00 1.6969620446709474e+01 1.4086834704209968e+01 2 0 1
3554 1 1.8321107200182762e+01 2.0103087810732859e+01 9.9129430471143115e-02 0 0 1
4077 1 1.0820285655722177e+01 1.7188982939318691e+01 1.6281585400031933e+01 -1 2 -1
2566 1 1.5564570549740484e+01 1.9133027150850985e+01 1.6611813106796436e+01 2 1 1
3599 1 1.5563275298594398e+01 1.6561076891744364e+01 1.5616728913279506e+01 0 0 1
2515 1 1.9566050343233741e+01 1.7793239717429511e+01 1.5776482454010466e+01 3 -1 0
15 1 2.3734803459845125e+01 1.6376660863816959e+01 1.4965128050136553e+01 1 -1 -1
643 1 3.9306350796798064e+00 2.1884092921710337e+01 1.6242178114106050e+01 3 1 -1
124 1 4.3370428362057387e+00 2.0723836499876469e+01 1.3854100446775400e+01 1 0 1
3487 1 1.7989199336459375e+01 2.0070719438889409e+01 1.5508932901329585e+01 1 0 -1
3586 1 2.3727207362886816e+01 2.5705237687041670e+01 6.1124000320355876e+00 1 0 -2
3887 1 1.8123196757801555e+01 2.5375942661904119e+01 1.1094507136469474e+01 0 0 -1
1386 1 1.0692828309647581e+01 1.4352016135879622e+00 3.3657949442815377e-01 2 1 2
596 1 1.3580457534446738e+01 2.5453616932551974e+01 1.1389267939745435e+01 0 1 -2
1395 1 1.1287280129777601e+01 2.0016873224644204e+01 1.6726498474342680e+01 1 0 2
3439 1 3.9799526775565592e+00 1.3592912130642681e+01 1.7035774473171337e+01 1 1 0
1287 1 1.5462158698834643e+00 1.6939190247113171e+01 1.7057231383553649e+01 0 1 0
3062 1 2.2871907062626217e+01 2.2693512790254047e+01 1.3159898444686036e-01 0 1 0
743 1 2.5480712380336566e+01 1.9586334719814300e+01 1.3016783038584027e+01 0 0 0
1324 1 3.5449018892654749e-01 8.9016070554121498e+00 4.5651123767159438e+00 1 0 -2
2654 1 1.7523686188242493e-01 1.1919392918779306e+00 1.3334353477230401e+01 2 -2 -1
721 1 2.5635722152690644e+01 2.2408485765320812e+01 8.8578081415634262e+00 -1 1 0
1821 1 4.1370450980078832e+00 2.5530742032221262e+01 1.2606154049484260e+01 -1 1 1
1148 1 2.6744259431010673e+00 4.0018075330687419e-01 1.6981579580505194e+01 1 2 -2
3381 1 8.6855950787923675e+00 5.2807213407880607e+00 1.1949545678443485e-01 1 0 -1
1536 1 5.6337213220807536e-01 2.0416073424513133e+01 2.1167312920782422e-01 0 1 2
2459 1 1.8954160636201010e+01 7.2163101408628396e+00 2.5333396493589078e-01 0 2 0
1709 1 1.2212325902607348e+00 2.3173043534527573e+00 1.8519447985271263e+01 -2 -1 1
3605 1 1.4145519713153748e+01 1.4893518158972130e+01 1.7692116204860511e+01 2 1 -2
2057 1 2.9187549646541933e+00 3.0444509924380143e+00 2.0692562909335741e+01 2 1 -2
1136 1 9.1575531507608137e+00 8.9488433137037704e-01 2.0336927984689265e+01 1 1 2
1837 1 3.5342455225742939e+00 3.8685659832261243e-01 3.0606287305608717e+01 2 3 -3