LAMMPS data file via write_data, version 7 Aug 2019, timestep = 200000

4091 atoms
1 atom types

2.5945477488812330e-01 5.1160545225114149e+01 xlo xhi
2.5945477488812330e-01 5.1160545225114149e+01 ylo yhi
2.5945477488812330e-01 5.1160545225114149e+01 zlo zhi

Masses

1 18.15

Atoms # atomic

1599 1 4.3869018219044777e+00 2.7487370994647988e+00 6.3617515024457667e+00 0 1 1
2523 1 4.6976184107634049e+00 1.5223428695170074e+00 3.7937212627886971e+00 0 0 1
366 1 1.0704039999002713e+01 2.2690851940595467e+00 2.0757291806293052e+00 0 0 1
1770 1 2.3411850741029692e+01 3.3133565621041199e+00 5.4862043106011815e-01 0 1 1
1800 1 9.3900381732695148e+00 1.5304465901624107e+00 1.0234486694374283e+01 0 1 0
83 1 2.3829781746180945e+01 3.1366199832808870e+00 3.2355260924402174e+00 0 0 0
2503 1 9.2635333523782759e-01 2.3667282434490748e+01 6.8435253089663384e+00 1 0 0
3646 1 3.8640674585668453e+00 6.3071442848750472e+00 3.6932993190216283e+00 0 1 0
1316 1 6.9974344526149617e+00 1.6051923278035329e+00 1.3543763945059824e+00 0 1 1
3420 1 8.8621677796420482e+00 3.9555180703771242e+00 3.1530163535985585e+00 1 1 0
312 1 1.3461992904355958e+01 5.3402974348649108e+00 6.7169758151114423e-01 0 0 0
2282 1 1.4984857234308942e+01 7.4129449776451990e+00 9.1525624192764743e-01 0 0 0
2521 1 2.0911906816204748e+01 6.3304116208454637e+00 2.6785324048447032e+00 0 0 0
808 1 1.9184777708631245e+01 4.3131126996466307e+00 2.7841693148111313e+00 0 0 1
2123 1 2.0372161280334966e+00 9.6467617413318134e+00 1.7871257209099780e+00 1 0 0
2755 1 1.4435949194626878e+00 7.5708850942262993e+00 3.5909553368956146e+00 1 0 1
955 1 1.7012400995240748e+00 7.2444728869366362e+00 7.6017451465769357e+00 0 0 1
3405 1 4.8491315814269038e+00 1.0228509073396355e+01 2.3849405244447368e+00 1 1 0
76 1 8.1147153947343451e+00 6.5228104521351957e+00 2.3125745670711524e+00 0 0 0
858 1 1.0329388459653490e+01 8.1020413162272646e+00 2.5738732579052424e+00 0 0 1
2434 1 2.0785457894144244e+01 2.6617257945726198e+00 1.8573259994430187e+00 0 1 1
2341 1 1.9778534441062479e+01 8.7367688939095327e+00 2.5333753508077268e+00 0 0 0
1474 1 6.7177241404680177e-01 2.4463165146786854e+00 7.2499791324514096e+00 0 1 0
2878 1 2.3394232027690233e+01 6.2885359578781639e+00 1.3935386372930800e+00 0 0 1
106 1 2.5647428208740401e+01 1.6274784659602844e+01 1.5400246090796859e+01 0 0 0
2070 1 1.8504319277883969e+01 6.8809745630823926e-01 1.0401027376348133e+00 0 0 0
1223 1 3.9463185075289275e+00 1.3075830268541019e+01 3.2910343982878469e+00 0 0 0
2517 1 6.7613328738568370e+00 1.4200163922106176e+01 1.7163311851320739e+01 1 0 0
1950 1 9.1046397265543160e+00 1.0778411939118648e+01 1.8620495814345654e+00 0 0 1
1303 1 5.1679575235949704e+00 1.3428124371692750e+01 7.0007810238430268e-01 0 1 0
1355 1 2.5377521393208678e+01 1.1066022897520757e+01 1.4562415326891754e+01 0 1 0
2255 1 1.5313019638075820e+01 1.4311680663000194e+01 2.6884216709155266e+00 0 0 0
3422 1 2.1808415136674618e+01 1.0322242112097261e+01 1.8841426044919654e+00 0 1 0
3122 1 2.0775147594480852e+00 1.5266846728066040e+01 3.1829589431966689e+00 1 1 1
2037 1 6.2376025546163252e+00 1.5652293745700309e+01 1.5412713658324650e+00 0 0 0
597 1 7.9432636904229135e+00 1.6510862912150397e+01 3.5661640170795237e+00 0 0 1
98 1 8.9509982611528756e+00 1.1689078080376035e+01 4.3638605950538372e+00 0 0 0
956 1 7.1434148405642395e-01 9.2288034703505684e+00 9.6008066905980805e+00 0 0 1
2921 1 1.3633063344676611e+01 1.4779451632136869e+01 5.0648568666601586e+00 0 0 1
386 1 1.7529948981112188e+01 3.4682196128135528e-01 8.6349368721735225e+00 0 0 0
1336 1 2.0230369748589059e+01 1.2692450126087815e+01 1.7691727728894771e+00 0 1 0
977 1 6.3343476229040019e-01 1.4213864661470897e+01 1.3559238450493586e+01 0 0 1
1665 1 2.4779784588678755e+01 1.4847585620350143e+01 1.9056706612796719e+00 0 1 1
1450 1 1.1145655993750909e+01 8.4782999293059813e+00 1.5929686333587533e+01 0 0 0
2528 1 3.7837560329887991e+00 1.7213571746728721e+01 2.1192315452909218e+00 1 0 0
1443 1 4.0139389182876322e+00 1.8893982054609278e+01 4.2584845511567302e+00 1 0 1
961 1 1.0513808275426721e+01 1.6538100583170827e+01 4.5302561624338820e+00 0 0 1
1260 1 1.3794481882117619e+01 1.7379447604302172e+01 4.2077002566599679e+00 0 0 0
342 1 1.8937002963664948e+01 1.9806110744564048e+01 1.4992122351348440e+01 0 0 0
3772 1 1.5739615048741774e+01 1.8633226392355112e+01 2.4659429802563921e+00 0 0 1
3344 1 6.8865828508791660e-01 1.4569403724640187e+01 1.0775245247973190e+01 1 1 0
1048 1 2.0112516461038101e+01 1.7183140573475914e+01 6.2189132286470183e-01 0 0 0
2383 1 1.5587734449466671e+01 3.5785762175840095e+00 4.2754850866330663e-01 0 0 0
986 1 2.4378347256812500e+01 2.4959392115973767e+01 1.9698402273670652e+00 0 0 1
347 1 5.1072234178434979e+00 2.1211741473639346e+01 3.3008925179760547e+00 0 0 0
2193 1 9.9789739373441311e-01 2.9410993132580159e+00 1.2250911648395723e+01 1 0 0
2519 1 9.2483141485120584e+00 1.8943021441366504e+01 1.8617723352124398e+00 1 0 0
2995 1 7.6528304775414417e+00 2.0751811865025132e+01 3.8166281926972760e+00 1 0 1
831 1 9.9725822936403663e+00 2.1606649655783219e+01 1.7353146761647764e+00 0 0 1
4079 1 1.3584950382784571e+01 2.0573141781247294e+01 2.2931506675207873e+00 0 0 1
168 1 1.1939956838763859e+01 1.7994738322580730e+01 2.2545834362794830e+00 0 0 0
1590 1 2.5218191754820065e+01 1.2734084876885783e+01 1.1740552869153648e+01 0 1 0
3878 1 1.9159734610373356e+01 2.2257194981854511e+01 2.2212007865135939e+00 1 1 0
469 1 2.2906856187396357e+01 2.2124677672718860e+01 3.4714870383208107e+00 0 0 1
2752 1 2.1860001223062589e+01 1.9281001869312430e+01 5.4027414147757746e-01 0 0 1
2108 1 1.6499130824252866e+01 1.9304768227604502e+01 1.6468981896304168e+01 0 0 0
884 1 8.4538029698114148e+00 2.4207053914493585e+01 2.8260401855502213e+00 0 0 1
1387 1 4.5495223068281927e+00 2.0325851208420033e+01 9.9983705229171060e-01 1 0 0
1889 1 9.2160976408840756e-01 1.3498925330297341e+01 1.3339517592838166e+00 0 1 1
309 1 1.5632551692348814e+01 2.3961194877071009e+01 2.7748719896548124e+00 0 0 0
3737 1 1.7921504189667331e+01 2.4427432075210412e+01 1.3316832181914124e+00 1 0 1
790 1 2.1549178976478571e+00 3.2011254292801681e+00 1.0492040686925361e+00 0 0 1
202 1 5.9165003796153426e-01 2.2741994858833596e+01 1.9389720620592332e+00 0 0 0
1311 1 1.7259692571425337e+01 1.1651549821477078e+01 8.5980530816506906e-01 0 1 0
3343 1 7.1164369946099200e+00 2.6334809225486815e+00 7.1171981280993499e+00 1 1 0
167 1 1.2007364832569708e+01 3.4330179203279183e+00 5.3520172211547772e+00 0 0 0
1400 1 1.7497801350276561e+01 2.0240145493725866e+01 4.0362768255325748e-01 0 0 0
180 1 1.3025719978524327e+01 1.4222026685442481e+00 3.0257864988580789e+00 0 0 0
187 1 1.1259841233457179e+01 6.0644533865882906e+00 7.1812928613689939e+00 0 0 0
420 1 2.5180388866207085e+01 3.7275723389465445e+00 1.5592594544886023e+01 0 0 0
178 1 1.7412046542440191e+01 2.9600836217880868e+00 4.5960288149736099e+00 0 0 0
3466 1 2.2061437470054727e+01 9.2799310670879587e-01 6.9980296344875867e+00 0 1 1
2467 1 2.2931049878496353e+01 9.6494048304607438e-01 4.4642671031192984e+00 0 0 1
1120 1 3.8966420992658590e+00 5.5285165671927103e+00 6.3490894093848391e+00 0 1 0
107 1 9.1308256618741481e+00 4.1065701370914143e+00 5.9947334878168546e+00 0 0 0
29 1 1.1698978856599917e+01 5.2733063224046708e+00 2.8969157572892148e+00 0 0 0
2052 1 1.5017365482885850e+01 3.6057392951240965e+00 3.2852318376194027e+00 0 0 0
1499 1 1.8391802590417239e+01 5.2120758028860443e+00 6.2049149587631218e+00 0 1 0
95 1 1.7306757809901494e+01 7.5555135443642802e+00 4.9842946171687732e+00 0 0 0
1448 1 2.0884130871260322e+01 6.5944570935076863e+00 5.2478354024110612e+00 0 0 0
740 1 2.3323233083215992e+01 5.0224758548714705e+00 5.4934111031311419e+00 0 0 1
4042 1 2.5417782795413000e+01 2.4071060073182021e+01 4.1448459261726045e+00 1 0 1
1030 1 7.8806009848445440e+00 6.5434959411545046e+00 5.9675480225856861e+00 0 0 0
934 1 6.1022681190092305e+00 7.8525001137531669e+00 3.6887253458539044e+00 0 0 1
1130 1 1.1074798952849378e+01 6.4428552168972644e+00 9.8788055788135587e+00 0 1 0
2790 1 1.1932770191457326e+01 8.1623427813476717e+00 5.3222396851669300e+00 0 0 1
1310 1 1.6969399837858631e+01 9.0031405355960388e+00 2.6095625325708771e+00 0 1 0
1377 1 1.9453845163201770e+01 1.0618063057546962e+01 4.8041359522016149e+00 0 1 0
3035 1 2.4347991543642642e+01 7.1684591263957964e+00 3.9843906910617899e+00 1 0 1
3471 1 2.1728827453281422e+01 1.4588631653856160e+01 1.1966553799324748e+00 0 0 0
79 1 4.1103061434566222e+00 1.1070677968865674e+01 5.7692829600474846e+00 0 0 0
3351 1 6.9422776397206860e+00 1.0062817327618609e+01 5.3495575738663916e+00 0 0 0
1214 1 1.4623741635082835e+01 8.5569519294163232e+00 5.7256474135933608e+00 0 0 0
3702 1 1.0122183899178744e+01 1.1645641598149790e+01 6.9304564099922503e+00 1 0 0
297 1 1.4012350401427614e+01 1.0200069100523402e+01 3.1291880400074406e+00 0 0 1
417 1 1.7670495919353495e+01 1.3154766495799786e+01 3.3388023228672337e+00 0 0 0
665 1 1.6384003535665716e+01 1.1316522418726032e+01 5.5526218658917612e+00 0 0 0
2911 1 2.3035892267759980e+01 1.0647458001263642e+01 4.4986553779006933e+00 0 0 1
3799 1 3.9266421237851556e+00 1.3210274539928731e+01 6.8207028912798089e+00 1 1 0
573 1 1.8388317105491383e+00 1.4658903382410463e+01 5.9808934956289388e+00 0 0 0
3239 1 6.1792230294931798e+00 1.4591597674237391e+01 7.1872236106310812e+00 1 0 0
3241 1 6.9499160500033668e+00 1.3905039171727326e+01 4.0891045699095354e+00 0 0 0
683 1 1.0986745846194662e+01 1.3592359085576728e+01 3.7326099780562023e+00 0 0 1
1037 1 1.3041658167876856e+01 1.1642893910968446e+01 5.1176395159532282e+00 1 1 0
247 1 1.8852113553501290e+01 1.5189835520373423e+01 5.0257813384719734e+00 0 0 0
3 1 2.3450094929427078e+01 1.5169532410689165e+01 4.5584777659909426e+00 0 1 0
3522 1 2.2716080931342255e+01 1.3038200148886295e+01 5.9016099414091370e+00 0 1 0
3784 1 1.1893717684751963e+00 1.3378688986859464e+00 2.8427271942002608e+00 0 1 1
854 1 6.5397212701876750e+00 1.7295589767064644e+01 5.4637343121966824e+00 0 0 1
1359 1 8.0037526231237841e+00 1.9422411602525639e+01 6.2991528851311154e+00 0 0 0
3322 1 1.2926348498849586e+01 1.8786469917659165e+01 6.3794563206317560e+00 0 0 0
222 1 1.0378513690263230e+01 1.8073194938100183e+01 7.1213630403025947e+00 0 0 0
3865 1 2.1041772644654181e+01 1.6054399169975163e+01 3.6741501544635962e+00 0 0 1
1357 1 1.7589641222334432e+01 1.7742601858067214e+01 4.6949464574925388e+00 0 0 0
214 1 2.0801596381787039e+01 1.8342476187365396e+01 5.0531153082453972e+00 0 0 0
265 1 1.7662736947657567e+01 1.8053124573619304e+01 7.2118189650391020e+00 0 0 0
3324 1 2.5107177799686184e+01 1.6119244725387567e+01 6.8631968896515003e+00 0 0 0
1000 1 2.2667189524750118e+01 1.9378969440510264e+01 3.2071507101779759e+00 0 0 1
2905 1 1.6019121467665300e+00 1.9353575944568959e+01 5.1787340320682240e+00 1 0 1
818 1 9.8690804794272875e+00 2.2235263144711880e+01 5.4104797969717460e+00 0 0 0
791 1 1.3810536892414554e+01 2.1538628960690069e+01 6.2298983963167318e+00 0 0 0
4051 1 1.2030382384146705e+01 2.2117713914380392e+01 3.7912770649833698e+00 1 0 1
3827 1 1.5927017717584008e+01 2.1894846655126177e+01 4.0465459080978636e+00 1 0 1
363 1 1.8283186402518613e+01 2.0400329463499098e+01 4.2646714665783927e+00 0 0 0
1706 1 2.4513632206803006e+01 2.1936318981686224e+01 6.3293438360905530e+00 0 0 1
648 1 2.0788622007650410e+00 2.4345621366938055e+01 3.9082083764060562e+00 0 0 1
3599 1 4.5580689894477855e+00 2.3541895409871579e+01 3.8335807945296438e+00 1 0 1
344 1 2.5403565173256464e+01 9.7254775881189843e+00 4.7329516345270939e+00 0 0 0
3454 1 1.1679548709641859e+01 2.4545741208260022e+01 1.3950896642256950e+01 1 0 0
1851 1 2.0459096742381970e+01 2.3502948814997037e+01 4.2616716902915854e+00 0 0 1
1345 1 2.0596962719022621e+01 2.4083449643908732e+01 7.1980788013244705e+00 0 0 0
1496 1 6.5614904818984439e+00 2.9639223330134183e+00 1.0016907028242050e+01 0 1 1
2261 1 1.2436443455119703e+01 1.1207167277461965e+00 6.6236294893698506e+00 1 0 0
566 1 1.8719323614152906e+01 2.7768631923605476e+00 8.9263654038329534e+00 0 0 0
244 1 4.7566943758867763e-01 7.1128844850904080e+00 1.4249443238384817e+01 0 0 0
1318 1 2.0923465644150230e+01 3.5464208889699353e+00 7.3218583174893368e+00 0 1 0
3325 1 2.4322093698435960e+01 1.2444238610054030e+00 9.0720547792899211e+00 0 1 0
3746 1 2.7903871273291720e+00 5.0855899484780007e+00 1.0462969616840407e+01 1 1 0
3945 1 9.1899157905883744e-01 4.8339436245222398e+00 8.5303635248428780e+00 1 1 1
1074 1 1.4225401713442604e+01 5.3122147526408598e+00 5.5101704841097625e+00 0 0 1
1321 1 1.4444200976734372e+01 5.3348709731858683e+00 8.1816750256254593e+00 0 1 0
110 1 1.6998102345496427e+01 5.2222808378669638e+00 8.6107791972098529e+00 0 0 0
1385 1 2.2034558130762939e+01 5.4186230772014712e+00 9.1875407979449619e+00 0 1 0
657 1 1.9122895440182148e+01 9.8778552725259097e+00 1.6864178391705675e+01 0 0 0
3409 1 6.7986134801352076e+00 1.1088915870653928e+01 8.0278229739288809e-01 1 1 0
1013 1 2.5047219470044176e+01 1.8790998719017306e+01 1.3785122195547867e+01 0 0 0
2097 1 5.7184734288603831e+00 6.7384627369266097e+00 7.6133554658364861e+00 1 0 0
962 1 1.1382511632019819e+01 1.0883916474155232e+01 1.0358535605259002e+01 0 0 1
457 1 9.4619190141925937e+00 8.7949160153979804e+00 9.5385546963707704e+00 0 0 0
1376 1 1.4775451835867418e+01 9.0584507911283012e+00 8.2387147713939761e+00 0 1 0
1034 1 1.7915413613810422e+01 9.3349634379589226e+00 7.0475027737573797e+00 0 0 0
1445 1 2.0461760461753009e+01 1.0229663176439384e+01 8.5994437660111274e+00 0 1 0
82 1 2.1795374005361477e+01 9.1426525839465658e+00 6.3561143720585420e+00 0 0 0
1131 1 2.4055105385651245e+01 9.2690515338753467e+00 1.0260036198309360e+01 0 1 0
916 1 2.3389514948173737e+01 7.8226831882094467e+00 7.9473416317480936e+00 0 0 1
2947 1 4.4989274059389679e+00 9.3292213714041594e+00 8.3174547602814499e+00 1 0 1
4007 1 5.6502537495473950e+00 1.0323397073979447e+01 1.0781798094311021e+01 0 0 1
2797 1 9.3253094630381046e+00 8.8434091995323527e+00 6.9733927578140253e+00 1 0 1
165 1 1.3904184581806293e+01 1.0341999235457164e+01 1.1280349789360878e+01 0 0 0
1271 1 1.5978271877482943e+01 1.2919281679548842e+01 7.8075607940331082e+00 0 1 0
613 1 1.8707225891072614e+01 1.1347556980556593e+01 1.1742948118141928e+01 0 0 0
742 1 5.2506890176453185e+00 2.5410994748878664e+01 1.2599970447006619e+01 0 -1 0
2531 1 2.8838816098169744e+00 1.3576908705673622e+01 9.5440151915302938e+00 1 0 0
2057 1 5.1516257132294943e+00 1.4891835678956379e+01 1.0434558368165312e+01 1 0 0
2570 1 6.7766801165708976e+00 1.2843583397047846e+01 1.0609596834615985e+01 0 0 0
1366 1 9.9774585001709184e+00 1.5539401795236595e+01 8.5009109264971041e+00 0 0 0
3576 1 8.5013761698922963e+00 1.3297812136893846e+01 8.4707134380915274e+00 0 0 0
1139 1 1.2913625264278021e+01 1.1558632795199506e+01 7.8568961879099710e+00 0 0 0
2122 1 1.3461711615760688e+01 1.4523901165888461e+01 7.8108646702121014e+00 1 0 1
2026 1 1.6595689048579104e+01 1.0852398765676181e+01 9.8378567074655869e+00 0 0 1
66 1 1.8318670973571749e+01 1.4455806649338729e+01 7.6035614823797646e+00 0 0 0
3267 1 1.7212867457592250e+01 1.6117849774436817e+01 9.3159457997491391e+00 0 1 0
33 1 2.0876135558253520e+01 1.3248266159768368e+01 7.9448715838255675e+00 -1 0 0
234 1 2.1879525720617988e+01 1.5082806156270012e+01 9.0942842787638210e+00 0 0 0
2389 1 2.9759821675497924e+00 1.8491296151773181e+01 1.1756340228326048e+01 1 0 0
262 1 6.3708973794293904e+00 1.7324372912243540e+01 9.1906209114407567e+00 0 0 0
2388 1 5.6553543241757431e+00 1.9904829388043122e+01 9.9229254852569717e+00 1 0 1
3661 1 1.1691789887944140e+01 1.4559968306577693e+01 1.0327312944436118e+01 1 1 0
611 1 1.4502347608715420e+01 1.7089726388460878e+01 8.0663684243472318e+00 0 0 0
2447 1 2.2034086445720796e+01 1.7560906415028061e+01 7.2746878788917195e+00 0 0 0
2354 1 2.4068129870986606e+01 1.7518304448978387e+01 1.0237242470507137e+01 0 0 0
3734 1 2.5793129830626809e+00 2.1372498264894976e+01 6.8357824299765850e+00 1 0 1
605 1 2.8681865580493553e+00 2.0328309323858239e+01 9.4366993595383732e+00 0 0 0
1412 1 6.8693078834390073e+00 2.1307968443587392e+01 8.0620663785077120e+00 0 0 0
1527 1 8.7512515740207562e+00 1.7190398448935191e+01 1.0510585917965811e+01 0 0 0
993 1 1.0835332697362418e+01 1.9117084954376669e+01 9.9299118120387018e+00 0 0 1
1768 1 1.3868703047015748e+01 1.8862135499553439e+01 1.0033107877715466e+01 0 0 0
2996 1 1.8446518684767369e+01 2.2260875767967413e+01 6.7440507796737261e+00 0 0 0
2238 1 1.7590503220245921e+01 2.1086992234443422e+01 1.0694855910044353e+01 0 0 0
1913 1 2.2606510349534460e+01 2.2544982003464650e+01 8.0382556590337977e+00 0 0 1
2106 1 2.1707102102536776e+01 1.9957728289006610e+01 8.6786295418632555e+00 0 0 0
2610 1 1.8960445345863629e+01 2.0241101840898882e+01 8.4716109818899525e+00 0 0 1
2902 1 1.5338385882929234e+01 1.6513833232460730e+01 8.8705598330449098e-01 0 0 1
996 1 2.0293923544634151e+01 1.6790730941445753e+00 1.5702087437481724e+01 0 0 1
3877 1 2.1075963008313096e+01 2.1812855368808215e+01 5.2202912618020703e-01 0 0 1
2327 1 4.8666152685182835e+00 2.2313991248637155e+01 6.4731101086910590e+00 1 0 0
391 1 1.7209937030392453e+01 4.6962843100297516e+00 1.6560547207923435e+01 0 0 0
2435 1 9.8293822925567564e+00 2.1313538570836318e+01 8.8221254487615948e+00 1 0 0
1362 1 1.1708451107331577e+01 2.2685502024770795e+01 7.5762161114403987e+00 0 0 0
54 1 1.5999446757882458e+01 2.3199371690566945e+01 6.9200864576845920e+00 0 0 0
1254 1 1.8092537747837678e+01 5.1691464900443327e+00 4.3988248493628318e-01 0 1 0
607 1 1.8382160407948508e+01 2.4810577739832958e+01 1.2767822162775676e+01 0 0 1
437 1 6.0700994390259195e+00 3.4422206553219672e+00 1.7002735995915110e+01 0 0 0
197 1 5.9224097563034306e+00 2.2907898118642503e+01 1.6643641781750802e+01 0 0 0
1544 1 1.6346865568015946e+01 2.1058736068384181e+00 1.4828304121444344e+01 0 1 1
2753 1 1.4345342099891139e+01 1.2629422189049356e+01 8.6275489349857493e-01 1 0 0
1991 1 4.5435876584027302e+00 1.9430400675057851e+00 1.3923106311235298e+01 0 1 0
2031 1 3.4750986964687214e+00 2.7154757273359875e+00 1.1330312270685550e+01 0 1 1
2352 1 2.3788326945238811e+01 1.5218707842426307e+01 1.7034562885634962e+01 0 0 0
352 1 1.1825553358176792e+01 1.5476919102555933e+00 1.1636375681385081e+01 0 1 0
1471 1 1.3412737475382084e+01 2.5467727597733361e+00 9.3545154864377817e+00 0 0 1
2253 1 1.5665721737856030e+01 2.1792720928835685e+00 1.1105487478468918e+01 0 0 0
3427 1 2.0495997476485947e+01 2.8046923093271428e+00 1.1045308850466867e+01 0 1 0
3270 1 2.3212352290052749e+01 2.5909996629832373e+00 1.1303876960910779e+01 0 1 0
317 1 2.3340880627689174e+01 2.2875217213394108e+00 1.4275052072521136e+01 0 0 0
1751 1 7.0274469329224543e+00 4.0283800872333639e+00 1.3014118578596999e+01 0 1 0
1458 1 9.7379275873899207e+00 4.2471473793161092e+00 1.1533736620099173e+01 0 1 0
1941 1 1.2260951645934339e+01 5.7573333207702584e+00 1.3091799452818156e+01 0 1 1
1641 1 1.9146455191190988e+01 5.2101532836034705e+00 1.2509930978362798e+01 0 1 0
3129 1 2.4177432631901617e+01 5.0767648278480388e+00 1.0690418421748063e+01 0 1 0
2295 1 2.3642226459676206e+01 6.9149346746489453e+00 1.2629374492911561e+01 0 0 0
355 1 1.5198039557314984e+00 7.3610331596516474e+00 1.1393638130003847e+01 1 0 0
200 1 5.3746613986852818e+00 5.6540236789251104e+00 1.0085149357501361e+01 0 0 0
1227 1 6.2024125530313894e+00 6.5465405788915163e+00 1.2747628864221916e+01 0 1 0
1011 1 7.6431452390533670e+00 8.8723290834184620e+00 1.1761759663903339e+01 0 0 1
2598 1 9.7002281939057742e+00 7.5252709770094555e+00 1.3756941395694174e+01 1 0 0
503 1 1.3811076341485995e+01 7.0170944751285695e+00 9.9026269180075523e+00 0 0 0
2235 1 1.6030292770238525e+01 7.2799132592117450e+00 1.1779709482108014e+01 0 0 0
622 1 1.6999259243300521e+01 4.4981420576358593e+00 1.1596160472186121e+01 0 0 0
2495 1 1.7761405429025302e+01 9.3018642487110430e+00 1.3467674149839437e+01 0 0 0
588 1 2.0222672989903455e+01 7.0766380325808029e+00 1.0873794949046339e+01 0 0 0
2674 1 2.0902382129294473e+01 8.8175515726195428e+00 1.2725012058869765e+01 0 0 0
1255 1 4.8534557717066740e-01 1.1245220723278750e+01 1.3753469060733563e+01 0 1 0
2174 1 2.5264800334736979e+00 1.1158207867956696e+01 1.0677199266355592e+01 1 0 0
2487 1 8.4698583453948615e+00 1.3036949667950115e+01 1.2685491318964322e+01 1 0 0
2608 1 5.1919499780075045e+00 1.0691160382487769e+01 1.3613134388507977e+01 1 0 1
2322 1 8.2123286024774718e+00 1.0563186106407557e+01 1.4332389076251832e+01 1 0 0
3160 1 1.3200205045969186e+01 2.3174744337877620e+01 1.7220752325979312e+01 0 0 0
1771 1 1.3935114125401897e+01 1.0364003919782864e+01 1.3921556588421343e+01 0 0 1
2135 1 1.7777481863962027e+01 7.6593347437254957e+00 9.4517498748977680e+00 1 0 0
1880 1 1.8202152128022767e+01 1.3710795124944518e+01 1.2647576395931893e+01 0 1 1
500 1 2.1565565473622893e+01 1.0697365413405331e+01 1.1028337681577083e+01 0 0 0
1319 1 1.4270851088362189e+01 4.4413114613381461e+00 1.7105590995749626e+01 0 1 0
502 1 4.7413424806925359e+00 1.6334675903724904e+01 1.2802784590182934e+01 0 0 1
3131 1 1.1098950357837374e+01 1.2792550743492217e+01 1.2354720592867979e+01 1 1 0
1453 1 1.2296719300724776e+01 1.6996412117245086e+01 1.1716407427043485e+01 0 0 0
338 1 1.6148704947750751e+01 1.4814892937189436e+01 1.1505144074695973e+01 0 0 0
1257 1 1.4582565963630328e+01 1.3101526597944440e+01 1.0594201691385910e+01 0 1 0
255 1 2.0719132324346525e+01 1.4514609487082643e+01 1.1506983771883736e+01 0 0 0
3907 1 2.2389903587904548e+01 1.2605510742599561e+01 1.2979634873582302e+01 0 0 0
762 1 1.2147425825842795e+01 1.4332843855988552e+01 1.1572109352598487e+00 0 0 1
10 1 5.9261734908699601e+00 2.0670291350245869e+01 1.2414967519390999e+01 0 0 0
4038 1 9.6047056849600523e+00 1.9821683141049284e+01 1.4136883130243811e+01 1 1 1
2764 1 1.1619281441330182e+01 2.0117177438312833e+01 1.2703839806760195e+01 1 0 0
2004 1 1.4323617429873392e+01 1.6013414927445055e+01 1.3444085732701380e+01 0 0 1
3096 1 1.7912029789777460e+01 1.8056811548618068e+01 1.0980856824407986e+01 0 0 0
307 1 1.9846021425664478e+01 1.6835537059756255e+01 1.2698020374470683e+01 0 0 0
186 1 1.0204674619991568e+01 2.3843576026508959e+01 1.6179522373656894e+01 0 -1 0
1425 1 2.0649175063849543e+00 2.2512205573916020e+01 1.1154055550513707e+01 0 0 0
3242 1 8.1319010220709700e+00 2.1918240265552910e+01 1.3474860530485467e+01 1 0 0
1379 1 4.4406705141831875e+00 2.2840871022131491e+01 1.2973462207683747e+01 0 1 0
2150 1 8.8661950877125282e+00 2.2949247165106840e+01 1.1048658370092530e+01 1 0 0
3183 1 1.1188422388504069e+01 2.2677109677736340e+01 1.1993921710086866e+01 1 0 0
2197 1 1.4668661089637544e+01 1.9936265891128386e+01 1.4768345618186801e+01 1 0 0
389 1 1.5229010134892173e+01 1.8722575909766086e+01 1.2399785196621062e+01 0 0 0
2321 1 2.2392667744284502e+01 1.8724777991179796e+01 1.2293371063620176e+01 0 0 0
3358 1 2.1962218712971744e+01 2.1393770179117165e+01 1.1870236526047037e+01 0 0 0
2129 1 2.3508799382507974e+01 5.6592377529130147e+00 1.6546563045977322e+01 1 0 0
284 1 2.6431784736459116e+00 8.7803325915358521e-01 7.5764118647326750e+00 0 1 0
669 1 1.1323317513579505e+00 2.4892788083987309e+01 1.0557786948512897e+01 0 0 0
2159 1 2.7484991288474045e+00 1.8745837633085532e+01 1.6287705943760436e+01 0 0 0
1500 1 1.6538755521935467e+01 2.5176809902104008e+01 1.4721317718434674e+01 0 0 0
3075 1 1.3121963653200572e+01 2.3072788966310171e+01 1.0029653677771444e+01 1 0 0
2033 1 2.5104974241631915e+01 1.2787724130009478e+01 7.2257231425801782e+00 0 1 1
2307 1 1.5161758366962907e+01 2.1593178333614496e+01 9.3838839308843127e+00 1 0 0
3365 1 1.9429798213561710e+01 2.1863237196811674e+01 1.2782270887131130e+01 0 0 0
3172 1 2.3699485838210428e+01 2.3332089960080552e+01 1.0625082742536655e+01 0 0 0
2024 1 7.1326195143413971e+00 6.6787835717251232e-01 1.4022146995647594e+01 0 1 1
269 1 8.6817366391719855e+00 2.1004687243186209e+00 1.5422914590187325e+01 0 1 0
529 1 1.1635889824033796e+01 2.1969996740116171e+00 1.4692630632571770e+01 0 0 1
2055 1 1.4346508406141902e+01 3.3084112303804671e+00 1.3502378602620984e+01 0 0 0
254 1 1.4358230013082936e+01 2.5270538535037296e+01 1.0782543008043236e+01 0 0 0
2418 1 1.3576182925717672e+01 2.5624053826906721e+01 1.7579887123856890e+00 1 0 0
3283 1 3.3702191983977365e+00 1.6066408916897906e+01 1.6516047765400028e+01 1 1 0
212 1 3.2118674099649086e-01 5.4674765581897127e+00 9.4023126577574845e-01 1 0 0
682 1 3.3696131104455360e+00 3.2534074949455380e+00 1.6102496695577823e+01 0 0 1
1365 1 2.7329379557300775e+00 6.0229080188376587e+00 1.5706619687642315e+01 0 1 0
2807 1 8.9224285924017952e+00 5.1833277899427213e+00 1.5520875194039935e+01 1 0 1
1683 1 1.2131681684311564e+01 4.8944255453930889e+00 1.5895679754163874e+01 0 1 0
371 1 1.5628055276982176e+01 5.7735063157259425e+00 1.4026540341223662e+01 0 0 0
1788 1 8.0775018039371815e+00 2.4223581416484514e+01 1.4893619130185936e+01 0 0 1
2496 1 2.1146920223175112e+01 3.9410291904770500e+00 1.4315435327661872e+01 0 0 0
1854 1 2.1878621851313973e+01 7.1700512084964672e+00 1.5009520547544653e+01 0 1 1
1163 1 2.0259534197413437e+01 3.4223906379090668e-01 1.2378611428508622e+01 0 1 0
3662 1 2.6102024108360737e+00 9.4133880111362860e+00 1.3122959390466120e+01 1 1 0
73 1 4.7508399025071206e+00 7.8028937888140089e+00 1.4601445414830774e+01 0 0 0
3006 1 2.5318772619436238e+01 1.9474736963588786e+01 9.1183624105000671e+00 0 0 1
2163 1 2.4348524959754606e+01 1.8884904782439826e+01 6.1536442638870632e+00 0 0 0
659 1 1.1191825833643584e+01 1.1266654273930410e+01 1.5221366730533619e+01 0 0 0
443 1 1.3751873398506557e+01 7.8114827544636229e+00 1.5261571097753349e+01 0 0 0
1356 1 1.4639158079319424e+01 2.2866458391204066e+01 1.4953198514113081e+01 0 0 0
2101 1 1.8774405377292737e+01 7.0544307482446449e+00 1.5113701423687424e+01 1 0 0
2928 1 6.7600237307731459e-01 1.8818672540305492e+01 1.3312369492556924e+01 1 0 1
2316 1 2.1766333346017575e+01 9.0802093015525500e+00 1.6715556491747126e+01 0 0 0
2360 1 4.2817971254567446e+00 1.2358648722174072e+01 1.5943597871997513e+01 1 0 0
3026 1 3.7195579000012642e+00 3.2937132375748723e-01 9.9061667325436069e+00 1 0 0
1244 1 1.6880223211767255e+01 2.4271533160755162e+01 1.0794072387798117e+01 0 0 0
801 1 1.2752112567078566e+01 1.3970423136207840e+01 1.4400811979513064e+01 0 0 1
1128 1 1.4689297493402233e+01 1.2411120371053320e+01 1.5870645687979023e+01 0 0 0
1928 1 1.6903526346269651e+01 1.1188603818224060e+01 1.5448243961254191e+01 0 0 1
1504 1 1.8469088981629348e+01 1.3431130702255789e+01 1.5288839608699799e+01 0 0 0
365 1 7.4032620193103560e-01 1.7138740255301322e+01 6.5018537606690128e+00 0 0 1
439 1 2.2694432469148570e+01 1.1629528490894089e+01 1.5581367356110150e+01 0 0 0
933 1 2.3080690392982486e+01 2.5497405457829014e+01 5.8010702933204525e+00 0 0 1
1421 1 3.1313235530154762e+00 1.4467025154645800e+01 1.4432668789246797e+01 0 1 0
2275 1 9.6070683971929660e-01 1.1111012810338178e+01 4.8467109158972423e+00 1 0 0
185 1 8.0217209544725225e+00 1.5589037670325153e+01 1.3277510537981396e+01 0 0 0
2215 1 1.0196298237104354e+01 1.6870207552516803e+01 1.3805304317722891e+01 1 0 0
3426 1 1.1494879103696578e+01 1.5545066686106313e+01 1.5724712430346637e+01 1 1 0
2254 1 9.7254124237044728e+00 2.1293142721847477e+01 1.6651152098063385e+01 0 0 0
337 1 2.0842313716280454e+01 1.3521753063265916e+01 1.6628494153092785e+01 0 0 0
89 1 1.1813297280323024e+01 2.5082084028353002e+01 6.6555095887796218e+00 1 0 0
1557 1 1.2316577260001823e+01 2.4730173672616694e+01 3.9236314641117360e+00 0 0 0
1570 1 1.7384672904867990e+01 1.5085480492235503e+01 1.6787050238408614e+01 0 0 0
246 1 4.7693439780322171e+00 1.9142111818978581e+01 1.4311325922132784e+01 0 0 0
1462 1 4.4917945263105636e+00 3.9386479278112003e+00 2.2107351321319326e+00 0 1 0
2214 1 6.3042796601907884e+00 1.5941442333311349e+01 1.5299334624037066e+01 1 0 0
1399 1 1.2327738556923462e+01 1.9041436855824497e+01 1.6000288588873442e+01 0 0 0
3615 1 1.5411008143095545e+01 1.6753567921029116e+01 1.5792175941181302e+01 1 0 0
3291 1 6.8793126683492902e+00 2.0302232412859677e+01 1.6277452799005157e+01 0 0 0
3227 1 1.9077159130105905e+01 1.6944322591196322e+01 1.5642136623565257e+01 1 0 0
3362 1 4.3630016911905818e+00 2.4837170211866908e+01 7.8603507547331724e+00 1 0 0
150 1 1.2908643474881256e+00 2.1213632356353347e+01 1.6068541620005441e+01 0 0 0
490 1 3.5587681422341668e+00 2.3333648519079240e+01 1.5625605282191231e+01 0 0 0
3585 1 1.8678516511875112e+00 6.3554147943029982e-01 1.3754042955272439e+01 1 1 0
280 1 7.6377348375884626e+00 2.4324640039095470e+01 5.7563070909272591e+00 0 0 0
1522 1 2.4592551730635588e+01 1.4379990835190460e+01 9.8324080844220951e+00 0 1 0
3044 1 8.5775254604466351e+00 1.7719440542115798e+01 1.6508415558079889e+01 1 0 0
2794 1 2.7469216849196554e-01 2.1456732296730657e+01 1.3286503925077565e+01 1 0 1
3103 1 8.6113006117930215e+00 2.5660209584152824e+01 1.0114847790351662e+01 1 0 0
853 1 2.5644444367988800e+01 9.0084012537421820e+00 1.2777583525053894e+01 0 0 0
93 1 1.3657351369125896e+01 9.8857670074260859e+00 2.7258964673232733e-01 1 0 1
1216 1 2.4854427301056614e+01 3.1650053971421186e+00 7.0412798537535979e+00 0 1 0
1976 1 5.8003473755313459e+00 2.5354265947276915e+01 1.8228535859658750e+00 0 0 1
3117 1 2.3337822990295130e+01 2.3294949832939228e+01 2.8633756478154737e-01 0 0 0
1101 1 2.6712967429974626e+00 2.2325454891975689e+01 3.0116107162493222e-01 0 0 0
2492 1 2.9308357605679558e+00 1.6267620027752070e+00 2.0751593381481733e+01 1 0 0
2568 1 2.0380984253106158e+00 1.8417614129314808e+00 1.8493254713058533e+01 1 0 0
282 1 8.3684435315446422e+00 1.6307455389210848e+01 2.0802298567854763e+01 0 0 0
2283 1 5.4805876134360103e+00 8.3267770566136825e+00 1.7275987235459819e+01 1 0 0
164 1 1.4970866003930640e+01 1.9035961799378281e+01 1.8923835392489085e+01 0 0 0
1605 1 9.2476586601198836e+00 1.5089613277743235e+01 1.8458810317643437e+01 0 0 0
1897 1 1.3033638179321008e+01 1.5467487072943333e+00 1.7914955293909760e+01 0 1 0