
# Create simulation box and atoms
lattice		    sc 1
Lattice spacing in x,y,z = 1 1 1
region 		    all block 0 51.42 0 51.42 0 51.42 units box
create_box 	    1 all
Created orthogonal box = (0 0 0) to (51.42 51.42 51.42)
  2 by 2 by 3 MPI processor grid

create_atoms	1 random 4457 ${SEED} all
create_atoms	1 random 4457 5824 all
Created 4457 atoms
  create_atoms CPU = 0.000448704 secs

mass		    1 18.15

# Define potential

pair_style 	    sw
pair_coeff	    * * mW_real.sw mW
Reading potential file mW_real.sw with DATE: 2019-02-27

# Run minimization

minimize 	    1.0e-8 1.0e-8 10000 1000
WARNING: Using 'neigh_modify every 1 delay 0 check yes' setting during minimization (../min.cpp:168)
Neighbor list info ...
  update every 1 steps, delay 0 steps, check yes
  max neighbors/atom: 2000, page size: 100000
  master list distance cutoff = 6.3065
  ghost atom cutoff = 6.3065
  binsize = 3.15325, bins = 17 17 17
  1 neighbor lists, perpetual/occasional/extra = 1 0 0
  (1) pair sw, perpetual
      attributes: full, newton on
      pair build: full/bin/atomonly
      stencil: full/bin/3d
      bin: standard
Per MPI rank memory allocation (min/avg/max) = 4.226 | 4.228 | 4.229 Mbytes
Step Temp E_pair E_mol TotEng Press 
       0            0     60812104            0     60812104     41104401 
     720            0   -50278.045            0   -50278.045   -1197.3035 
Loop time of 1.91199 on 12 procs for 720 steps with 4457 atoms

99.6% CPU use with 12 MPI tasks x no OpenMP threads

Minimization stats:
  Stopping criterion = max force evaluations
  Energy initial, next-to-last, final = 
         60812103.5883     -50277.7549543     -50278.0452311
  Force two-norm initial, final = 4.45318e+09 3.68461
  Force max component initial, final = 3.00282e+09 0.834746
  Final line search alpha, max atom move = 0.0627993 0.0524215
  Iterations, force evaluations = 720 1000

MPI task timing breakdown:
Section |  min time  |  avg time  |  max time  |%varavg| %total
---------------------------------------------------------------
Pair    | 1.4597     | 1.6352     | 1.8216     |   7.6 | 85.52
Neigh   | 0.026148   | 0.027182   | 0.029156   |   0.5 |  1.42
Comm    | 0.036775   | 0.22496    | 0.40137    |  20.6 | 11.77
Output  | 0          | 0          | 0          |   0.0 |  0.00
Modify  | 0          | 0          | 0          |   0.0 |  0.00
Other   |            | 0.02467    |            |       |  1.29

Nlocal:    371.417 ave 383 max 360 min
Histogram: 1 2 0 3 1 0 2 0 0 3
Nghost:    1062.75 ave 1075 max 1051 min
Histogram: 3 0 1 1 0 2 1 2 1 1
Neighs:    0 ave 0 max 0 min
Histogram: 12 0 0 0 0 0 0 0 0 0
FullNghs:  12038.8 ave 12578 max 11526 min
Histogram: 2 1 1 1 1 2 1 0 0 3

Total # of neighbors = 144466
Ave neighs/atom = 32.4133
Neighbor list builds = 41
Dangerous builds = 0

# Create Cavity with Hard sphere "indent" potential

region		    cavity sphere 25.71 25.71 25.71 13.8 side in
delete_atoms	    region cavity
Deleted 366 atoms, new total = 4091
fix 		    5 all indent 10.0 sphere 25.71 25.71 25.71 13.8

# Equilibration of molecular water

# Add velocity/set timestep

velocity	    all create ${TEMP} ${SEED} rot yes dist gaussian
velocity	    all create 215 ${SEED} rot yes dist gaussian
velocity	    all create 215 5824 rot yes dist gaussian
timestep	    5.0

# Define output

compute			1 all msd
thermo	    	50
thermo_style	custom step temp press vol etotal ke pe c_1[4]

# Neighbor lists

neigh_modify    delay 0 every 1 check yes

# Set fixes

fix             1 all momentum 10 linear 1 1 1 rescale
fix             2 all nve
fix             3 all temp/csvr ${TEMP} ${TEMP} 500.0 ${SEED}
fix             3 all temp/csvr 215 ${TEMP} 500.0 ${SEED}
fix             3 all temp/csvr 215 215 500.0 ${SEED}
fix             3 all temp/csvr 215 215 500.0 5824
fix             4 all press/berendsen iso ${PRES} ${PRES} 1000.0 modulus 20000
fix             4 all press/berendsen iso 1.0 ${PRES} 1000.0 modulus 20000
fix             4 all press/berendsen iso 1.0 1.0 1000.0 modulus 20000

# Run 1 ns equilibration

dump		    1 all atom 2000 ${DIR}/eq.${NAME}-${TEMP}.dump
dump		    1 all atom 2000 run_7/eq.${NAME}-${TEMP}.dump
dump		    1 all atom 2000 run_7/eq.hardcavity_freeze_7-${TEMP}.dump
dump		    1 all atom 2000 run_7/eq.hardcavity_freeze_7-215.dump

reset_timestep  0

run	            200000
Per MPI rank memory allocation (min/avg/max) = 4.491 | 4.492 | 4.494 Mbytes
Step Temp Press Volume TotEng KinEng PotEng c_1[4] 
       0          215   -387.40619    135955.32   -42949.272    2621.1753   -45570.447 1.7129319e-33 
      50      136.672   -146.47602    135862.01   -42359.097    1666.2384   -44025.336    0.2220003 
     100    151.88517   -183.28409    135615.97    -41948.95      1851.71    -43800.66   0.40663473 
     150    167.15243   -153.24364    135435.46   -41582.314    2037.8411   -43620.155   0.58544151 
     200     179.5708   -252.23063    135214.08   -41313.059    2189.2398   -43502.299    0.7584268 
     250    187.71793   -119.04912    135072.02   -41152.456    2288.5656   -43441.021   0.91901367 
     300    188.69734   -174.25462     134701.8   -41007.733    2300.5061   -43308.239    1.1099464 
     350    198.17254    28.755245     134456.3   -40900.213    2416.0232   -43316.236    1.2828915 
     400     204.3542    -176.3035    134368.14   -40779.572    2491.3869   -43270.958    1.4334334 
     450    200.67435   -266.67161    134137.06   -40769.204     2446.524   -43215.728    1.5722697 
     500     206.6254   -36.182511     134059.7    -40691.89    2519.0763   -43210.966    1.7462706 
     550     208.4591   -25.106137     133890.8   -40669.353    2541.4319   -43210.785    1.9125051 
     600    206.71176   -150.64919       133716   -40611.166    2520.1292   -43131.295    2.1070177 
     650     210.5312    95.144765    133516.94   -40530.952    2566.6939   -43097.646    2.2283274 
     700    208.78538    10.224747    133514.18   -40540.843    2545.4097   -43086.253    2.3812117 
     750    211.48774   -48.148955    133500.35   -40536.392    2578.3556   -43114.748    2.6091587 
     800    210.69289   -62.637315    133490.03    -40495.02    2568.6651   -43063.685    2.7977352 
     850    210.56479   -33.432765    133398.72   -40540.851    2567.1033   -43107.954    2.9727004 
     900     211.2366   -167.35241    133270.81   -40510.955    2575.2937   -43086.249    3.0948211 
     950    212.99763    128.67172    133232.68   -40528.274    2596.7634   -43125.038    3.3218981 
    1000    212.58074    50.223574    133441.16   -40501.997    2591.6808   -43093.678    3.4767273 
    1050     212.8241   -291.81746    133062.35   -40521.151    2594.6478   -43115.799    3.7115284 
    1100    213.12826   -173.37177    132739.06   -40499.744     2598.356     -43098.1    3.9385359 
    1150    215.36326    30.287082    132707.51   -40498.963     2625.604   -43124.567    4.1271571 
    1200    214.34331    108.92785    132786.83   -40483.297    2613.1692   -43096.466    4.3615171 
    1250    214.50449    6.3110682    132870.53   -40476.349    2615.1343   -43091.483    4.5643787 
    1300    217.05095   -24.043713    132872.93   -40414.469    2646.1795   -43060.649    4.7704193 
    1350    217.15333   -235.25281    132674.97   -40397.474    2647.4276   -43044.902    5.0074728 
    1400    219.45871    5.9543727    132493.72   -40369.874    2675.5337   -43045.407     5.216178 
    1450    220.09715    41.051655    132545.58   -40372.725    2683.3173   -43056.042    5.3403404 
    1500    219.72855   -275.04554    132325.63   -40418.871    2678.8234   -43097.694    5.5115271 
    1550    216.28008   -71.449445    132292.13   -40445.345    2636.7815   -43082.126    5.7332437 
    1600    219.75536   -112.29075    132295.55   -40442.507    2679.1504   -43121.658    5.9330187 
    1650    218.88082    99.404615     132416.1   -40459.805    2668.4884   -43128.294    6.0775725 
    1700    219.21414   -61.046616    132422.35   -40461.356    2672.5521   -43133.908    6.2947832 
    1750    216.65775   -65.978868    132185.92   -40447.582    2641.3858   -43088.968    6.4596501 
    1800    218.23838    -32.95115    132089.17   -40466.184    2660.6561    -43126.84    6.7279692 
    1850    218.95377    278.88646    132176.61   -40440.432    2669.3777    -43109.81    6.9625847 
    1900      213.907    33.127757    132297.64   -40478.593      2607.85   -43086.443    7.1970776 
    1950    218.64211    60.792637    132190.68   -40440.911    2665.5781   -43106.489    7.3402376 
    2000    216.10529    102.49627    132359.41   -40448.196    2634.6505   -43082.846    7.4758759 
    2050    213.97265    -192.7239    132190.19   -40449.834    2608.6503   -43058.484    7.6562594 
    2100    219.08848   -103.47481    132123.26   -40451.011      2671.02   -43122.031    7.8770036 
    2150    214.69159     32.00572    132183.34   -40502.503    2617.4154   -43119.918    8.1256953 
    2200    217.73707    65.490968    132267.75    -40463.15    2654.5444   -43117.695    8.2408301 
    2250    217.78725     18.50075    132317.72   -40479.777    2655.1561   -43134.933    8.3200484 
    2300    217.11158   -113.45043    132253.43   -40507.315    2646.9187   -43154.233    8.5607853 
    2350    215.82916    82.017251    132286.55   -40537.697     2631.284   -43168.981    8.8366071 
    2400    217.42166   -73.263381    132210.57   -40561.944     2650.699   -43212.643    9.0318018 
    2450    217.92477   -5.0054708    132109.27   -40587.081    2656.8327   -43243.914    9.2373387 
    2500    219.06481    132.81461    132146.48   -40576.263    2670.7315   -43246.995    9.3727759 
    2550    215.44028    22.533861    132249.33   -40582.696     2626.543   -43209.239    9.5713973 
    2600    217.02294   -62.498599    132108.63   -40581.552     2645.838    -43227.39    9.6926897 
    2650    218.24008   -41.035961     132089.1   -40585.047    2660.6767   -43245.724    9.8155182 
    2700    211.82223    32.769508    132117.95   -40617.656    2582.4335   -43200.089    10.003069 
    2750    217.22899   -1.3413832    132099.49    -40646.01    2648.3501    -43294.36    10.146411 
    2800    213.12832     78.78492    132121.02   -40647.672    2598.3567   -43246.029    10.280591 
    2850     213.7029   -63.535531    132022.65   -40678.887    2605.3617   -43284.249     10.47054 
    2900    213.83569     -186.546    131791.87   -40657.589    2606.9806    -43264.57    10.605959 
    2950    211.79256    55.486298    131868.51   -40671.782    2582.0718   -43253.853    10.862248 
    3000    209.50281  -0.70645121     131889.9   -40737.465    2554.1563   -43291.621    11.014374 
    3050    210.08253   -32.884663     131795.8   -40716.552    2561.2239   -43277.776    11.161264 
    3100    208.04978    124.24049    131907.13    -40709.73    2536.4417   -43246.172    11.267862 
    3150    213.03637    183.48775    132007.05   -40651.775    2597.2357   -43249.011    11.532792 
    3200     215.2037    80.330891    132153.46   -40608.101    2623.6587    -43231.76    11.747997 
    3250    214.74858     21.89194    132212.12   -40590.225    2618.1102   -43208.335    11.875427 
    3300    212.73292    224.30366    132256.97   -40567.839    2593.5361   -43161.375    12.000821 
    3350    213.44615   -58.736081    132220.09   -40598.329    2602.2315   -43200.561    12.180922 
    3400    213.97916   0.81276931    132224.85   -40590.836    2608.7297   -43199.566    12.324317 
    3450    214.27594   -119.32647    132222.28   -40598.034     2612.348   -43210.382    12.479186 
    3500    216.39151   -14.285953    132116.67   -40591.582    2638.1399   -43229.722    12.679536 
    3550    217.97385   -118.70447       132025   -40574.926    2657.4311   -43232.357    12.870467 
    3600    211.31566    -29.00306    131836.54   -40634.078    2576.2577   -43210.336    13.060581 
    3650    214.74257    184.93243    131903.56   -40617.801    2618.0368   -43235.838    13.208489 
    3700    215.99709   -19.724997    131891.31   -40660.058    2633.3313    -43293.39    13.407015 
    3750    214.87178     108.8569    132053.97   -40654.256    2619.6122   -43273.868    13.489247 
    3800    215.00635    157.43759    132206.82   -40622.627    2621.2527    -43243.88    13.678019 
    3850    210.25507   -32.968228    132202.86   -40630.279    2563.3274   -43193.606    13.895213 
    3900    215.72253   -133.66852    132157.14   -40605.396     2629.984    -43235.38    13.977337 
    3950    217.72384    2.4122118    132084.49   -40603.767     2654.383    -43258.15    14.202861 
    4000     214.4566    16.036723    132152.23   -40626.951    2614.5505   -43241.502    14.434867 
    4050    215.75799    5.9618367    132136.92   -40608.771    2630.4164   -43239.188     14.55317 
    4100    218.16486   -25.095927    132186.52   -40567.252    2659.7597   -43227.012    14.643097 
    4150    217.43679     -1.37485    132182.26   -40569.421    2650.8835   -43220.304    14.805265 
    4200    218.86729    10.815876    132166.51   -40575.419    2668.3235   -43243.742    14.944615 
    4250    217.59013   -136.94359    132124.87   -40552.541    2652.7529   -43205.294    15.072947 
    4300    218.19569   -74.210428    131973.84   -40612.316    2660.1356   -43272.452    15.153927 
    4350    218.28251    86.821732    132017.45   -40637.714     2661.194   -43298.908    15.230499 
    4400    218.85712   -13.084567    132081.75   -40659.845    2668.1994   -43328.045    15.430027 
    4450    216.33217    154.28241    132126.59   -40616.082    2637.4165   -43253.498    15.690354 
    4500    216.30889   -47.653847     132042.9   -40654.261    2637.1327   -43291.394    15.884674 
    4550    208.84709   -133.84735    131946.08   -40704.025    2546.1621   -43250.188    16.019697 
    4600    213.71347   -187.53633    131833.84     -40723.4    2605.4906   -43328.891    16.154075 
    4650    215.19204   -46.008876     131796.5   -40702.095    2623.5166   -43325.612    16.403056 
    4700    213.71699    25.061336    131812.74   -40704.083    2605.5335   -43309.617    16.698835 
    4750    215.78918   -33.697709    131838.82   -40677.213    2630.7967   -43308.009    16.789842 
    4800    212.06137   -92.455468    131802.54   -40686.785     2585.349   -43272.134    17.059368 
    4850    216.74835   -1.8580014    131691.09   -40700.415    2642.4903   -43342.905    17.170068 
    4900    214.08655   -93.261905    131734.79   -40748.323     2610.039   -43358.362    17.280288 
    4950    214.44161   -31.268503    131851.79     -40670.7    2614.3677   -43285.068    17.486013 
    5000     211.0066   -69.855728    131858.98   -40659.995    2572.4897   -43232.485    17.790611 
    5050    214.47755   -50.055612    131778.74   -40655.589    2614.8059   -43270.395    17.909068 
    5100    214.24167   -10.621086    131570.18   -40659.485    2611.9301   -43271.415    18.058627 
    5150    213.04971    15.099576    131547.73   -40660.781    2597.3983   -43258.179    18.074617 
    5200    221.11639   -82.675116    131506.08   -40603.934    2695.7433   -43299.677    18.180398 
    5250    218.27236    120.83504    131483.27   -40619.563    2661.0704   -43280.634    18.274673 
    5300    218.90466    20.148281    131727.52   -40620.918     2668.779   -43289.697     18.35814 
    5350    218.36459    108.90452    131946.89   -40606.641    2662.1948   -43268.835    18.507993 
    5400    217.17888    41.376161    132057.94   -40611.092    2647.7391   -43258.831    18.765975 
    5450    215.52682   -27.541972    132095.43   -40653.747     2627.598   -43281.345    19.094501 
    5500    217.28686   -129.14629    131969.08   -40651.908    2649.0556   -43300.964    19.262248 
    5550    213.75693    67.111738     131891.9   -40641.622    2606.0204   -43247.643    19.454857 
    5600    218.80505    2.8224435    131850.67   -40622.606    2667.5646   -43290.171    19.606833 
    5650    216.70615   -63.004042    131852.38   -40674.711    2641.9759   -43316.687     19.55102 
    5700    212.72478   -99.030349    131716.57   -40659.783     2593.437    -43253.22    19.461294 
    5750    213.43123    104.38248    131775.83   -40687.442    2602.0496   -43289.491    19.593612 
    5800    213.61893    106.41665    131872.25    -40697.93    2604.3379   -43302.268     19.77747 
    5850    216.97055   -44.968863    131857.14   -40643.833    2645.1993   -43289.032    19.916661 
    5900    212.27231   -65.161778       131927   -40688.367    2587.9207   -43276.288    20.047748 
    5950    215.30105   -9.5977215    131907.21   -40674.569    2624.8456   -43299.414    20.202073 
    6000    211.54585   -118.29211    131780.22   -40686.582     2579.064   -43265.646    20.388212 
    6050    212.45103    213.69456    131718.92   -40691.649    2590.0995   -43281.749    20.509904 
    6100    209.67653   -10.940705    131842.61   -40702.774    2556.2742   -43259.048    20.729499 
    6150    211.49618   -73.552719    131617.89   -40716.769    2578.4584   -43295.227    20.733742 
    6200    212.76151    -3.907307    131665.41   -40719.987    2593.8847   -43313.872    20.892446 
    6250    213.89241   -29.459914    131636.07   -40743.566    2607.6721   -43351.238    21.111913 
    6300    212.77386    59.308831    131794.02     -40714.1    2594.0353   -43308.135    21.298159 
    6350    214.27922    23.775906    131883.86   -40731.256     2612.388   -43343.644    21.413465 
    6400    212.65954    -168.0831    131844.42   -40735.548    2592.6415   -43328.189    21.663524 
    6450    211.34656   -20.558045     131826.4   -40729.998    2576.6344   -43306.632    21.752154 
    6500    212.14741    118.21312    131944.42   -40761.807     2586.398   -43348.205    21.801949 
    6550    209.87197   -163.61959    131901.32   -40745.822    2558.6569   -43304.479    21.986162 
    6600    211.21606   -3.6026659    131756.62   -40696.297    2575.0434   -43271.341    22.188667 
    6650    220.01781    285.14416    131939.76   -40620.432      2682.35   -43302.782    22.315017 
    6700      216.888   -135.72577    132091.13   -40611.227    2644.1929    -43255.42    22.392252 
    6750    218.29503    110.04157    131952.02   -40605.888    2661.3467   -43267.235    22.703473 
    6800    218.60201   -56.747525       131955   -40621.592    2665.0893   -43286.682    22.883141 
    6850    215.55851    -102.4602    131947.75   -40643.939    2627.9845   -43271.924    23.005503 
    6900    210.95019    -72.28095    131881.56   -40623.567     2571.802   -43195.369    23.128951 
    6950    214.20498   -21.602726    131791.81   -40644.694    2611.4828   -43256.177    23.308266 
    7000    213.08545   -69.823723    131779.15   -40685.039     2597.834   -43282.873    23.302889 
    7050    214.93023    -67.68118    131911.74   -40674.066    2620.3248   -43294.391    23.276088 
    7100    212.85424   -60.963993    131882.56   -40686.714    2595.0152   -43281.729    23.415848 
    7150     214.3486     28.77789    131833.63   -40720.706    2613.2338    -43333.94    23.552026 
    7200    211.68946    63.199662    131783.49   -40737.352    2580.8148   -43318.167    23.573753 
    7250    212.04027    11.140632    131852.47   -40706.958    2585.0918   -43292.049    23.698514 
    7300    210.81943    56.944719    131832.51   -40727.114    2570.2078   -43297.322    23.856106 
    7350     212.3174    192.24407     131923.5   -40705.981    2588.4704   -43294.451     23.94064 
    7400    212.42233    25.848687    132077.56   -40709.557    2589.7496   -43299.307    24.087359 
    7450    213.70795   -138.61805    131863.11   -40693.431    2605.4232   -43298.854    24.183426 
    7500    213.39813    93.709174    131926.03   -40671.601    2601.6461   -43273.247    24.294349 
    7550    214.51705    68.164081    131901.01   -40679.175    2615.2874   -43294.462    24.512625 
    7600    215.61002    124.70858    132117.61   -40648.889    2628.6124   -43277.502    24.706319 
    7650    215.32325    53.293026    132024.21   -40617.436    2625.1163   -43242.552     24.90534 
    7700    218.51988     4.550302    132006.37   -40587.455     2664.088   -43251.543    25.098529 
    7750    218.20122   -10.295925    132102.79    -40577.96     2660.203   -43238.163       25.198 
    7800    214.43966    -19.24785     131992.6   -40606.237    2614.3439   -43220.581    25.305366 
    7850    215.52852    61.465577    132092.93   -40611.011    2627.6188    -43238.63    25.556875 
    7900    212.61909    64.543303     132140.9   -40620.271    2592.1485   -43212.419     25.77417 
    7950    215.66605   -3.3128909    132102.22   -40609.716    2629.2955   -43239.011    25.831464 
    8000     217.5052     1.347581     132141.9   -40599.307    2651.7175   -43251.024    25.937378 
    8050    218.36653    43.011331    132188.82   -40590.023    2662.2184   -43252.241    26.183137 
    8100    215.06613   -194.90042    132123.57   -40603.601    2621.9815   -43225.582    26.378232 
    8150    214.60325   -101.83916     132015.6    -40562.52    2616.3384   -43178.858    26.597859 
    8200    213.60833   -120.66984    131869.65   -40599.932    2604.2087    -43204.14    26.707154 
    8250    214.35772   -41.012523    131708.77   -40606.132     2613.345   -43219.477      26.7905 
    8300    214.23453    224.21255    131814.33   -40555.736    2611.8431   -43167.579    27.049551 
    8350    215.71088    97.194215    132014.44   -40509.892     2629.842   -43139.734    27.154099 
    8400    211.87944    126.27925    132025.85   -40553.355    2583.1309   -43136.486    27.247542 
    8450    215.43507     11.03257    132064.05   -40552.865    2626.4795   -43179.344     27.31353 
    8500     215.0882   -137.96715     131984.9   -40542.195    2622.2507   -43164.446    27.565054 
    8550    213.35731    4.8044312    131861.26   -40543.093    2601.1484   -43144.241    27.758288 
    8600    214.87997     157.0989    131996.66   -40544.917    2619.7119   -43164.628    27.892168 
    8650    214.20579   -24.062937     132139.6   -40588.625    2611.4927   -43200.118    27.890092 
    8700    214.25335    33.978833    132155.22   -40605.106    2612.0726   -43217.179    28.064793 
    8750    216.99848   -45.486418    132263.21   -40643.945    2645.5398   -43289.485    28.245882 
    8800    215.38763    3.1453916    132200.42   -40628.507    2625.9012   -43254.409    28.391884 
    8850    212.26454    158.44864    132261.76   -40656.328    2587.8259   -43244.154    28.539627 
    8900    216.12083   -18.851345    132264.16   -40587.738    2634.8399   -43222.578    28.650236 
    8950    218.79805   -35.872142    132327.98    -40590.43    2667.4793   -43257.909    28.797688 
    9000    213.49176   -7.0974295    132297.56   -40638.498    2602.7876   -43241.286    28.964019 
    9050    214.00594   -45.207855    132324.95   -40697.732    2609.0562   -43306.788     29.15024 
    9100    215.13112   -57.546731    132232.53   -40688.844    2622.7738   -43311.618    29.462342 
    9150    217.18377    2.1702027    132098.97   -40664.797    2647.7987   -43312.595    29.653627 
    9200     213.5435    -137.1507    132086.86   -40631.185    2603.4184   -43234.603    29.769959 
    9250    215.48929    29.337484    132097.67   -40633.147    2627.1405   -43260.288    29.905135 
    9300    216.27276    26.679697    132064.41   -40616.552    2636.6921   -43253.244    30.015303 
    9350    218.36135   -96.941744    132034.03   -40618.311    2662.1553   -43280.467    30.084036 
    9400    212.40781   -105.41598    131934.41   -40665.261    2589.5726   -43254.834    30.246626 
    9450      215.915     58.22966    131905.45   -40650.622    2632.3306   -43282.953    30.440346 
    9500    214.80459    16.439109    131875.81   -40639.344     2618.793   -43258.137    30.523495 
    9550    216.30947    80.223137     131914.2   -40631.797    2637.1397   -43268.936    30.656132 
    9600     219.4637    71.396983    132088.39   -40669.973    2675.5946   -43345.568    30.696754 
    9650    218.75538   -88.327089    132007.68   -40680.318     2666.959   -43347.277    30.879857 
    9700    209.60988    154.19365    131930.48   -40718.078    2555.4616   -43273.539    30.902904 
    9750    213.11732    -124.5713    131940.44   -40758.419    2598.2226   -43356.642    31.167327 
    9800    211.99939    68.647503    131922.72   -40738.362    2584.5933   -43322.955    31.291222 
    9850    214.09579     157.1875    132107.88    -40699.84    2610.1517   -43309.991    31.409775 
    9900    218.77038    82.776567    132198.73    -40683.78     2667.142   -43350.922    31.606512 
    9950    216.44577   -26.577155     132294.6   -40679.374    2638.8014   -43318.175     31.84086 
   10000    218.92044   -81.160795    132227.97   -40655.097    2668.9714   -43324.069    32.006356 
   10050    218.83499    71.123272    132270.97   -40605.415    2667.9297   -43273.344    32.081848 
   10100    217.36406   -13.895217    132204.45   -40579.264    2649.9968   -43229.261    32.296371 
   10150    215.94154    33.037128    132132.45   -40625.887    2632.6541   -43258.541    32.406757 
   10200    216.65902   -41.855022    132139.04   -40643.064    2641.4013   -43284.465    32.436241 
   10250    216.87584   -45.250228    132038.91   -40658.278    2644.0446   -43302.323    32.427676 
   10300    215.33003    117.81328    132056.21   -40648.567    2625.1988   -43273.766    32.459943 
   10350    217.18137    71.829228     132222.9   -40618.343    2647.7696   -43266.113    32.565189 
   10400    213.12706   -11.488117    132279.85   -40643.311    2598.3414   -43241.653    32.796702 
   10450    216.35168    141.53073    132400.69   -40662.184    2637.6544   -43299.838    33.119111 
   10500    217.86555   -203.99886    132459.07    -40675.37    2656.1107   -43331.481    33.166898 
   10550    210.46354    230.41216    132387.75   -40703.308    2565.8691   -43269.177     33.28409 
   10600    216.93158    3.3840175    132419.19    -40675.26    2644.7242   -43319.984    33.458437 
   10650    214.34058   -30.245761     132384.3   -40673.554     2613.136    -43286.69    33.565936 
   10700    214.61657   -45.001819    132160.02   -40705.313    2616.5007   -43321.814    33.877674 
   10750    211.60284    -18.60326    132162.07   -40717.357    2579.7588   -43297.116    34.210282 
   10800    218.69087    30.700881    132082.18   -40702.077    2666.1726   -43368.249     34.41653 
   10850    216.81084   -33.291817    131947.42   -40753.186    2643.2522   -43396.439    34.504509 
   10900    217.63508   -98.668929    131936.51    -40731.63    2653.3009   -43384.931    34.588696 
   10950    214.87495    105.13971    131942.92    -40688.53    2619.6508   -43308.181    34.685049 
   11000    217.83792    86.967759     132099.8   -40695.178    2655.7739   -43350.952    34.788154 
   11050    215.99421    9.4373154    132167.21   -40669.432    2633.2963   -43302.729    35.055188 
   11100    218.59197     81.24466    132070.07   -40695.909    2664.9668   -43360.876     35.14697 
   11150    215.28888   -154.24162    132064.84   -40681.627    2624.6972   -43306.324    35.116121 
   11200    215.17695    108.71074    132098.03   -40719.643    2623.3326   -43342.976    35.209555 
   11250    213.48481    4.7540049    132244.62   -40740.016    2602.7029   -43342.719    35.363057 
   11300    214.45641   -232.05102    132174.38   -40748.434    2614.5482   -43362.982    35.559598 
   11350    215.62646   -39.887527    132088.61   -40767.913    2628.8128   -43396.726    35.855933 
   11400    210.38524   -73.589787    131939.44   -40808.052    2564.9144   -43372.967    36.089924 
   11450    211.98725    52.424941    131831.12   -40821.743    2584.4454   -43406.188    36.269296 
   11500    212.82644    1.9711299     131947.2    -40776.87    2594.6764   -43371.546    36.569384 
   11550    211.75319    23.030675    131993.05   -40729.524    2581.5917   -43311.116    36.714163 
   11600    213.45472    95.573898    132069.28   -40731.509     2602.336   -43333.845    36.839756 
   11650    213.72845   -58.563373    131946.52   -40746.522    2605.6732   -43352.195    36.876769 
   11700     213.2766     139.1049     132005.5   -40702.321    2600.1645   -43302.485     37.08397 
   11750    214.39718   -23.005049    132107.39   -40691.853    2613.8261   -43305.679    37.077545 
   11800    215.07498    25.245293    132116.39   -40783.314    2622.0894   -43405.403    37.252656 
   11850    214.16247   -57.456657    132087.26   -40761.654    2610.9646   -43372.619    37.349809 
   11900    209.02744    146.08866    132073.53   -40810.575    2548.3608   -43358.936    37.445029 
   11950    209.59048     47.28221    132112.13   -40777.873     2555.225   -43333.098    37.479864 
   12000    220.19489    40.637642    132085.26   -40702.355    2684.5089   -43386.864    37.631659 
   12050    212.57042    52.647662    132091.76   -40689.132     2591.555   -43280.687     37.80757 
   12100    216.59444    15.624213    132074.29   -40653.957    2640.6139   -43294.571    38.010183 
   12150    215.93216    0.1791694     132031.7   -40646.448    2632.5398   -43278.988    38.224923 
   12200    218.06449    8.2220598    132006.58   -40660.934    2658.5361    -43319.47    38.310918 
   12250     214.4064   -16.812562    131985.32   -40691.921    2613.9385    -43305.86    38.479637 
   12300    220.34318    89.553822    132023.13   -40601.053    2686.3167   -43287.369     38.60551 
   12350    217.46875    26.878549     132069.9   -40654.662    2651.2731   -43305.935    38.673668 
   12400    216.14097    -23.77944    132028.69   -40730.252    2635.0855   -43365.337    38.707007 
   12450    215.91762   -89.134127    131898.45   -40728.216    2632.3625   -43360.579    38.858538 
   12500    216.53946   -1.0849276    131819.97   -40717.383    2639.9436   -43357.326    39.066078 
   12550    210.23557   -19.820008    131812.26   -40762.259    2563.0897   -43325.349    39.314613 
   12600    214.01146   -31.449148    131757.95   -40791.013    2609.1235   -43400.137    39.369439 
   12650    214.27859     116.3119     131885.4   -40774.471    2612.3803   -43386.851     39.60284 
   12700    214.58623   -47.947822    132006.75   -40741.376    2616.1308   -43357.507    39.843128 
   12750    214.69635    9.0209785    132033.83   -40709.112    2617.4733   -43326.586    40.055829 
   12800    215.66803   -27.037391    132060.81   -40675.911    2629.3197   -43305.231    40.219957 
   12850    213.86002   -23.976684    131990.64   -40734.762    2607.2772    -43342.04    40.208287 
   12900    213.30416    43.568799    132003.65   -40740.616    2600.5004   -43341.116    40.467087 
   12950    212.54835    96.881536    132017.34   -40730.237     2591.286   -43321.523    40.640904 
   13000    212.72848   -85.351379    132145.38   -40681.812    2593.4821   -43275.294    40.838011 
   13050    218.83408   -18.808426    132071.04   -40605.439    2667.9186   -43273.357    41.182505 
   13100    219.19426    37.521428    132032.83   -40572.372    2672.3097   -43244.682    41.332874 
   13150    214.02786    6.2691711    132034.96    -40617.83    2609.3235   -43227.154    41.439569 
   13200    213.57954    127.08909    131857.19   -40646.343    2603.8578   -43250.201    41.508769 
   13250    214.00842    39.959284    132008.43   -40627.549    2609.0865   -43236.636    41.606283 
   13300    215.14232   -99.112731    131874.21   -40629.083    2622.9105   -43251.994    41.737158 
   13350    216.26413   -16.120855    131846.23   -40663.859     2636.587   -43300.446     41.84735 
   13400    213.62532   -183.70363    131774.41   -40630.699    2604.4159   -43235.115    42.018642 
   13450    217.07209   -61.871591    131708.15   -40679.852    2646.4372    -43326.29    42.208792 
   13500    215.84212   -45.604954    131625.09   -40667.835    2631.4421   -43299.277    42.341792 
   13550     214.3625    125.80636    131570.45   -40664.051    2613.4032   -43277.454    42.726415 
   13600    211.88381    54.269339    131695.86   -40691.928    2583.1843   -43275.112    42.976585 
   13650    215.93934   -23.738277    131781.73   -40691.072    2632.6273   -43323.699    43.187458 
   13700    209.23927    145.10966    131759.75   -40680.159    2550.9434   -43231.102    43.358949 
   13750    214.22619    -126.3225    131822.36   -40694.769    2611.7414    -43306.51    43.685374 
   13800    214.33528   -4.3831134    131763.06   -40669.381    2613.0714   -43282.453    43.749624 
   13850    215.07166   -37.495382    131829.11   -40670.166     2622.049   -43292.215    43.806386 
   13900    217.55746    88.585143    131819.42    -40692.39    2652.3546   -43344.744    43.922126 
   13950    215.84665    2.8203696    131935.97   -40732.139    2631.4973   -43363.637    43.970379 
   14000    218.70053   -4.1161809    131894.36   -40705.754    2666.2904   -43372.044    44.106459 
   14050    211.29756    73.872158    131979.81   -40776.647    2576.0369   -43352.684    44.216183 
   14100    212.98257    34.679262    132040.59   -40734.302    2596.5798   -43330.882    44.206734 
   14150    215.84937    77.989377    132132.09   -40698.148    2631.5305   -43329.679    44.430794 
   14200    214.83616   -50.594892     132088.9   -40693.295    2619.1778   -43312.473    44.658621 
   14250    214.32757   -30.175837    132002.72   -40735.067    2612.9774   -43348.044     44.74642 
   14300    212.06733   -56.152031    131918.96   -40764.585    2585.4216   -43350.006    44.789472 
   14350    211.74099   -50.037451    132079.98   -40738.124     2581.443   -43319.567    45.056857 
   14400    216.98367   -93.630301    131940.29   -40736.633    2645.3592   -43381.992    45.101315 
   14450    215.04636   -41.256749    131949.35   -40740.838    2621.7406   -43362.578    45.398966 
   14500    211.96854    -115.3076    131844.64   -40719.622    2584.2173   -43303.839    45.473666 
   14550    215.69589   -142.12604    131792.95   -40661.192    2629.6593   -43290.851    45.653588 
   14600     216.2324    39.744126    131663.02   -40627.573    2636.2002   -43263.774     45.77388 
   14650    218.20724    72.462328    131801.91    -40571.64    2660.2764   -43231.916    45.848163 
   14700    215.48343    42.890456    131832.92   -40635.266    2627.0691   -43262.335    45.961981 
   14750    213.65555   -12.301163    131714.46   -40699.611    2604.7844   -43304.395    46.279229 
   14800    212.94161   -63.395771    131714.37   -40689.678    2596.0804   -43285.758    46.508909 
   14850    213.50878    82.437787    131628.07    -40700.76     2602.995   -43303.755    46.583382 
   14900    215.35769    201.46283    131581.95   -40685.358    2625.5362   -43310.894    46.724646 
   14950    216.38793   -146.79247    131560.95   -40706.705    2638.0963   -43344.801    46.957654 
   15000    213.31068   -52.321939     131448.2   -40690.253    2600.5799   -43290.833    47.108232 
   15050    215.44721   -31.657881    131552.02   -40696.658    2626.6275   -43323.285    47.304349 
   15100    209.93746    121.20388    131670.65   -40758.932    2559.4553   -43318.387    47.463676 
   15150     211.7733   -146.91342    131569.89   -40748.783    2581.8369    -43330.62    47.643388 
   15200      213.719   -28.807116    131601.42   -40689.858     2605.558   -43295.416    47.674721 
   15250    218.13543   -9.0024445    131575.66   -40650.074     2659.401   -43309.475     47.90444 
   15300    218.06296   -54.572491    131596.35   -40668.093    2658.5174   -43326.611    48.160008 
   15350    213.17966    26.219264    131644.66   -40588.246    2598.9826   -43187.228    48.346298 
   15400    213.69515     3.207208    131606.98   -40564.406    2605.2672   -43169.673    48.323237 
   15450    218.91276   -87.545604    131666.89   -40562.825    2668.8778   -43231.703     48.55417 
   15500    216.76425    84.328799    131740.27   -40574.382    2642.6843   -43217.066    48.900076 
   15550    217.14488   -21.311394       131856   -40556.442    2647.3247   -43203.766    49.164777 
   15600    214.71732    3.8604319    131694.99    -40594.25     2617.729   -43211.979    49.143241 
   15650    215.74008    13.797979    131703.68   -40572.197     2630.198   -43202.395    49.397071 
   15700    221.29297   -54.957102    131732.11   -40598.978    2697.8961   -43296.874    49.524709 
   15750    214.72792   -19.970421    131582.65   -40617.364    2617.8583   -43235.222    49.692144 
   15800    215.97393     112.1434    131625.43   -40581.314     2633.049   -43214.363    50.007772 
   15850    217.92246    92.219084    131634.05   -40620.105    2656.8045   -43276.909    50.037471 
   15900    218.84349    3.5358635    131650.98   -40659.009    2668.0333   -43327.042     50.17352 
   15950    217.53451     -41.5417    131685.27   -40688.814    2652.0749   -43340.889    50.551135 
   16000    214.28534    70.425529    131755.99   -40679.644    2612.4626   -43292.107    50.780372 
   16050    215.63398   -75.067996    131723.71   -40639.285    2628.9044    -43268.19    50.763361 
   16100    215.69497   -65.284696    131498.84   -40613.541    2629.6481   -43243.189    50.859316 
   16150    217.48924    151.42912    131500.78   -40638.269    2651.5229   -43289.792    51.010049 
   16200    210.80363   -22.416235     131477.8   -40655.205    2570.0153   -43225.221    51.154238 
   16250    212.78343   -25.562956    131552.82   -40703.172     2594.152   -43297.324    51.386554 
   16300    210.06462    130.49689    131650.15   -40708.141    2561.0056   -43269.147    51.572801 
   16350    213.00516   -47.100735    131582.88   -40647.481    2596.8552   -43244.336    51.799958 
   16400    213.09261   -21.127978    131604.05   -40640.753    2597.9214   -43238.675    51.968041 
   16450     213.0653   -44.992585    131516.46     -40674.7    2597.5884   -43272.288    52.168109 
   16500    215.92275    101.65509    131498.51    -40667.07     2632.425   -43299.495     52.26852 
   16550    213.23964     27.92826    131549.56   -40666.705    2599.7139   -43266.419     52.45407 
   16600    218.85754    35.908056    131597.43   -40650.222    2668.2046   -43318.427    52.513395 
   16650    213.33808   -31.595758    131720.54   -40625.727     2600.914   -43226.641    52.693319 
   16700    218.58009    100.58407    131742.75   -40626.815     2664.822   -43291.637    53.072396 
   16750    219.93088   -43.552483    131699.11   -40669.871    2681.2902   -43351.162    53.467552 
   16800    213.01957   -40.712516    131651.91    -40680.08    2597.0308   -43277.111    53.632827 
   16850    213.60335    8.6243749    131644.03   -40651.821     2604.148   -43255.969    53.645517 
   16900    215.15435   -16.514756    131634.58   -40641.862    2623.0571   -43264.919    53.852125 
   16950     215.5188   -16.204018    131716.01   -40659.335    2627.5002   -43286.835    53.924351 
   17000    216.17484   -64.255643    131642.76   -40649.868    2635.4984   -43285.366    54.030154 
   17050    218.92381   -146.90062    131653.64   -40621.328    2669.0125   -43290.341    54.067005 
   17100    215.97566   -38.201169    131632.33   -40673.937    2633.0701   -43307.007    54.161216 
   17150    215.38354   -63.122703    131440.29   -40679.677    2625.8512   -43305.529    54.327391 
   17200     209.5143    126.15631    131493.27   -40700.909    2554.2963   -43255.205    54.571738 
   17250    214.90762   -93.292475    131455.69   -40640.338     2620.049   -43260.387    54.852317 
   17300    217.11181    3.9052697    131409.35   -40637.297    2646.9215   -43284.218    54.993215 
   17350     211.3939   -43.595423     131543.1   -40698.851    2577.2115   -43276.062    55.065894 
   17400    211.94089    18.474296    131489.79   -40680.708    2583.8801   -43264.588    55.153741 
   17450    215.17559    117.06212    131566.15   -40625.471     2623.316   -43248.787    55.456429 
   17500    212.42591    84.430207    131536.86   -40594.933    2589.7932   -43184.726     55.54498 
   17550    215.55256    167.77257    131658.69   -40610.974    2627.9119   -43238.885    55.620679 
   17600    214.07275  -0.87969615    131728.27   -40634.957    2609.8707   -43244.827      55.8419 
   17650     215.0613   -70.704126    131680.03   -40663.658    2621.9227    -43285.58    55.738862 
   17700    213.94671    101.41598    131828.35   -40693.641    2608.3342   -43301.975    55.858901 
   17750    215.42763    138.79707    132004.08   -40702.409    2626.3888   -43328.798     56.00637 
   17800    214.81431    86.289209    132024.66   -40670.148    2618.9114   -43289.059    56.017688 
   17850    216.52047     -61.1971    131962.61   -40638.689    2639.7121   -43278.401     56.21226 
   17900    217.44939    82.829798    131877.92   -40630.614    2651.0371   -43281.651    56.337066 
   17950    217.16831    55.150272    131888.04   -40622.854    2647.6103   -43270.464    56.621468 
   18000    219.38563    -104.4036    131841.46   -40591.736    2674.6428   -43266.379    56.758345 
   18050    217.73479    91.170901    131908.89   -40620.445    2654.5165   -43274.962    56.826462 
   18100    213.79223    42.625022    132000.13   -40622.796    2606.4507   -43229.247    56.939352 
   18150    214.15481   -92.773418    131923.18   -40652.603    2610.8712   -43263.475    56.788526 
   18200    214.10719   -66.020628    131802.49    -40659.01    2610.2907   -43269.301    56.945162 
   18250    212.44218   -188.37627    131539.45   -40696.119    2589.9916   -43286.111    57.105092 
   18300    215.32655    79.254141    131455.02   -40659.811    2625.1564   -43284.968     57.17287 
   18350    218.01897    103.51527    131503.95   -40633.986    2657.9812   -43291.967    57.245881 
   18400    217.53348     70.26961    131632.92   -40618.637    2652.0623   -43270.699    57.531939 
   18450    222.16025    151.05924    131768.34   -40571.204    2708.4696   -43279.674    57.824082 
   18500    218.67296    102.89284    131726.38   -40570.026    2665.9542    -43235.98    57.976418 
   18550    215.75552    -101.4513    131799.82   -40631.211    2630.3863   -43261.598    58.357402 
   18600    216.39732   -71.127028    131767.87   -40648.877    2638.2108   -43287.088    58.369387 
   18650    217.67051    155.37936    131856.69   -40702.315    2653.7329   -43356.048    58.426459 
   18700    217.21982   -198.98546    131883.76   -40720.786    2648.2382   -43369.025    58.597516 
   18750    211.82989   -1.4193831    131702.31   -40730.433    2582.5269    -43312.96    58.706582 
   18800    214.47719    11.585892    131540.21   -40742.957    2614.8014   -43357.758    59.049044 
   18850    210.88121    65.807913    131479.21   -40783.951    2570.9611   -43354.912    59.187904 
   18900    211.83435    22.480739    131558.27   -40788.722    2582.5812   -43371.303     59.30863 
   18950     216.0232   -127.47479    131448.36    -40766.28    2633.6497    -43399.93    59.409695 
   19000    211.16016   -30.354404    131462.18   -40775.276    2574.3619   -43349.638    59.682081 
   19050    214.57759   -22.983262    131526.92    -40754.93    2616.0255   -43370.956    59.733822 
   19100     211.2867   -49.364033    131542.49   -40795.082    2575.9046   -43370.987    59.747302 
   19150    211.41912   -30.613038    131571.05   -40752.464     2577.519   -43329.983    59.872897 
   19200    213.90446    30.147042    131578.87   -40750.955     2607.819   -43358.774    59.919115 
   19250    215.29421    153.54243    131784.78   -40736.279    2624.7622   -43361.041    60.172923 
   19300    215.36067   -85.849231    131816.12   -40708.262    2625.5724   -43333.834    60.411238 
   19350     216.9491    -156.1698     131643.8   -40670.103    2644.9378   -43315.041    60.725115 
   19400    216.60236    54.628138    131630.31   -40714.026    2640.7105   -43354.736    61.029822 
   19450    216.06955     16.17186    131652.39   -40708.692    2634.2148   -43342.907    61.112567 
   19500     214.2045    123.96681    131826.27   -40718.188     2611.477   -43329.665    61.140588 
   19550    214.01588   -114.30908    131861.53   -40712.879    2609.1774   -43322.056    61.393501 
   19600    214.20103     39.88917    131981.23   -40693.838    2611.4347   -43305.273    61.434932 
   19650    213.79471   -9.7360859    132130.83   -40722.252    2606.4811   -43328.733    61.781565 
   19700    216.10602    -7.279421    131988.72   -40703.517    2634.6594   -43338.177     61.65808 
   19750    217.38543      -148.73    131937.71   -40677.244    2650.2573   -43327.501    61.703416 
   19800    219.16328     243.6256    131973.82   -40647.625     2671.932   -43319.557    61.802445 
   19850    219.79518  -0.64243628    131996.49   -40627.788    2679.6358   -43307.424    61.987145 
   19900    216.30747    127.95207    132074.46    -40631.39    2637.1153   -43268.505    62.180908 
   19950    222.84106   -70.866917    132169.68   -40608.395    2716.7696   -43325.165    62.356059 
   20000    219.50308   -75.163517    132150.81   -40634.922    2676.0747   -43310.997    62.501653 
   20050    216.10911    72.535829    132114.42   -40664.085     2634.697   -43298.782    62.692357 
   20100    219.70678    197.38659    132213.05   -40681.876    2678.5581   -43360.434    62.665413 
   20150    213.83331    41.369458    132239.99   -40727.037    2606.9516   -43333.988    62.812952 
   20200    215.70727   -37.268481     132125.1   -40723.363     2629.798   -43353.161    62.888114 
   20250    210.93411   -6.2740018    132229.91   -40725.569     2571.606   -43297.175    63.175618 
   20300    217.92082   -122.15081    132136.22    -40690.06    2656.7846   -43346.845    63.397987 
   20350     215.4454    5.0116473    132137.65   -40690.896    2626.6055   -43317.502    63.686341 
   20400    218.98211   -17.681451    132279.51   -40663.817    2669.7233    -43333.54    63.915357 
   20450    221.84329   -8.8178022    132352.63   -40638.751    2704.6054   -43343.357    64.112361 
   20500    218.04329   -176.08033    132282.09    -40662.89    2658.2776   -43321.167    64.422351 
   20550    216.40441    93.514664       132332   -40669.204    2638.2972   -43307.501    64.525854 
   20600     218.5063    41.583208    132373.62   -40618.835    2663.9225   -43282.758    64.816788 
   20650    212.92778    197.10464    132448.32   -40649.619    2595.9119   -43245.531    65.118698 
   20700    217.90374   -107.72222    132456.41   -40643.264    2656.5763    -43299.84    65.270474 
   20750    213.72313   -52.781058    132339.86   -40686.646    2605.6083   -43292.255    65.440714 
   20800    214.12833   -27.995268    132301.62   -40711.931    2610.5483    -43322.48    65.626645 
   20850    214.16015    42.798878    132248.68   -40647.367    2610.9363   -43258.304    65.643162 
   20900    220.83339   -7.5635293    132107.75     -40649.1    2692.2932   -43341.393    65.678961 
   20950    217.78782    71.459264    132087.92   -40638.995    2655.1631   -43294.158    66.091939 
   21000     218.4841   -56.442546    132145.87   -40606.768    2663.6517   -43270.419    66.170364 
   21050    216.58003     65.67975    132310.31   -40639.018    2640.4382   -43279.457    66.398917 
   21100    219.00852   0.52006274    132293.66   -40612.583    2670.0452   -43282.629    66.388798 
   21150    218.24375   -5.7250009    132364.75   -40630.362    2660.7215   -43291.083    66.540441 
   21200    220.28887    47.103169    132211.43   -40666.773    2685.6547   -43352.428    66.829695 
   21250    218.56596     54.90791    132266.22   -40679.034    2664.6497   -43343.684    66.928579 
   21300    217.28714    66.894041    132322.59    -40732.09     2649.059   -43381.149    66.984508 
   21350     216.6761    175.79473    132362.77   -40729.711    2641.6095    -43371.32    67.168852 
   21400    213.54901    88.382883    132323.27   -40783.896    2603.4855   -43387.382    67.251909 
   21450    213.54147      261.875     132453.1   -40766.609    2603.3937   -43370.003      67.2948 
   21500    218.34397    65.069998    132613.31   -40722.394    2661.9434   -43384.337     67.46785 
   21550    213.25208   -79.251079    132396.93   -40725.872    2599.8655   -43325.737    67.380564 
   21600    213.23799     80.65805     132323.2   -40705.854    2599.6938   -43305.548    67.731097 
   21650    213.68202   -24.466467    132339.99   -40717.209    2605.1072   -43322.317    67.886489 
   21700    213.60409    75.476073    132353.79   -40741.627    2604.1571   -43345.784    67.988609 
   21750    213.68919   -110.21875    132411.76    -40744.18    2605.1945   -43349.375    68.171083 
   21800    214.52936   -119.09505    132301.06   -40737.497    2615.4375   -43352.935    68.224431 
   21850    213.97287   -4.7349481    132103.83   -40748.901     2608.653   -43357.554    68.402055 
   21900    215.52514    193.62952    132133.86   -40661.628    2627.5775   -43289.205    68.713408 
   21950    217.25113    42.350204    132166.15     -40678.8      2648.62    -43327.42    68.981385 
   22000    219.27531   -47.204694    132194.62   -40629.299    2673.2978   -43302.597    69.074558 
   22050     220.0968    91.522193    132180.24   -40611.884     2683.313   -43295.197      69.1407 
   22100    219.50005     110.7433    132388.55   -40605.006    2676.0378   -43281.043     69.34835 
   22150    216.00394   -7.7987574    132285.34   -40629.044    2633.4149   -43262.459    69.418659 
   22200    218.16318    139.55101     132430.6   -40675.824    2659.7393   -43335.563    69.704068 
   22250    213.44385   -48.369657    132450.25    -40667.49    2602.2035   -43269.693    70.152468 
   22300    219.63021   -62.000341    132403.79   -40636.254    2677.6246   -43313.879    70.415742 
   22350    219.16757    120.05077    132448.19   -40628.101    2671.9843   -43300.086     70.85196 
   22400    215.30021    -5.032121    132441.85   -40652.243    2624.8353   -43277.078    71.160487 
   22450    218.09826   -45.796741    132385.33   -40647.096    2658.9478   -43306.043    71.358958 
   22500    220.27175    1.4493484    132310.18   -40624.833    2685.4459   -43310.279    71.316107 
   22550    216.95899    62.667091     132259.3   -40643.178    2645.0583   -43288.236    71.521385 
   22600    209.57205    114.54824    132281.39   -40695.439    2555.0003    -43250.44    71.760391 
   22650    219.51069   -137.95781    132244.59   -40672.128    2676.1675   -43348.295    72.079699 
   22700    217.10986    16.300413    132110.65   -40673.949    2646.8977   -43320.847    72.091105 
   22750    214.66531    112.89585    132289.53    -40719.63     2617.095   -43336.725    72.089057 
   22800    214.51548    181.93277    132305.98   -40698.642    2615.2683   -43313.911    72.301788 
   22850    214.47786   -38.370217    132343.28   -40715.195    2614.8096   -43330.004     72.56917 
   22900    215.63876   -15.302746    132264.13   -40761.727    2628.9627   -43390.689    72.510768 
   22950    212.21992   -63.582464    132234.25   -40736.982     2587.282   -43324.264    72.526238 
   23000    214.99647    48.537285    132202.99   -40709.571    2621.1322   -43330.703    72.852811 
   23050     211.7887    50.763777    132269.53   -40714.878    2582.0247   -43296.903    72.863163 
   23100    214.44601   -35.236838    132224.19   -40717.525    2614.4214   -43331.946    72.779126 
   23150    217.68685    81.947164    132336.55    -40714.67    2653.9321   -43368.602    73.159237 
   23200    216.06977    138.05906    132423.32   -40727.132    2634.2175   -43361.349    73.340826 
   23250     214.2325    15.925951    132478.24     -40751.8    2611.8184   -43363.618    73.706718 
   23300    214.87689     106.5261    132477.23   -40684.761    2619.6745   -43304.436    73.858814 
   23350    212.71809    167.52518    132565.93   -40734.822    2593.3554   -43328.177    73.881924 
   23400    214.77775   -53.273646    132508.51   -40747.484    2618.4658    -43365.95    73.782618 
   23450    217.77993   -10.480077    132329.12    -40773.25    2655.0669   -43428.316    73.863817 
   23500    216.79987   -94.784271    132286.87   -40759.529    2643.1185   -43402.648    74.134854 
   23550    212.14972   -3.8366913    132197.59   -40741.414     2586.426    -43327.84    74.216104 
   23600    211.09979    14.248283    132276.93   -40806.069    2573.6259   -43379.694    74.482625 
   23650    211.74664    105.78604     132249.4   -40763.108    2581.5119    -43344.62    74.464445 
   23700    211.84637   -98.945733    132251.66   -40815.341    2582.7278   -43398.069    74.674013 
   23750    212.68649   -186.85222    132138.89   -40795.057    2592.9701   -43388.027    74.938383 
   23800    215.79663    25.525175    132038.41   -40775.707    2630.8875   -43406.595    74.883707 
   23850    214.52835   -122.00897    131993.52   -40737.542    2615.4252   -43352.967    74.835743 
   23900    212.89594    25.010837    132195.34    -40772.35    2595.5237   -43367.874    74.993159 
   23950    214.28354   -39.684277     132269.3   -40725.563    2612.4406   -43338.003    75.107667 
   24000    210.60908    123.05287    132421.01   -40732.656    2567.6434   -43300.299    75.398737 
   24050    220.89219   -104.90035    132324.12   -40723.229      2693.01   -43416.239    75.524586 
   24100    217.91238   -85.441389    132348.63   -40755.737    2656.6816   -43412.419    75.442981 
   24150    216.11885   -14.495229    132392.26    -40785.06    2634.8157   -43419.876    75.619388 
   24200    213.63859   -38.129553    132498.18   -40803.367    2604.5776   -43407.944    75.798673 
   24250    215.11842    126.50922    132520.94   -40777.798    2622.6191   -43400.417    76.124763 
   24300    216.36762   -26.815756    132442.17   -40741.389    2637.8486   -43379.238    76.439565 
   24350    214.84324    9.8717902     132319.5   -40709.379    2619.2642   -43328.643    76.618253 
   24400    213.39961   -82.884972    132320.69   -40747.218    2601.6641   -43348.882    76.741841 
   24450    215.77125    169.04525    132315.33    -40746.26     2630.578   -43376.839    76.630184 
   24500    216.07458   -130.91361    132305.25   -40759.158    2634.2761   -43393.435    76.806371 
   24550    214.27058   -48.483247    132195.17   -40775.468    2612.2825   -43387.751    76.624654 
   24600    209.74378   -160.49021    132048.49   -40818.955     2557.094   -43376.049      76.8463 
   24650    209.15334    -61.46765    131888.46   -40822.282    2549.8957   -43372.178    76.716535 
   24700    211.40245    120.59589    131886.28   -40823.256    2577.3158   -43400.571    76.730448 
   24750    215.96454   -120.67167    131854.63   -40779.149    2632.9345   -43412.083    77.002159 
   24800    215.71876   -144.65644    131792.58   -40700.694    2629.9381   -43330.632    76.933543 
   24850    214.81713    129.80913    131833.71   -40742.325    2618.9459   -43361.271    77.116962 
   24900    213.65424    115.98249    131836.72   -40767.604    2604.7685   -43372.372    77.037153 
   24950    214.40995    89.851727    131920.52   -40687.098    2613.9817    -43301.08    77.303117 
   25000    213.53038   -39.092385    132074.44   -40652.119    2603.2584   -43255.378    77.552032 
   25050    212.39007       71.584    132071.91   -40700.774    2589.3563    -43290.13    77.766373 
   25100    215.34107     100.0621    132011.62   -40730.678    2625.3334   -43356.012    77.950232 
   25150    213.58084    189.14877    132159.75   -40709.739    2603.8736   -43313.613    78.167282 
   25200    213.70796   -100.02068    132150.32   -40713.492    2605.4234   -43318.915    78.175522 
   25250    210.13313   -13.904543    131975.34   -40766.277    2561.8408   -43328.118     78.16522 
   25300    213.47062    -74.76801    132003.18   -40739.149    2602.5299   -43341.679    78.412156 
   25350     211.8781   -22.608017    131937.54   -40704.794    2583.1147   -43287.908    78.537783 
   25400    212.84326    35.752183    131962.61   -40682.306    2594.8814   -43277.187    78.848703 
   25450    212.88281    47.191803    131854.57   -40717.976    2595.3636   -43313.339    78.808352 
   25500     217.2542    23.954579    131799.38   -40689.232    2648.6575    -43337.89    79.062652 
   25550    214.51343   -31.651419     131785.1   -40694.035    2615.2432   -43309.278    79.245942 
   25600    213.73815    28.874244    131846.14   -40704.822    2605.7915   -43310.613    79.326639 
   25650    216.93343    10.412174    131896.75   -40681.776    2644.7467   -43326.522    79.504117 
   25700    216.50575   -54.433398    131851.68   -40704.477    2639.5327   -43344.009      79.5147 
   25750    218.10105   -34.047315    131890.65   -40713.767    2658.9819   -43372.749    79.799422 
   25800    215.79099    56.244118    131887.59   -40749.923    2630.8187   -43380.742    79.929013 
   25850    209.34501    68.725286    131850.54   -40756.226    2552.2325   -43308.458    80.118045 
   25900    216.52727   -2.9500366    132014.34   -40672.221    2639.7951   -43312.016      80.3789 
   25950     218.2858    26.982034    132035.52   -40693.341    2661.2342   -43354.575     80.58956 
   26000    218.48401    15.405616    132021.93    -40683.86    2663.6507   -43347.511    80.790092 
   26050    214.14869   -8.9736425    132095.54   -40716.206    2610.7966   -43327.003    80.990048 
   26100    222.27177   -96.187572    131952.99   -40737.146    2709.8291   -43446.975    81.089866 
   26150    216.21151    177.56277    131904.38   -40730.826    2635.9455   -43366.772    81.316054 
   26200    214.61165    34.437428    132020.89    -40738.34    2616.4408   -43354.781    81.543443 
   26250    217.49618   -40.070122     132036.3   -40711.413    2651.6075   -43363.021    81.465693 
   26300    212.85663   -13.903634    132243.52    -40742.34    2595.0443   -43337.384    81.759096 
   26350    216.68146    81.073186    132263.76    -40712.24    2641.6748   -43353.915    81.729609 
   26400     216.4947    -15.83318    132298.45   -40741.999     2639.398   -43381.397    81.796688 
   26450    212.87471    26.253135     132279.8   -40764.476    2595.2648   -43359.741    82.065734 
   26500    214.81223   -117.09878    132284.43   -40813.006    2618.8862   -43431.892    82.210042 
   26550    213.99377    3.1829419     132279.5   -40802.148    2608.9079   -43411.056    82.339135 
   26600    216.03021    17.845532    132304.71   -40787.618    2633.7351   -43421.353    82.475041 
   26650    215.97085    18.957946     132300.4   -40807.724    2633.0114   -43440.735    82.701008 
   26700    212.44006   -143.42407    132244.75   -40777.579    2589.9658   -43367.545    82.873139 
   26750    215.94925   -44.823242    132164.05   -40730.194    2632.7481   -43362.942    82.744479 
   26800    214.89559   -43.479368    132154.41   -40742.977    2619.9024   -43362.879    82.769449 
   26850    214.72436   -33.308112    132190.63    -40735.32    2617.8149   -43353.135    82.782775 
   26900    211.22863   -151.66478    132165.86   -40792.012    2575.1967   -43367.209    83.033849 
   26950    211.32566   -71.010381    131986.76   -40751.098    2576.3795   -43327.477    83.209219 
   27000    214.28302   -17.012536    131865.37   -40710.152    2612.4342   -43322.586    83.476608 
   27050    210.74935   -34.726894    131716.94   -40712.038    2569.3534   -43281.391    83.614324 
   27100    218.30206    8.9800745    131787.13    -40676.15    2661.4324   -43337.583    83.903865 
   27150    219.84865    123.55617    131923.91   -40640.667    2680.2877   -43320.955     84.18759 
   27200    215.40433   -110.19994    131939.37   -40635.663    2626.1047   -43261.768    84.357612 
   27250    214.98563    68.661026    131985.45   -40654.384    2621.0002   -43275.384    84.466349 
   27300     216.8027   -6.5659182    132007.06   -40655.368     2643.153   -43298.521    84.613835 
   27350    219.55103   -146.47329    131791.78    -40666.49    2676.6592   -43343.149    84.657869 
   27400    219.18463   -87.481295    131701.51   -40648.763    2672.1923   -43320.955    84.694756 
   27450    218.31074    71.782653    131840.14    -40654.29    2661.5383   -43315.828    84.813805 
   27500    218.48863   -62.573638     131768.9   -40624.618     2663.707   -43288.325    84.913196 
   27550    219.67392    167.77944    131782.64   -40617.927    2678.1574   -43296.085    85.114721 
   27600    217.37307    99.878581     131742.7   -40651.965    2650.1066   -43302.072    85.231002 
   27650    214.30572    36.744299    131781.16   -40633.896     2612.711   -43246.607    85.519543 
   27700    219.12353    58.719724    131879.65    -40607.43    2671.4474   -43278.877    85.743772 
   27750    221.26576   -264.26955    131773.69   -40637.661    2697.5644   -43335.225    86.069346 
   27800    214.95649     53.64625    131678.16   -40659.959    2620.6449   -43280.604    86.426908 
   27850    214.52388   -50.506624    131670.52     -40682.4    2615.3707   -43297.771    86.598434 
   27900    212.76017    6.9362171    131589.16   -40645.896    2593.8683   -43239.765    86.747571 
   27950    216.52813     55.70073    131732.68   -40636.763    2639.8056   -43276.568    86.947886 
   28000    222.42097   -90.568558    131773.47   -40642.205    2711.6482   -43353.853    87.208905 
   28050    216.77528   -8.0960385    131789.21   -40570.784    2642.8187   -43213.603    87.498969 
   28100    216.14838   -18.918991    131780.65   -40591.098    2635.1758   -43226.273    87.656359 
   28150    219.17005   -53.348997    131602.82   -40608.214    2672.0145   -43280.229    87.659499 
   28200    216.69545    148.53289    131701.82   -40643.609    2641.8454   -43285.454    87.849512 
   28250    218.61338    5.6192577    131740.51   -40607.521    2665.2279   -43272.749    87.926568 
   28300    217.91554   -2.3669006     131894.7   -40618.254    2656.7201   -43274.974    87.926386 
   28350    217.21217    103.45332    132032.69   -40634.155     2648.145     -43282.3    87.887298 
   28400    216.66762    -194.3547    132072.44    -40609.96    2641.5061   -43251.466    88.090107 
   28450    215.66663   -110.30656    131886.11   -40644.118    2629.3026    -43273.42    88.092558 
   28500    213.51181   -33.284998    131791.78   -40611.313    2603.0321   -43214.345    87.997149 
   28550    215.80874    44.718816     131871.6   -40679.491    2631.0351   -43310.526    88.093347 
   28600    211.17403   -103.57486    131856.63   -40667.813    2574.5309   -43242.344    88.150276 
   28650    214.30149    36.057641    131850.33   -40683.834    2612.6595   -43296.494    88.271554 
   28700    212.76084    44.786351    131906.58   -40695.917    2593.8765   -43289.794    88.589157 
   28750    219.08479    79.944026    131802.26   -40667.448    2670.9751   -43338.423    88.823565 
   28800    216.13872   -11.405453     131919.8   -40652.716     2635.058   -43287.774    88.962599 
   28850    213.42413   -137.06402    131845.69   -40675.641    2601.9631   -43277.604    89.110175 
   28900    214.79373   -89.419835    131733.87   -40688.586    2618.6606   -43307.247    89.139953 
   28950    213.50258    56.369671    131816.32   -40675.938    2602.9195   -43278.857    89.371094 
   29000    220.04527   -57.952428    131879.92   -40655.313    2682.6847   -43337.998    89.560257 
   29050    220.09796    166.21023    132051.59   -40607.076    2683.3272   -43290.403    89.772275 
   29100    220.85111   -8.7032687    132169.56   -40584.466    2692.5092   -43276.975    89.830937 
   29150    214.64526    141.49726    132165.94    -40644.75    2616.8505     -43261.6     89.95011 
   29200    214.22298    60.570353    132193.13   -40693.649    2611.7023   -43305.351    90.142343 
   29250    214.34441    75.736544    132077.75    -40720.07    2613.1827   -43333.252    90.489529 
   29300    213.70095    97.253766    132247.99    -40730.39     2605.338   -43335.728    90.818116 
   29350    210.09485   -56.275374    132170.87   -40743.056    2561.3741    -43304.43      90.8108 
   29400    214.04663   -8.9168739    132085.99   -40776.403    2609.5523   -43385.955    91.031206 
   29450    214.59992   -5.0080576    131936.57   -40742.516    2616.2977   -43358.814    91.147311 
   29500    213.83522   -61.992044    131802.51   -40736.083    2606.9749   -43343.058    90.996148 
   29550    216.29312    64.240536    131888.22   -40677.255    2636.9404   -43314.195    91.091322 
   29600    216.29031   -36.278251    131987.64   -40701.611    2636.9061   -43338.517     91.30813 
   29650    218.72248   -96.943408    131945.22   -40710.533     2666.558   -43377.091    91.456487 
   29700    216.75236   -39.102124    131843.59   -40685.362    2642.5393   -43327.901    91.613212 
   29750    213.31802   -30.816741    131801.35   -40674.762    2600.6694   -43275.432    91.802095 
   29800    213.42288   -47.239883    131746.43   -40699.153    2601.9479   -43301.101    91.926419 
   29850     217.0608    49.234227    131820.93   -40695.327    2646.2996   -43341.626    92.141141 
   29900    212.31515     208.4722    131875.44   -40769.292     2588.443   -43357.735    92.553514 
   29950    215.05921    153.65804    132108.06   -40736.405    2621.8972   -43358.302    92.616152 
   30000    212.68117    -35.61404    132071.35   -40785.717    2592.9053   -43378.622    92.728415 
   30050    215.60874    112.95883    132048.68   -40758.427    2628.5968   -43387.024    92.704035 
   30100    218.68684    35.820929    132068.24    -40727.39    2666.1235   -43393.514    92.767446 
   30150    215.87586   -57.902873    131994.59    -40716.32    2631.8534   -43348.174    92.778002 
   30200    219.61182   -114.45285    132044.95   -40681.945    2677.4004   -43359.346    92.645967 
   30250    215.32135   -26.340125    132020.57   -40652.811    2625.0931   -43277.904     92.68271 
   30300    218.34163    94.097032    131923.19   -40636.246    2661.9148   -43298.161    92.659935 
   30350    218.47702     10.99376    131951.31   -40650.931    2663.5654   -43314.497    92.898476 
   30400    218.51824    9.4432353    132022.36    -40632.74     2664.068   -43296.808    92.986127 
   30450    213.96312   -71.339157     132085.4   -40644.864    2608.5342   -43253.398    93.307105 
   30500    218.69911   0.50478859    132037.89   -40652.994    2666.2731   -43319.267    93.459044 
   30550    216.64534    46.591633    132082.21   -40653.136    2641.2345    -43294.37    93.847749 
   30600    216.51621   -1.6621846       132062   -40633.862    2639.6602   -43273.522    93.912807 
   30650    215.17508   -49.372037    131980.71   -40673.482    2623.3098   -43296.792    93.916056 
   30700    215.75738   -5.3860954     131945.7     -40686.1    2630.4089   -43316.509    94.217727 
   30750     216.5186    108.44002    131894.69   -40662.086    2639.6893   -43301.776    94.409434 
   30800    214.01758    227.89304    131947.85   -40701.999    2609.1981   -43311.197    94.447605 
   30850    214.55814    12.027705    132011.97   -40725.968    2615.7884   -43341.756    94.638806 
   30900    215.40316    -1.122674    132059.39   -40757.954    2626.0904   -43384.045     95.03317 
   30950    214.91816   -173.46921    131977.52     -40712.4    2620.1775   -43332.577    94.941769 
   31000    213.99298   -68.071804     131977.8   -40737.352    2608.8983   -43346.251    94.995131 
   31050    214.04601    21.723218    132030.26   -40748.322    2609.5447   -43357.867    95.034445 
   31100    212.11289    99.349555    132112.43   -40780.368    2585.9771   -43366.345    95.116592 
   31150    212.79434    45.091736     132066.9   -40791.258    2594.2849   -43385.543    94.970421 
   31200    207.65129    96.580488    132078.89   -40802.729    2531.5834   -43334.313    95.327344 
   31250    209.57139   -196.19747    131996.82   -40794.642    2554.9924   -43349.634    95.416833 
   31300    215.33343    167.27056    131807.53   -40795.427    2625.2403   -43420.667    95.462425 
   31350     212.2549   -77.344522    131871.95   -40756.094    2587.7085   -43343.803    95.656677 
   31400     211.8726    127.69596    131931.56   -40760.372    2583.0476    -43343.42    95.546513 
   31450    214.07601    51.267956    132074.03   -40773.452    2609.9105   -43383.362    95.751684 
   31500    212.27782    14.704494    132053.74   -40750.976    2587.9879   -43338.964    96.046462 
   31550    218.68935   -216.02705    132130.84   -40727.941    2666.1541   -43394.095    96.246409 
   31600    217.24498    12.679301    131989.54   -40751.559     2648.545   -43400.104    96.615083 
   31650    216.24978    19.779742       131986   -40742.466     2636.412   -43378.878    96.727258 
   31700    215.55225    29.274243    131988.22   -40743.929    2627.9081   -43371.837    96.986645 
   31750    213.28075   -43.964442    131890.15   -40765.573    2600.2151   -43365.788    97.065092 
   31800    220.73795    142.56698    131854.92   -40770.159    2691.1296   -43461.289    96.891101 
   31850     212.4304    207.64036    132037.31   -40774.973     2589.848   -43364.821    97.034842 
   31900    211.88673   -64.760933     131947.2   -40794.738    2583.2199   -43377.958    97.018691 
   31950    209.64681   -44.544194    131813.06   -40842.238    2555.9118    -43398.15    97.056859 
   32000    215.50421    36.672911    131715.66   -40778.699    2627.3224   -43406.022    97.115123 
   32050    213.40139   -69.364418     131771.1   -40736.984    2601.6859   -43338.669    97.303983 
   32100    216.81001   -14.158306    131772.81   -40737.765    2643.2421   -43381.007    97.479016 
   32150     214.2492   -73.574765    131852.35   -40700.155    2612.0219   -43312.177    97.439485 
   32200     210.5592   -69.754449    131820.52    -40711.63    2567.0352   -43278.665    97.713684 
   32250    215.11005   -115.94701    131738.35    -40705.04     2622.517   -43327.557    97.817085 
   32300    216.03678    40.502685    131662.36   -40718.647    2633.8153   -43352.462    97.994112 
   32350     213.6667    169.24514    131745.77   -40746.815    2604.9204   -43351.735    98.130215 
   32400    216.31919   -43.167598    131873.05   -40745.949    2637.2583   -43383.207    98.335373 
   32450    214.28441   -53.602552    131761.24   -40712.079    2612.4512    -43324.53    98.538623 
   32500    215.80977    31.598805    131900.32   -40693.867    2631.0476   -43324.915    98.643094 
   32550    215.33847   -15.100796    131979.42   -40672.764    2625.3018   -43298.065    98.709538 
   32600    212.70351    86.665418    132071.83   -40692.676    2593.1777   -43285.853    98.849504 
   32650    210.77318   -102.10372    132043.66   -40726.668     2569.644   -43296.312    99.053962 
   32700      215.543    198.78387    132075.82   -40667.961    2627.7953   -43295.756    99.222118 
   32750    214.11765    82.091376    132100.55   -40675.684    2610.4181   -43286.102    99.449273 
   32800    213.62538    36.622142    132071.28   -40649.885    2604.4166   -43254.302     99.49006 
   32850    214.77805   -162.46797    131983.24   -40696.898    2618.4694   -43315.368    99.821349 
   32900    211.63637   -77.684123     131764.4   -40705.209    2580.1676   -43285.377    99.881986 
   32950    220.22417    109.56133    131924.94   -40650.887    2684.8658   -43335.753    99.898821 
   33000    214.96199   -128.24545    132031.01    -40700.17    2620.7119   -43320.881    100.05653 
   33050    210.33872   -129.38036    131886.64   -40706.227    2564.3472   -43270.574    99.882362 
   33100    212.00095    125.45136    131907.68   -40743.235    2584.6123   -43327.847     100.2651 
   33150    211.15894    40.384858    131854.26    -40735.63     2574.347   -43309.977     100.4351 
   33200    211.55298   0.92702323    131828.67   -40710.214    2579.1509   -43289.365    100.58893 
   33250    216.05941   -74.707235    131787.61   -40773.551    2634.0912   -43407.642     100.7353 
   33300    215.37665   -17.349811    131915.77   -40760.772    2625.7672   -43386.539    100.96464 
   33350    213.58356    103.06072    131922.56   -40699.153    2603.9068    -43303.06    101.24807 
   33400    215.82193    24.616103     131984.6   -40698.511    2631.1959   -43329.707    101.59655 
   33450    211.95234   -37.496777    132029.45   -40694.478    2584.0197   -43278.498    101.87412 
   33500     218.7126   -171.68568    132022.41   -40663.597    2666.4375   -43330.035     101.8331 
   33550    210.09485     52.50371    132161.94   -40695.811    2561.3741   -43257.186    102.08539 
   33600    213.09671    85.918991    132151.85   -40688.586    2597.9713   -43286.558    102.14454 
   33650    213.97929    107.11693     132081.7   -40699.873    2608.7313   -43308.604    102.24186 
   33700    212.94387   -79.083805    132179.37   -40689.429    2596.1079   -43285.537    102.36434 
   33750    212.86453    54.366909    132176.15   -40697.547    2595.1407   -43292.687    102.48436 
   33800    210.60566   -133.21208    132137.95   -40690.192    2567.6017   -43257.794    102.62352 
   33850    212.75357    47.577118    132166.19   -40669.157     2593.788   -43262.945    102.94036 
   33900    212.85568    71.850261     132209.1     -40645.1    2595.0328   -43240.133    102.99711 
   33950    212.40095      149.526    132237.05   -40676.404     2589.489   -43265.893    103.05429 
   34000    211.28333    -121.5772    132243.18   -40699.094    2575.8635   -43274.957    103.36532 
   34050    214.23481    175.08032    132438.48   -40691.861    2611.8465   -43303.707    103.67263 
   34100    213.70108   -109.52406    132497.09   -40694.588    2605.3395   -43299.928     103.9371 
   34150    216.01862    18.568783    132470.07   -40707.541    2633.5938   -43341.135    104.11879 
   34200    213.88995    87.388751    132527.83   -40731.641    2607.6422   -43339.283    104.30175 
   34250    217.55007   -79.682446    132514.79   -40738.002    2652.2646   -43390.266    104.42156 
   34300    216.55483   -65.174105    132501.23   -40768.631     2640.131   -43408.762    104.44942 
   34350    211.95485    126.59221    132570.84   -40795.576    2584.0503   -43379.626    104.82706 
   34400    213.63565   -7.5189577    132648.53    -40814.19    2604.5418   -43418.732    104.77601 
   34450    215.34147    95.475897    132821.74   -40742.872    2625.3384    -43368.21    104.92652 
   34500    211.88586   -130.30729    132807.48   -40764.084    2583.2093   -43347.293    105.09304 
   34550    218.02286   -182.19226    132805.12   -40734.525    2658.0285   -43392.553    105.33744 
   34600    213.87526   -72.072966    132703.23   -40751.668    2607.4631   -43359.131    105.48345 
   34650    214.33178    112.62951       132611   -40736.424    2613.0288   -43349.452    105.74631 
   34700    217.10237    57.100905    132617.45    -40752.69    2646.8064   -43399.497    106.02646 
   34750    212.86973   -33.201912       132619   -40780.705    2595.2041   -43375.909    106.42376 
   34800    212.04579   -36.947388    132635.44   -40781.178     2585.159   -43366.337    106.57477 
   34850    213.05529    66.446006    132552.54   -40775.028    2597.4663   -43372.494    106.50385 
   34900    214.00298   -23.226452    132604.17   -40833.072    2609.0202   -43442.092    106.50987 
   34950    211.80473   -30.348055    132463.88   -40839.982    2582.2201   -43422.202     106.5079 
   35000    213.14763   -91.065126    132455.53   -40814.613    2598.5922   -43413.205    106.46959 
   35050     216.7254   -34.383774    132325.64   -40782.895    2642.2105   -43425.105    106.33075 
   35100    214.90718   -26.437499    132451.31    -40799.61    2620.0437   -43419.654     106.3647 
   35150    212.68544     83.29591    132437.27   -40792.345    2592.9573   -43385.302    106.44624 
   35200    210.97242    127.88867    132439.79   -40809.522     2572.073   -43381.595    106.57872 
   35250    210.55732   -14.597812    132324.21    -40822.84    2567.0123   -43389.853    106.77165 
   35300     212.0443    -58.45507    132199.88   -40853.394    2585.1409   -43438.534    107.03627 
   35350    213.88035    90.852156    132157.37   -40853.414    2607.5251   -43460.939    107.12254 
   35400    213.82988   -49.251316    132078.48   -40839.073    2606.9098   -43445.983    107.16636 
   35450    215.33656   -79.903016    132096.11   -40868.576    2625.2785   -43493.854    107.28229 
   35500    214.84076    35.388899    131998.01    -40859.39    2619.2339   -43478.624    107.49045 
   35550    210.62804    172.09177     132085.9   -40793.136    2567.8745    -43361.01    107.60694 
   35600    214.39387    57.433277    132198.68   -40776.521    2613.7857   -43390.307    108.03228 
   35650    214.69642    129.04746     132350.1   -40724.423    2617.4742   -43341.897    107.91044 
   35700     215.2466   -42.822929    132339.48    -40760.48    2624.1817   -43384.662    107.93005 
   35750    214.93758    51.068355    132373.95    -40789.68    2620.4143   -43410.095    107.96647 
   35800    208.83998    8.3885305     132334.4   -40824.904    2546.0754   -43370.979    108.19188 
   35850    214.22496   -6.3438756     132240.4   -40796.063    2611.7264    -43407.79    108.25738 
   35900    215.87651   -52.071659    132268.06   -40753.141    2631.8612   -43385.002    108.64191 
   35950    214.31183    44.040909    132195.04   -40787.157    2612.7854   -43399.942     108.6196 
   36000    210.86455    24.331868    132213.08   -40787.696    2570.7579   -43358.454    108.85896 
   36050    216.43019    64.766647    132422.53   -40756.728    2638.6115    -43395.34    108.82874 
   36100    215.09061    59.286112    132350.75   -40748.554      2622.28   -43370.834    108.86616 
   36150    216.38674   -114.53614     132384.4   -40765.087    2638.0818   -43403.169    108.94224 
   36200    216.20332    8.0139779    132402.74    -40731.68    2635.8457   -43367.526    108.95943 
   36250    214.16009   -15.261402    132351.37   -40777.575    2610.9355   -43388.511    109.08381 
   36300    212.10806   -39.232936    132368.04   -40756.603    2585.9182   -43342.521    109.20091 
   36350    209.39175    90.224192     132293.6   -40777.062    2552.8022   -43329.864    109.40891 
   36400     214.6279    33.507801    132291.63   -40797.368    2616.6389   -43414.007    109.64814 
   36450    213.64256    31.387364    132368.54   -40773.391     2604.626   -43378.018    110.16425 
   36500    215.16708   -85.732084    132429.87   -40759.352    2623.2122   -43382.564    110.28285 
   36550    211.42372    37.512787     132425.9   -40793.054     2577.575   -43370.629    110.27883 
   36600    211.55342   -124.13376    132440.41   -40814.324    2579.1563   -43393.481    110.13119 
   36650    210.48783      43.9157    132419.19    -40782.74    2566.1652   -43348.905    110.35545 
   36700    208.45018   -136.85667    132346.97   -40782.256    2541.3231   -43323.579    110.57208 
   36750     213.5025    23.665211    132283.81    -40759.77    2602.9185   -43362.689     110.7114 
   36800    216.49983    13.067653    132281.94   -40768.542    2639.4605   -43408.002    110.95132 
   36850    217.51512    -23.56346    132365.48   -40768.299    2651.8385   -43420.137    110.98713 
   36900    212.87241   -69.589271    132212.92   -40831.161    2595.2368   -43426.398    110.95885 
   36950    214.47256      122.631     132224.1   -40825.448    2614.7451   -43440.193    111.15108 
   37000    214.39068    86.874898    132130.99    -40841.99    2613.7468   -43455.737    111.18241 
   37050    211.95041   -44.199474    132193.21   -40842.785    2583.9962   -43426.781     111.1282 
   37100    212.77296    140.48054    132426.51   -40874.935    2594.0243   -43468.959    111.45879 
   37150    207.93917   -101.49744    132325.16    -40865.14    2535.0931   -43400.233    111.78122 
   37200    211.33943   -39.701923    132253.63   -40917.095    2576.5474   -43493.642    111.78719 
   37250    213.03996    132.72106    132329.53   -40877.343    2597.2794   -43474.623    111.98775 
   37300    212.82235    49.476765    132425.72   -40908.039    2594.6265   -43502.666    112.03549 
[...]
  191000    212.07197   -62.323062    131366.75   -40745.663    2585.4781   -43331.141    542.05305 
  191050    211.13542    24.033931    131354.11   -40763.836    2574.0603   -43337.897    542.13788 
  191100    210.36407    216.64332    131384.34   -40769.024    2564.6563    -43333.68    542.62218 
  191150    212.38118    10.570298     131417.1   -40767.966     2589.248   -43357.214    542.58444 
  191200    210.12656    -119.8864    131506.15   -40775.239    2561.7607       -43337    542.25452 
  191250    214.84743   -98.938565    131522.21   -40701.721    2619.3152   -43321.036    542.25511 
  191300    212.90242    125.21416    131708.45   -40750.539    2595.6026   -43346.142    543.02018 
  191350    215.82669   -26.047456    131735.71   -40700.709    2631.2539   -43331.963    543.44302 
  191400    218.88351   -100.23236    131645.97   -40687.246    2668.5212   -43355.768    544.12121 
  191450    214.07118   -13.584355    131558.96   -40708.493    2609.8516   -43318.345    544.13229 
  191500     214.5279   -16.102535    131637.85   -40684.817    2615.4197   -43300.237    544.42726 
  191550    219.94327    136.28886    131665.14   -40627.925    2681.4413   -43309.366     544.0633 
  191600    217.20192    193.03779    131838.98   -40594.596    2648.0201   -43242.616    544.81167 
  191650    215.31893   -58.578425    131765.14   -40587.346    2625.0635    -43212.41    544.61437 
  191700    215.01731    -29.97531    131701.69   -40626.349    2621.3863   -43247.735    544.73217 
  191750      217.369   -112.72377    131685.26    -40649.54     2650.057   -43299.597    544.65735 
  191800    215.19367   -152.53302    131604.99   -40679.094    2623.5365   -43302.631    544.32904 
  191850    216.63657   -2.0159638    131569.16   -40654.056    2641.1276   -43295.184    544.62125 
  191900    211.85677    11.179733    131612.88   -40673.004    2582.8546   -43255.859    544.69905 
  191950    218.52687    77.759566    131726.47   -40676.962    2664.1732   -43341.135     545.5983 
  192000    218.45379    -79.55193    131764.34   -40640.116    2663.2822   -43303.398    546.29583 
  192050    212.88941    -177.1896    131682.89   -40601.772    2595.4441   -43197.217    546.23005 
  192100    218.88826    65.243943    131607.74   -40594.364    2668.5791   -43262.943    545.77775 
  192150    220.23112     22.44166    131725.84   -40560.338    2684.9506   -43245.289    546.01552 
  192200    214.82269    54.795275    131728.68   -40600.509    2619.0137   -43219.522    546.10455 
  192250    216.46792   -28.302043    131781.78   -40626.976    2639.0715   -43266.047    546.58749 
  192300     215.2283   -41.033456    131689.98   -40688.369    2623.9586   -43312.328    546.48341 
  192350    215.33142    -53.11689    131682.09   -40633.688    2625.2158   -43258.904    546.45786 
  192400    216.59349    129.26497    131545.15   -40635.844    2640.6023   -43276.446    546.60573 
  192450    217.92268    41.931923    131588.12   -40634.595    2656.8072   -43291.402    546.85211 
  192500    218.34593    111.03913    131719.89     -40585.9    2661.9673   -43247.867    547.16161 
  192550    218.32283    97.788727     131902.5   -40532.339    2661.6856   -43194.025    547.26192 
  192600    216.25534    105.42443    131904.07   -40582.044    2636.4799   -43218.524    546.96072 
  192650    215.17814   -95.093174    131899.97   -40589.157    2623.3471   -43212.504    547.41422 
  192700    214.42451   -66.627957    131864.69   -40585.752    2614.1592   -43199.911    547.25376 
  192750    215.18787   -130.01139    131721.91    -40583.72    2623.4658   -43207.185    547.44921 
  192800    217.11159    110.67463    131777.87   -40593.444    2646.9188   -43240.363    547.84978 
  192850     216.7137    55.569291    131880.16   -40602.052    2642.0679    -43244.12    548.66018 
  192900    218.68805   -13.613224    132022.47   -40597.346    2666.1382   -43263.484    549.30388 
  192950    216.62245   -130.07364    132029.26   -40612.176    2640.9554   -43253.131    549.20497 
  193000    221.27262   -36.835315    131979.43   -40550.779    2697.6481   -43248.427    549.50111 
  193050    220.06354   -120.32083    131807.45    -40570.49    2682.9076   -43253.397    548.84732 
  193100    220.88955    87.330351    131691.27   -40540.453    2692.9779   -43233.431    548.40899 
  193150    221.27209    123.49965    131825.63   -40581.035    2697.6416   -43278.676    548.93377 
  193200    216.14405    66.475088    131901.72   -40613.039    2635.1231   -43248.162    549.25805 
  193250    218.27243    -37.50389    131875.53   -40594.013    2661.0712   -43255.084    549.38252 
  193300    214.51993   -64.280043    131773.59   -40609.391    2615.3226   -43224.713    548.65107 
  193350    215.96044    27.106071    131695.78   -40620.809    2632.8845   -43253.693    548.80538 
  193400    216.25169    -65.05151    131799.12   -40640.568    2636.4354   -43277.003    548.95363 
  193450     212.3278   -12.126948    131776.12   -40675.361    2588.5972   -43263.959    549.32209 
  193500    215.20815    57.509458    131885.37    -40684.47    2623.7129   -43308.183     549.9311 
  193550    212.28506   -48.382616    131829.13   -40708.046    2588.0761   -43296.122    549.73979 
  193600    213.07547    26.495777     131777.1   -40697.441    2597.7124   -43295.153    549.85346 
  193650    217.84893   -66.572668    131748.98   -40664.669    2655.9081   -43320.577    549.69066 
  193700    212.56084     74.15188    131630.92   -40681.447    2591.4383   -43272.885    549.69678 
  193750    215.62335    38.111072       131622   -40675.635    2628.7749    -43304.41     549.4102 
  193800    216.95143    79.607882    131702.77   -40653.755    2644.9662   -43298.722     550.2932 
  193850    216.96499    116.94534    131802.07   -40637.848    2645.1315    -43282.98    550.99459 
  193900    217.13637    24.075055    131959.21   -40560.743    2647.2208   -43207.964    551.46996 
  193950    217.12533   -168.92403    131854.16    -40563.85    2647.0863   -43210.937    550.96011 
  194000    213.08949    130.28666    131770.87   -40603.296    2597.8833   -43201.179    551.47974 
  194050    215.53715   -132.46126    131680.18   -40572.926     2627.724    -43200.65    551.93461 
  194100    213.62855   -6.9623809    131522.04   -40593.061    2604.4552   -43197.516    552.05407 
  194150    209.36806    10.161211    131538.62   -40637.336    2552.5134    -43189.85    552.33275 
  194200     210.5141    19.335784    131503.83   -40623.379    2566.4854   -43189.865    552.66969 
  194250    211.31933    110.89395    131580.57   -40597.701    2576.3023   -43174.003    553.07179 
  194300    210.41297    200.69654    131645.37    -40631.61    2565.2525   -43196.863    553.77176 
  194350    213.14683    83.273329    131663.53   -40606.186    2598.5823   -43204.768    553.53015 
  194400     214.9557    20.914431    131876.25   -40615.169    2620.6353   -43235.804    554.10727 
  194450    213.99047   -137.76981    131983.85   -40583.955    2608.8677   -43192.822    555.08038 
  194500    217.41541    126.22001    131978.12   -40564.033    2650.6229   -43214.656    555.02295 
  194550    217.91309   -118.72768    131998.25   -40524.406    2656.6902   -43181.097    555.73106 
  194600    218.33387   -1.7630409    131981.32   -40547.982    2661.8202   -43209.803    555.83943 
  194650     217.0287    -36.24274    132004.28   -40572.659    2645.9082   -43218.567    556.50333 
  194700     217.1657   -81.795732    131976.14   -40568.796    2647.5785   -43216.375    556.95248 
  194750    217.90251    45.875345     131834.6   -40609.611    2656.5613   -43266.172     556.3153 
  194800    215.39854    -134.2369    131756.54   -40641.441    2626.0341   -43267.475    556.48405 
  194850    212.48991    37.586931    131643.38   -40644.001    2590.5736   -43234.575    556.36072 
  194900    218.09448    -30.50336    131662.44   -40628.059    2658.9017    -43286.96    556.34383 
  194950    216.71073   -128.96395     131728.8   -40666.534    2642.0318   -43308.566    556.83367 
  195000    212.01985    106.67902    131830.41   -40670.571    2584.8428   -43255.414    557.22111 
  195050    214.57572    -234.6476    131872.72   -40675.624    2616.0027   -43291.626    557.20249 
  195100    215.02687     45.23397    131855.16   -40702.281    2621.5029   -43323.784    557.05937 
  195150    218.00816   -69.943408    131920.14     -40698.3    2657.8494    -43356.15    557.38017 
  195200    217.29751   -86.210968    131895.06   -40705.791    2649.1854   -43354.976    557.21808 
  195250    216.75833   -189.24964    131678.39   -40729.384     2642.612   -43371.996    556.72277 
  195300    215.46432    174.65448       131613   -40743.927     2626.836   -43370.763    556.62407 
  195350    218.18367   -2.8654722    131803.59   -40704.421    2659.9891    -43364.41    556.67798 
  195400    212.07135    52.578088    131845.63   -40756.268    2585.4707   -43341.739    556.69583 
  195450    212.52833    54.670687    131863.94   -40739.864     2591.042   -43330.906    557.02397 
  195500    215.80413   -118.98117    131825.29   -40708.695    2630.9789   -43339.674    556.66908 
  195550    214.21813   -74.526332    131803.52   -40705.256    2611.6431   -43316.899    557.01223 
  195600    216.24523    104.79812    131721.29   -40683.813    2636.3565   -43320.169    557.06731 
  195650    213.96949    33.970604    131785.04   -40665.689    2608.6119   -43274.301    557.64141 
  195700     218.0452    86.806206    131972.26   -40693.413    2658.3009   -43351.714    558.33845 
  195750    220.73247    41.615402    132069.69   -40671.115    2691.0628   -43362.178    558.89098 
  195800     210.7559   -12.923944     132058.6   -40675.625    2569.4334   -43245.059    558.94547 
  195850    216.08598   -163.66796    131986.18   -40653.272    2634.4151   -43287.687    558.98649 
  195900    215.69065   -194.88819    131790.66   -40688.599    2629.5954   -43318.195    558.20252 
  195950    218.97168    121.09532    131831.23   -40660.732    2669.5961   -43330.328    558.41172 
  196000    217.28589    -58.22263    131850.17    -40649.91    2649.0437   -43298.954    558.47829 
  196050    217.76609    142.10801    131953.49   -40548.843    2654.8981   -43203.741     559.0053 
  196100    216.61019   -99.324191    131950.06   -40589.445    2640.8059   -43230.251    559.00267 
  196150    217.71777    99.856432    131927.96    -40595.85     2654.309   -43250.159    559.07218 
  196200    214.07755   -75.402283    131880.25   -40631.335    2609.9293   -43241.264    559.13278 
  196250    213.63691   -10.230361    131889.67   -40671.712    2604.5572   -43276.269    559.71744 
  196300    212.89795    59.530968    131872.75   -40664.314    2595.5481   -43259.862    559.43434 
  196350    210.94184  -0.78335201    131896.11   -40638.405    2571.7002   -43210.105    559.57803 
  196400    217.25335    7.5626914     131721.7     -40644.4     2648.647   -43293.047    558.68251 
  196450    211.53735    95.088838     131873.1    -40703.46    2578.9604    -43282.42     559.6053 
  196500    211.75432    12.485059    131909.25   -40689.483    2581.6056   -43271.088    560.09596 
  196550    212.75601   -97.714448    131784.62   -40680.576    2593.8177   -43274.394    559.49446 
  196600    212.38344   -53.024807    131627.92   -40663.792    2589.2755   -43253.068     558.9393 
  196650      215.285    49.892327    131764.66   -40678.224    2624.6499   -43302.874     560.1071 
  196700    215.30509     57.21275       131951   -40690.988    2624.8949   -43315.883      560.984 
  196750    211.41394    75.325822    131960.42   -40726.123    2577.4558   -43303.578    561.04015 
  196800    211.82168   -40.802947     131960.9   -40730.605    2582.4267   -43313.032    560.69202 
  196850    214.12138    -149.5587    131861.24   -40712.006    2610.4637    -43322.47    560.84783 
  196900    215.88094   -32.984339     131900.2   -40709.707    2631.9154   -43341.622    560.98027 
  196950    214.67407    112.99606    131877.33   -40641.211    2617.2018   -43258.412    561.41436 
  197000    213.91644    10.863358    131900.31   -40612.756    2607.9651   -43220.721    561.59095 
  197050    213.86645    5.6986583    131862.87   -40612.038    2607.3556   -43219.394     561.4428 
  197100    219.53599   -32.260396    131839.81   -40584.117    2676.4759   -43260.593    561.98863 
  197150    216.20855   -10.770193     131731.6    -40601.18    2635.9094   -43237.089    561.83944 
  197200    216.55478    62.357822    131732.92   -40573.372    2640.1305   -43213.502    562.07622 
  197250    218.12339  -0.48352031    131588.22   -40599.782    2659.2542   -43259.036    561.81233 
  197300    214.65704    43.837799    131631.78   -40633.185    2616.9942   -43250.179    561.45161 
  197350    214.51363   -46.702762    131595.24   -40610.545    2615.2457   -43225.791    561.87867 
  197400       220.97   -40.602903    131755.43    -40530.98    2693.9587   -43224.938    562.43926 
  197450    219.52264    2.8879963    131752.27   -40480.866    2676.3132    -43157.18    563.04066 
  197500    222.44034    -64.94556    131798.79     -40520.8    2711.8843   -43232.685    562.86151 
  197550    217.28114     81.73598    131692.81   -40561.493    2648.9859   -43210.479    562.47051 
  197600    222.26259    220.74602     131816.5   -40547.838    2709.7173   -43257.555    562.81641 
  197650    216.42883   -8.9476736    131806.69   -40604.703    2638.5949   -43243.298    563.41842 
  197700    221.88473   -172.51441    131787.48   -40599.665    2705.1106   -43304.776    563.38993 
  197750    215.46912    25.877918    131617.53   -40627.782    2626.8945   -43254.676    563.46814 
  197800    214.96135   -35.185665    131637.45     -40632.9    2620.7042   -43253.604    563.93367 
  197850    217.55836   -140.78267    131516.29   -40586.006    2652.3656   -43238.372    563.58862 
  197900    213.35954    7.5476395    131507.12   -40600.182    2601.1756   -43201.357    563.94794 
  197950    213.92077    87.520745    131727.54    -40642.91    2608.0178   -43250.928    564.77805 
  198000    216.60401    134.21855    131861.47   -40631.666    2640.7307   -43272.397    565.02817 
  198050    214.79426    6.9510425    131898.95   -40592.704    2618.6671   -43211.371    564.85789 
  198100    214.58866   -67.369069    131906.38     -40577.7    2616.1604    -43193.86    565.08005 
  198150    215.25069    238.38156    131930.54   -40617.595    2624.2316   -43241.827    565.36893 
  198200     214.2701   -24.436133    131933.69   -40658.262    2612.2767   -43270.539    565.33757 
  198250    214.52381    36.827724    131933.75   -40649.894    2615.3698   -43265.263     565.8043 
  198300    214.26401   -78.684573    131797.47   -40681.526    2612.2025   -43293.729    565.42147 
  198350    210.84737    56.223228    131541.82   -40674.213    2570.5485   -43244.761    564.32669 
  198400    218.00375    126.91261    131638.18   -40658.847    2657.7956   -43316.642     564.9528 
  198450      213.273    34.139704    131636.91   -40689.662    2600.1206   -43289.783    565.74703 
  198500    212.39345    10.420199    131714.26   -40694.502    2589.3975   -43283.899    566.05859 
  198550    216.85163   -10.694996     131905.5   -40680.169    2643.7495   -43323.918    566.89806 
  198600    219.82118    75.205178    131985.41   -40682.625    2679.9528   -43362.578    566.63661 
  198650    215.30013   -113.77111    132077.31   -40648.625    2624.8344   -43273.459    566.97192 
  198700    216.79593     93.34048    131908.01   -40642.978    2643.0704   -43286.048    566.80763 
  198750    216.68841    27.421322    131926.08   -40660.517    2641.7596   -43302.277     566.9217 
  198800    215.64103    -2.490497     131886.6   -40622.076    2628.9905   -43251.067    566.95139 
  198850     215.3423    -87.21575    131802.02   -40689.842    2625.3485    -43315.19    566.46508 
  198900    215.34823   -99.957982     131783.1   -40613.801    2625.4207   -43239.222    566.55648 
  198950    217.60772  -0.28444442    131679.86    -40623.93    2652.9673   -43276.897    566.50218 
  199000    217.81401   -34.711078    131720.63    -40600.77    2655.4824   -43256.252      566.742 
  199050    215.74675    71.355157    131730.71   -40629.166    2630.2794   -43259.445    567.04179 
  199100    212.61537    117.86695    131860.14   -40650.289    2592.1031   -43242.392    567.11882 
  199150    212.68939    6.2217752    131932.23   -40681.093    2593.0054   -43274.098    567.40691 
  199200    217.28119    97.475099    131928.52   -40635.417    2648.9865   -43284.403    567.42971 
  199250    218.02091    151.26777    132047.83   -40583.794    2658.0048   -43241.799    567.92109 
  199300    218.75732    107.16596    132245.28   -40584.893    2666.9827   -43251.876    568.54569 
  199350    217.64648   -3.5811274    132165.17   -40624.833      2653.44   -43278.273    568.71848 
  199400    216.98262   -182.55872    132053.66   -40620.931    2645.3465   -43266.277    568.36104 
  199450    212.55021   -64.982793    131938.95    -40684.99    2591.3087   -43276.299    568.53558 
  199500    214.13177   -3.1860663    131899.74     -40679.1    2610.5903    -43289.69    568.51354 
  199550    215.79184   -43.538738       131945   -40653.826     2630.829   -43284.655    568.19928 
  199600     216.1541   -8.8410667    131797.42   -40659.964    2635.2455    -43295.21    567.76984 
  199650    216.19369    42.160627    131992.89   -40620.847    2635.7282   -43256.575     568.4632 
  199700    214.01933    9.6855977    132076.27   -40608.104    2609.2195   -43217.323    568.64301 
  199750    220.71458   -33.135357    132075.28   -40577.337    2690.8447   -43268.182    568.97038 
  199800     215.7713   -152.28007     131938.5   -40579.234    2630.5786   -43209.813    568.75524 
  199850    220.18096    92.639647    131956.54   -40556.841     2684.339    -43241.18    569.17325 
  199900    214.48264   -163.79509     131994.9   -40572.719    2614.8679   -43187.587     569.1621 
  199950    214.26925    30.477307    131872.56   -40573.138    2612.2664   -43185.405    568.85716 
  200000     216.2308    156.35249     131880.7   -40515.122    2636.1807   -43151.302    569.46103 
Loop time of 333.122 on 12 procs for 200000 steps with 4091 atoms

Performance: 259.364 ns/day, 0.093 hours/ns, 600.380 timesteps/s
99.5% CPU use with 12 MPI tasks x no OpenMP threads

MPI task timing breakdown:
Section |  min time  |  avg time  |  max time  |%varavg| %total
---------------------------------------------------------------
Pair    | 236.93     | 275.41     | 299.72     | 157.8 | 82.68
Neigh   | 6.1217     | 7.0338     | 7.6171     |  22.2 |  2.11
Comm    | 19.435     | 44.038     | 83.217     | 400.9 | 13.22
Output  | 0.14906    | 0.17311    | 0.4206     |  17.9 |  0.05
Modify  | 4.9407     | 5.121      | 5.3713     |   5.9 |  1.54
Other   |            | 1.343      |            |       |  0.40

Nlocal:    340.917 ave 368 max 297 min
Histogram: 3 1 0 0 0 0 0 1 3 4
Nghost:    962.667 ave 996 max 919 min
Histogram: 2 2 0 0 0 0 0 5 1 2
Neighs:    0 ave 0 max 0 min
Histogram: 12 0 0 0 0 0 0 0 0 0
FullNghs:  11126.2 ave 12005 max 9491 min
Histogram: 3 0 1 0 0 0 0 0 1 7

Total # of neighbors = 133514
Ave neighs/atom = 32.636
Neighbor list builds = 11808
Dangerous builds = 0

write_data		${DIR}/data.eq-${NAME}-${TEMP}
write_data		run_7/data.eq-${NAME}-${TEMP}
write_data		run_7/data.eq-hardcavity_freeze_7-${TEMP}
write_data		run_7/data.eq-hardcavity_freeze_7-215
undump          1

reset_timestep  0

unfix           2
unfix           3
unfix           4


################################################
#######         Run Simulation         #########
################################################

log				${DIR}/log.run_${NAME}
log				run_7/log.run_${NAME}
log				run_7/log.run_hardcavity_freeze_7
