
# Set production fixes - Nose/Hoover
#
fix                 4 water temp/csvr ${START_TEMP} ${END_TEMP} 500.0 928347
fix                 4 water temp/csvr 235 ${END_TEMP} 500.0 928347
fix                 4 water temp/csvr 235 225 500.0 928347


## divide "droplet" into core and surface
#region		core_reg cylinder z 135 135 44.6 20 INF units box
#region		surface_reg cylinder z 135 135 44.6 20 INF units box side out
#group		core dynamic all region core_reg
#group		surface dynamic all region surface_reg

## compute pressure core
#compute        peratom_core core stress/atom NULL
#compute        p_core core reduce sum c_peratom_core[1] c_peratom_core[2] c_peratom_core[3]
#variable       press_core equal -(c_p_core[1]+c_p_core[2]+c_p_core[3])/(3*1249982.5)


## compute pressure surface
#compute        peratom_surf surface stress/atom NULL
#compute        p_surf surface reduce sum c_peratom_surf[1] c_peratom_surf[2] #c_peratom_surf[3]
#variable       press_surf equal -(c_p_surf[1]+c_p_surf[2]+c_p_surf[3])/(3*42395)

## compute total pressure of drop
compute        peratom water stress/atom NULL
compute        p water reduce sum c_peratom[1] c_peratom[2] c_peratom[3]
variable       press equal -(c_p[1]+c_p[2]+c_p[3])/(3*58187)


# compute order parameter
compute        3 all orientorder/atom nnn NULL cutoff 3.5

# compute center of mass of bridge
compute 	4 water com

# Run simulation
thermo_style        custom step c_2 press vol etotal ke pe v_press c_1[4] c_4[*]
thermo              200
dump		     1 water custom 400 ${DIR}/prod.${NAME}.dump id type x y z vx vy vz c_3[*] c_peratom[*]
dump		     1 water custom 400 run_19/prod.${NAME}.dump id type x y z vx vy vz c_3[*] c_peratom[*]
dump		     1 water custom 400 run_19/prod.ibeam_cooling_19.dump id type x y z vx vy vz c_3[*] c_peratom[*]
run                 ${STEPS}
run                 4000000
Neighbor list info ...
  update every 1 steps, delay 0 steps, check yes
  max neighbors/atom: 2000, page size: 100000
  master list distance cutoff = 6.67472
  ghost atom cutoff = 6.67472
  binsize = 3.33736, bins = 24 22 12
  2 neighbor lists, perpetual/occasional/extra = 1 1 0
  (1) pair sw, perpetual
      attributes: full, newton on
      pair build: full/bin/atomonly
      stencil: full/bin/3d
      bin: standard
  (2) compute orientorder/atom, occasional, copy from (1)
      attributes: full, newton on
      pair build: copy
      stencil: none
      bin: none
Per MPI rank memory allocation (min/avg/max) = 0.8661 | 6.205 | 7.207 Mbytes
Step c_2 Press Volume TotEng KinEng PotEng v_press c_1[4] c_4[1] c_4[2] c_4[3] 
       0    233.66508   -279.54763       229892   -22676.245    1661.1793   -24337.424   -517.99292     28.57714    39.440306    35.567292    26.707204 
     200    236.80727   -376.58976       229892   -22698.972    1683.5178    -24382.49   -908.58265    28.742548    39.440279    35.566601    26.708277 
     400    229.57559    -375.0234       229892   -22667.405    1632.1061   -24299.511    -911.1028    30.049899    39.439187    35.565775    26.705261 
     600    238.47908   -355.89692       229892   -22559.438    1695.4031   -24254.841   -844.61328    31.498475     39.44117    35.565802     26.69953 
     800    238.88639   -470.93434       229892   -22575.068    1698.2987   -24273.366   -1253.8499    32.426835    39.441755    35.566812     26.67246 
    1000    234.37969   -269.84018       229892   -22640.616    1666.2596   -24306.876   -529.20398    33.002209    39.441505    35.570961    26.681868 
    1200    234.17925   -339.09155       229892   -22576.421    1664.8346   -24241.255   -748.57733    33.947745    39.441467     35.57227    26.649307 
    1400    238.82875   -412.92712       229892   -22563.442     1697.889   -24261.331   -1075.5901    34.531827    39.442284    35.572455    26.675323 
    1600    233.35652   -90.210272       229892    -22563.24    1658.9857   -24222.226    201.33506    35.931154    39.443041    35.572721    26.680909 
    1800    240.38182   -335.09802       229892   -22500.721    1708.9301   -24209.651   -767.97713    37.447719    39.443981    35.571213    26.696833 
    2000    240.42458   -376.09633       229892   -22447.068    1709.2341   -24156.302   -925.67241    39.170399    39.443982    35.570416    26.689551 
    2200     237.1241   -276.11058       229892    -22534.06    1685.7702    -24219.83    -553.4594    40.556558     39.44368    35.570523    26.691451 
    2400    239.19798   -436.32033       229892   -22520.618     1700.514   -24221.132   -1173.1834    41.671898    39.444566    35.569917     26.71257 
    2600     228.4786   -292.78363       229892   -22553.503    1624.3074   -24177.811   -597.47634    42.964587    39.444001    35.573327     26.71596 
    2800    235.75046    -370.4829       229892   -22478.784    1676.0047   -24154.789   -894.62176    44.547502    39.443666    35.575858    26.714142 
    3000    237.44056   -237.88642       229892    -22509.52      1688.02    -24197.54   -392.20284    45.279009    39.445632    35.573859    26.707903 
    3200    235.89548   -413.51023       229892   -22594.748    1677.0357   -24271.784   -1042.2277    46.194103    39.445994    35.572085    26.690071 
    3400    236.01474   -418.04245       229892   -22595.914    1677.8836   -24273.798   -1104.8117    47.555456    39.446436     35.57255    26.678171 
    3600    240.08508   -312.84004       229892   -22539.358    1706.8205   -24246.178   -697.56034    48.722865    39.446527    35.572481    26.659308 
    3800    236.76976    -178.1523       229892   -22517.358    1683.2511   -24200.609   -147.27488    50.116766    39.447318     35.57385    26.673506 
    4000    237.07829   -409.57824       229892   -22570.363    1685.4446   -24255.808   -1046.4787    51.680501    39.447155    35.574885    26.679556 
    4200    236.68901   -317.62518       229892   -22508.955    1682.6771   -24191.632   -702.17315    54.337183    39.447057    35.576019    26.692577 
    4400    237.03925   -365.78986       229892   -22551.111     1685.167   -24236.278   -901.04906    54.924657    39.446052    35.576463    26.692323 
    4600    234.79988    -290.9397       229892   -22632.942    1669.2468   -24302.188   -574.27355    55.336554    39.446069    35.578288    26.692664 
    4800    234.42723   -162.96034       229892   -22511.336    1666.5976   -24177.934   -102.66946     55.47754    39.443281    35.579746    26.685717 
    5000     232.6018   -265.79838       229892   -22540.305    1653.6202   -24193.925   -430.16965    56.850895    39.441995    35.579926    26.688643 
    5200    232.90506   -205.77952       229892   -22538.805    1655.7761   -24194.581   -276.17514    59.425775       39.443    35.580422    26.674522 
    5400    228.08785   -286.24037       229892   -22554.205    1621.5294   -24175.735   -549.99544     61.93749    39.442367     35.57901    26.672173 
    5600    233.02665   -396.26994       229892    -22543.62    1656.6405    -24200.26   -1021.9291    63.981949    39.441791    35.579969    26.652103 
    5800    240.31556   -392.66987       229892   -22511.939    1708.4591   -24220.398   -957.33763    64.868772    39.440667    35.580574    26.642048 
    6000    239.31697    -313.9314       229892   -22569.406    1701.3598   -24270.766   -659.74923    66.682286    39.440284    35.581604    26.634514 
    6200    229.97606   -356.91548       229892   -22593.184    1634.9532   -24228.137   -846.65294    68.083857     39.44155    35.581736    26.628131 
    6400    228.62424   -323.47004       229892   -22564.103    1625.3428   -24189.446   -716.69593    69.093352    39.443277    35.585191    26.634766 
    6600    233.82423   -219.72594       229892     -22584.1    1662.3107   -24246.411   -294.00536    69.914931    39.442588    35.585282    26.657318 
    6800    235.03392    -323.9012       229892   -22576.634    1670.9106   -24247.545   -731.98914    71.880295    39.442707    35.585556    26.649387 
    7000    229.92531   -277.30665       229892   -22520.505    1634.5924   -24155.098   -512.27959    73.191657    39.443608      35.5867    26.658839 
    7200    229.26061   -331.29744       229892   -22622.991    1629.8669   -24252.858   -742.60425    74.655005    39.442671    35.588855    26.665794 
    7400    232.99567   -424.04157       229892   -22584.586    1656.4203   -24241.006   -1131.3255    75.762737     39.44189    35.587946    26.666584 
    7600    246.30923   -507.64644       229892    -22539.43    1751.0694   -24290.499   -1425.9045    76.468827    39.443312    35.589983    26.656183 
    7800    227.85498   -338.36374       229892   -22660.946    1619.8739    -24280.82    -803.2239    77.593139    39.442974    35.588489    26.650275 
    8000    241.59144   -388.36049       229892   -22526.478    1717.5296   -24244.008   -992.44992    78.951938    39.444271    35.585819    26.634959 
    8200     236.0065   -386.75565       229892   -22514.929     1677.825   -24192.754   -954.38778    80.857064    39.444138     35.58517    26.615005 
    8400    237.48619   -372.70688       229892   -22488.435    1688.3444    -24176.78   -913.09301    81.368608    39.444525    35.584412    26.583393 
    8600    233.86413   -265.42656       229892   -22564.264    1662.5943   -24226.858   -475.39136     82.46984    39.444331    35.580392    26.588836 
    8800    228.89834   -505.57501       229892   -22561.182    1627.2914   -24188.474   -1422.5493    84.851614    39.444569    35.579835    26.574823 
    9000     236.9209   -412.00119       229892   -22554.223    1684.3256   -24238.549   -1045.2808    85.727612    39.445727    35.577574    26.591306 
    9200    236.00298   -296.17364       229892   -22510.792       1677.8   -24188.592   -619.36819    86.512399    39.446476    35.577597    26.606776 
    9400    235.49083   -324.51413       229892   -22535.537     1674.159   -24209.696   -721.57703    87.636789    39.450762    35.574694     26.59774 
    9600     237.2269   -352.46264       229892   -22594.113    1686.5011   -24280.614   -875.52543    88.907763     39.44983    35.574775    26.608923 
    9800    234.21639   -338.55689       229892   -22525.196    1665.0987   -24190.294   -776.35379    89.769573    39.447897    35.574598    26.604896 
   10000    234.62831   -392.36673       229892   -22560.022    1668.0271   -24228.049   -950.54174     91.47739     39.44559    35.571368    26.608929 
   10200    237.70276   -519.77181       229892    -22493.86    1689.8841   -24183.744   -1501.6738    93.024705    39.445363    35.567865    26.589381 
   10400    238.38611   -280.47082       229892   -22509.369    1694.7422   -24204.111   -576.20464    93.666359     39.44504    35.564091    26.597356 
   10600    233.06616   -425.18957       229892   -22590.807    1656.9214   -24247.729   -1132.2188    94.797582    39.443326     35.56159    26.612982 
   10800     232.1201    -432.9383       229892   -22633.339    1650.1957   -24283.535   -1195.9868    96.692915    39.443528    35.559426    26.595966 
   11000    230.91807   -366.41425       229892   -22675.038    1641.6501   -24316.688   -863.61142    98.041582    39.442898    35.560111    26.589617 
   11200    235.06538    -260.9834       229892   -22639.304    1671.1343   -24310.438   -503.76227    98.576528    39.441751    35.559863    26.569162 
   11400    232.72094   -439.16881       229892   -22603.082    1654.4671   -24257.549   -1197.5223    100.02803    39.440873    35.558555    26.574171 
   11600    235.13997   -517.68724       229892   -22553.607    1671.6646   -24225.272   -1469.7619    100.50602    39.440994    35.559511    26.560394 
   11800    232.22008   -332.80195       229892   -22542.957    1650.9064   -24193.863   -781.54286    101.19651    39.441319     35.55972    26.575908 
   12000    237.22363   -270.21853       229892   -22523.338    1686.4778   -24209.815   -487.80651    103.64546    39.440873    35.559139    26.559644 
   12200    234.81609   -305.79568       229892   -22532.499    1669.3621   -24201.861   -633.95585    102.92486    39.441149    35.557885    26.560095 
   12400     237.5915   -416.32429       229892   -22545.138    1689.0931   -24234.231   -1053.4005    104.11106    39.439871    35.559163    26.547488 
   12600    237.42782   -272.55712       229892     -22473.9    1687.9295    -24161.83   -551.65751    104.01677    39.438378    35.558372     26.54819 
   12800    236.38227   -336.41213       229892    -22542.05    1680.4964   -24222.547   -798.85631    105.61355    39.438128    35.558217    26.549388 
   13000    230.55351   -279.49048       229892   -22576.744    1639.0584   -24215.803   -578.30693    106.32235    39.436942    35.558508     26.55612 
   13200     233.8877   -249.88581       229892   -22645.588    1662.7619    -24308.35   -424.36494    108.30825    39.438882    35.556087    26.559894 
   13400    231.05196    -331.4987       229892   -22718.868     1642.602    -24361.47    -736.6818    109.11629    39.439852    35.555959    26.572944 
   13600    232.40625   -443.09511       229892   -22694.894    1652.2299   -24347.124   -1170.7702    109.65942    39.439878    35.557488    26.570323 
   13800    229.70646   -449.95641       229892   -22625.895    1633.0365   -24258.931   -1238.0083    110.23498    39.442585    35.556819    26.602462 
   14000    240.44617     -344.242       229892    -22528.74    1709.3876   -24238.127   -809.30934    110.56949    39.444172    35.556048    26.612883 
   14200    228.61831   -375.22087       229892   -22588.294    1625.3006   -24213.594   -935.53955    110.52144    39.445754     35.55619    26.611729 
   14400    230.70684    -201.8123       229892   -22621.963    1640.1484   -24262.111   -257.00461    111.32357    39.445324    35.557049    26.609552 
   14600    230.85757   -321.68816       229892   -22594.183      1641.22   -24235.403   -690.74383    112.41907    39.443835    35.556035    26.598591 
   14800    236.61328   -457.07438       229892   -22535.258    1682.1387   -24217.397   -1242.1932    112.17392    39.445534    35.554729    26.614137 
   15000    232.05935   -470.04987       229892   -22604.361    1649.7637   -24254.124    -1319.201    113.44013    39.448426     35.55266    26.623717 
   15200    233.73321   -430.01319       229892   -22604.292    1661.6636   -24265.956   -1113.5621    114.90498    39.448249     35.55309    26.629149 
   15400    229.82974   -449.75167       229892   -22644.024    1633.9129   -24277.937   -1193.2768    115.63293      39.4495    35.553004    26.628406 
   15600    238.82723   -298.67384       229892   -22516.072    1697.8782   -24213.951   -623.20666    116.64004      39.4506    35.550728    26.624716 
   15800    234.11271   -300.54512       229892   -22508.636    1664.3616   -24172.998   -630.92936    116.97179    39.449716    35.550727    26.624958 
   16000    233.65478   -278.44889       229892    -22532.49     1661.106   -24193.596   -567.38576    116.54195    39.447685    35.552176    26.618433 
   16200    235.38938   -291.49618       229892   -22506.761    1673.4377   -24180.199   -540.32819    117.82049    39.447502    35.552675    26.624738 
   16400    233.99446   -286.67283       229892   -22532.791    1663.5209   -24196.311   -581.22391    119.38844    39.447585    35.551324     26.62376 
   16600    241.01432   -577.24686       229892   -22460.311    1713.4267   -24173.738   -1692.4186    120.30224    39.447329    35.551959    26.627111 
   16800    234.09985   -436.23388       229892   -22511.001    1664.2702   -24175.272   -1156.0577    120.39481    39.446026    35.553663    26.634641 
   17000     230.8579   -317.61726       229892   -22581.121    1641.2224   -24222.343   -689.13233    121.90833    39.444036    35.552551    26.674294 
   17200    234.55424   -336.23214       229892   -22584.376    1667.5005   -24251.877   -750.03978    123.59334    39.441847    35.551379    26.663408 
   17400    228.56903   -359.70378       229892   -22672.748    1624.9503   -24297.699   -843.28855    125.18224    39.439484     35.55232    26.668159 
   17600    234.74335   -431.40883       229892   -22577.237    1668.8449   -24246.082   -1148.5698    126.19068    39.440495    35.549987    26.670887 
   17800    235.62984   -260.19954       229892   -22594.217    1675.1472   -24269.364   -469.37071    127.10002    39.441743    35.548332    26.681066 
   18000    240.47235   -377.58542       229892   -22560.046    1709.5737   -24269.619    -926.8454    128.47253    39.442891    35.545467    26.692672 
   18200     234.2479   -426.10794       229892   -22594.809    1665.3227   -24260.132   -1160.1846    131.08143    39.442629    35.545908     26.70224 
   18400    232.02183   -418.59559       229892   -22602.685     1649.497   -24252.182   -1041.9389    130.99695    39.440217    35.544541    26.700627 
   18600    238.40924   -408.10587       229892   -22585.732    1694.9066   -24280.638   -1044.6531    131.57234    39.438731    35.543885    26.683601 
   18800    228.91897   -415.96503       229892    -22636.02     1627.438   -24263.458   -1095.2681    132.52817    39.437039     35.54432    26.692136 
   19000    238.09088   -178.78993       229892   -22570.646    1692.6433   -24263.289   -143.42281    132.77351    39.438137    35.543073    26.699385 
   19200    235.22046   -567.28435       229892   -22575.649    1672.2368   -24247.886   -1686.7455    134.35508    39.438212    35.543718    26.690324 
   19400    233.54262   -437.53892       229892   -22491.206    1660.3087   -24151.515   -1176.4592    135.32694      39.4368    35.543381    26.683034 
   19600    233.79806   -463.31255       229892   -22520.323    1662.1247   -24182.448   -1303.9794    136.46788    39.435858    35.543218    26.679113 
   19800    234.49664   -438.40927       229892   -22500.252     1667.091   -24167.343   -1192.9644    137.24963    39.435267     35.54162    26.686717 
   20000    236.81889   -354.97455       229892    -22512.27    1683.6004   -24195.871   -816.92323    138.75068    39.433794    35.541503     26.68015 
   20200    232.83087   -213.11813       229892   -22621.504    1655.2486   -24276.753   -321.11675    140.83457    39.434159     35.54067    26.665489 
   20400    236.72256   -327.38673       229892   -22537.644    1682.9156   -24220.559   -739.82913    142.59074    39.433014    35.539489     26.66344 
   20600    233.17705   -234.45213       229892   -22620.587    1657.7097   -24278.296   -396.48127    142.27419    39.432556    35.539565    26.654362 
   20800    241.33117   -361.56595       229892     -22540.7    1715.6793   -24256.379   -876.11903    142.29719     39.43301    35.541243    26.657829 
   21000    232.17952   -418.77866       229892   -22568.504    1650.6181   -24219.122   -1120.1541    143.73198    39.432863    35.539789     26.65832 
   21200    230.59638   -302.26085       229892   -22551.647    1639.3631   -24191.011   -637.33485    144.17522    39.432183    35.539058    26.662665 
   21400    231.94536   -374.77503       229892   -22531.446    1648.9533   -24180.399   -962.59747    144.26414    39.432369    35.537988    26.665011 
   21600    240.58281   -270.81138       229892   -22455.347     1710.359   -24165.706   -537.56626     145.8427    39.429635    35.536259     26.66457 
   21800    230.66465   -402.68997       229892   -22593.225    1639.8485   -24233.073   -1019.9979    146.43133    39.429413    35.536484    26.689801 
   22000    225.36976    -366.8995       229892   -22642.694    1602.2059     -24244.9   -885.81693    147.99961     39.43063    35.537864    26.676652 
   22200    234.67238   -202.05517       229892    -22677.96    1668.3404   -24346.301   -253.57346    148.07119    39.432841    35.537673    26.659638 
   22400    231.30965   -290.17263       229892   -22511.419    1644.4339   -24155.853   -581.96904    150.72672    39.433818    35.535988    26.656305 
   22600    234.71334    -219.0679       229892   -22624.185    1668.6316   -24292.817   -342.01127    153.03871    39.436764    35.534096    26.642083 
   22800    240.61585   -331.28072       229892   -22591.787    1710.5939   -24302.381   -808.26626    153.58633    39.433736    35.533763    26.630728 
   23000    234.41215    -414.3368       229892   -22637.156    1666.4904   -24303.647   -1068.1236    154.71644    39.433113    35.534118    26.612604 
   23200    237.67608   -464.15775       229892   -22598.312    1689.6944   -24288.007   -1231.5734    155.08955    39.432661    35.534711    26.634261 
   23400    234.41427   -319.72473       229892   -22576.157    1666.5054   -24242.663    -760.4076    156.56604    39.431825    35.534261    26.621285 
   23600    242.02786   -535.97159       229892    -22538.25    1720.6322   -24258.882   -1567.3432    158.24531    39.430234      35.5337    26.640987 
   23800    244.32017   -264.98728       229892   -22544.504    1736.9288   -24281.433   -530.07675    159.60512    39.428029    35.534472    26.635587 
   24000    236.40449   -367.52801       229892   -22566.706    1680.6543    -24247.36   -944.95835    159.72338    39.426518    35.538088    26.643326 
   24200    234.16299   -346.81576       229892   -22556.339     1664.719   -24221.058   -837.99676    161.29861    39.427014    35.537177    26.643523 
   24400    234.75343   -359.11383       229892   -22592.794    1668.9166   -24261.711     -848.406    161.46651    39.428371    35.537005    26.636193 
   24600    232.54234    -354.3051       229892   -22610.064    1653.1975   -24263.261   -847.19703    161.53246    39.431278    35.536588    26.623851 
   24800      234.848   -464.44257       229892   -22599.014    1669.5889   -24268.603   -1302.2233    163.39038    39.430603     35.53759    26.618152 
   25000     238.5397    -408.0514       229892   -22614.308     1695.834   -24310.142   -1019.7842    163.84199     39.43287    35.539152    26.597596 
   25200      227.956   -308.11643       229892    -22740.77    1620.5921   -24361.362   -684.87615    165.27553    39.431113    35.540023    26.575245 
   25400    230.60426   -211.55777       229892    -22608.47    1639.4192   -24247.889   -306.70071    166.60741    39.430356    35.539671    26.569969 
   25600    239.11443   -283.10004       229892   -22465.173    1699.9199   -24165.093   -572.75087    168.84227    39.430987    35.540452    26.537323 
   25800    240.43991   -284.27188       229892   -22497.692    1709.3431   -24207.035   -576.16009    170.33088    39.432366    35.541077    26.530676 
   26000    237.83403   -456.22579       229892   -22545.488    1690.8173   -24236.305   -1264.9611    174.26156    39.432937    35.540913    26.552936 
   26200    231.03464   -314.47675       229892   -22524.166    1642.4789   -24166.645   -697.00583    175.05434    39.430281    35.540739    26.567599 
   26400    234.83906   -388.32505       229892   -22595.553    1669.5254   -24265.079   -975.66492     175.6029    39.429487     35.54414    26.591684 
   26600    235.46251   -268.66386       229892   -22510.039    1673.9576   -24183.997   -552.12477    176.95632    39.431196    35.547151    26.593634 
   26800    236.56576   -471.76217       229892   -22512.639    1681.8009    -24194.44   -1256.5905    178.02963    39.432662     35.54901    26.595104 
   27000    239.19687   -447.78862       229892   -22456.265     1700.506   -24156.771   -1224.3324      178.332    39.434107    35.548852     26.59038 
   27200    240.46355   -466.71814       229892   -22502.718    1709.5111   -24212.229   -1265.8794    180.22961    39.435451    35.552336    26.600437 
   27400    244.72433   -384.48921       229892    -22431.88     1739.802   -24171.682   -967.17242    181.29867    39.436793    35.552211    26.591532 
   27600    231.37512    -454.8916       229892   -22570.029    1644.8994   -24214.928   -1281.4641    182.41842    39.438501    35.550829    26.591404 
   27800    237.19694   -311.42519       229892   -22452.685     1686.288   -24138.974   -684.05683    183.03223    39.438709     35.55064    26.588129 
   28000    232.72269    -233.5785       229892   -22540.523    1654.4796   -24195.003   -399.59937    183.75111    39.439382    35.553273    26.582337 
   28200    237.03013   -218.95514       229892   -22479.318    1685.1022    -24164.42   -328.18018    184.40902    39.437901    35.553618     26.56796 
   28400     229.4963   -249.24133       229892   -22490.801    1631.5425   -24122.344   -436.04161    185.71619    39.436346    35.552505    26.552553 
   28600    235.77513   -286.47668       229892   -22522.366    1676.1801   -24198.546   -602.09897    186.58907    39.436681    35.552233    26.543356 
   28800    232.29489   -371.44594       229892   -22542.238    1651.4383   -24193.676   -950.69846    188.21844    39.434542    35.550584    26.513851 
   29000    233.36807   -354.91325       229892   -22523.292    1659.0677    -24182.36   -884.15106    188.67274    39.432005    35.548314    26.506688 
   29200    238.99339   -276.88896       229892   -22476.155    1699.0595   -24175.215   -560.04521    188.96196    39.431668    35.547177    26.488251 
   29400    236.21659   -253.96998       229892   -22464.021    1679.3185   -24143.339   -485.41468    191.15333    39.433439    35.546906    26.464874 
   29600    237.46479   -250.16518       229892   -22443.721    1688.1923   -24131.913   -451.73608    193.33644    39.433352    35.545657    26.462624 
   29800     233.4828   -251.68793       229892   -22545.453    1659.8834   -24205.336   -477.77129     196.7644    39.434127    35.545908     26.46869 
   30000    229.81389   -500.17822       229892   -22600.881    1633.8002   -24234.681   -1429.2396    197.74554    39.436803    35.545158    26.471412 
   30200     236.8172   -256.72341       229892   -22543.317    1683.5884   -24226.906   -461.51271    197.92016    39.437099    35.544116    26.485992 
   30400    231.49595   -341.79017       229892   -22563.665    1645.7584   -24209.423   -819.32203    197.07795     39.43627    35.543904    26.489694 
   30600    229.83942   -382.29228       229892   -22640.103    1633.9818   -24274.084   -978.27861    197.81341    39.437676    35.544625    26.472313 
   30800    231.85467   -333.36753       229892    -22599.47    1648.3086   -24247.779   -727.97067    197.42988    39.436674    35.545835    26.476209 
   31000    232.90967   -251.76645       229892    -22592.52    1655.8089   -24248.329   -486.05115    197.88451    39.436734    35.546355    26.486704 
   31200    230.48861   -366.61254       229892   -22564.842     1638.597   -24203.439   -935.18033    198.40444     39.43825     35.54569    26.485206 
   31400    236.87012   -273.53801       229892   -22527.513    1683.9647   -24211.478   -516.89083    200.49433    39.439197    35.545856    26.472379 
   31600    231.19284   -347.25598       229892   -22556.174    1643.6035   -24199.777   -841.01153     199.8649    39.438624    35.546069    26.456529 
   31800    238.52081   -334.12778       229892   -22496.618    1695.6998   -24192.317   -804.27656    200.47255    39.439541    35.547257    26.445567 
   32000    235.55406   -228.03484       229892   -22610.864    1674.6084   -24285.473   -383.63529    201.45024     39.44116    35.546872    26.457256 
   32200    231.78122   -396.36114       229892   -22628.454    1647.7864   -24276.241   -1072.2448    203.02311    39.439898    35.542857    26.453695 
   32400    234.69744   -449.41219       229892   -22632.929    1668.5185   -24301.447   -1239.3734    204.13208    39.438937     35.54119      26.4407 
   32600    235.21244   -425.05933       229892   -22554.911    1672.1798   -24227.091   -1110.1729    204.85298    39.439523     35.53978    26.432511 
   32800     236.0345   -362.89959       229892   -22571.397     1678.024   -24249.421    -861.6903    205.86023    39.440215    35.537672    26.404689 
   33000    235.99868   -331.04041       229892   -22551.006    1677.7694   -24228.775   -729.58116    207.87769    39.440127     35.53697    26.402688 
   33200    235.68653   -183.19097       229892   -22581.008    1675.5502   -24256.559   -164.26669    209.27697    39.436907    35.536618    26.382665 
   33400    232.14045   -344.07926       229892   -22608.495    1650.3403   -24258.835   -782.20144    210.87843    39.437963    35.536946    26.382356 
   33600    225.14205   -353.22295       229892   -22558.122    1600.5871   -24158.709   -816.12148    210.74155    39.438249    35.536986    26.386796 
   33800    242.57818   -111.44612       229892   -22422.577    1724.5446   -24147.121    104.62969    211.93554    39.438682     35.53907    26.371835 
   34000    233.31485   -268.52609       229892   -22533.265    1658.6894   -24191.955    -484.4648     214.7933    39.438667    35.540647     26.36408 
   34200    233.14481    -327.8828       229892   -22518.867    1657.4805   -24176.347   -708.12995    215.93459     39.43594    35.540082    26.382758 
   34400    233.10905   -505.10406       229892   -22554.825    1657.2263   -24212.051   -1400.6462    216.49416    39.434986     35.54075    26.370551 
   34600     236.6815   -420.67874       229892   -22413.324    1682.6237   -24095.947   -1105.0132    217.30808    39.434566    35.539123     26.39196 
   34800    233.89405   -361.39375       229892   -22501.928     1662.807   -24164.735   -864.58911    217.00885    39.434382    35.538603    26.374193 
   35000     230.3928   -334.18995       229892   -22602.623    1637.9158   -24240.539   -758.66804    218.19795     39.43243    35.541707    26.371352 
   35200    235.71772    -324.3068       229892   -22562.053    1675.7719   -24237.825     -733.593    219.11973    39.431811    35.543418    26.360538 
   35400    233.00691   -246.53741       229892   -22512.316    1656.5002   -24168.816   -403.74273    220.94409    39.431678    35.542713    26.377969 
   35600    234.36347   -412.20491       229892    -22543.15    1666.1443   -24209.294   -1063.9526    221.50801     39.42996     35.54273     26.37546 
   35800    236.87643   -361.08641       229892   -22452.735    1684.0095   -24136.745   -847.88944    222.18792     39.43246    35.541416    26.379129 
   36000    232.42677   -477.09655       229892   -22572.941    1652.3758   -24225.317   -1295.1651    222.80864    39.434298     35.54413    26.385601 
   36200    233.99693   -208.05748       229892   -22601.952    1663.5384    -24265.49   -228.84919    224.23846     39.43506    35.545971    26.400744 
   36400    234.44142   -256.65115       229892   -22553.483    1666.6984   -24220.182   -454.98585     224.3434    39.433084    35.546706     26.40472 
   36600    236.20396   -227.60484       229892   -22517.573    1679.2288   -24196.802   -352.98218    225.15106    39.431182    35.545387    26.422049 
   36800    231.57911    -309.0266       229892   -22554.699    1646.3496   -24201.049   -674.43751    226.42612    39.429271    35.545499    26.425095 
   37000    232.78605   -147.87491       229892   -22550.956    1654.9301   -24205.886   -52.973942    226.81119    39.430898    35.545383    26.454505 
   37200    230.00124   -297.05321       229892   -22565.087    1635.1321   -24200.219   -646.14888    228.66336    39.433351    35.546458    26.457253 
   37400     235.1544   -446.33507       229892   -22574.506    1671.7672   -24246.273   -1219.6874    230.32618    39.434252    35.546108    26.457706 
   37600    231.45621   -381.38603       229892   -22600.122    1645.4759   -24245.598   -909.78387    231.39793    39.434591    35.547316     26.48442 
   37800    233.74894     -223.753       229892   -22646.443    1661.7754   -24308.219   -321.06072     232.9766    39.433594    35.547802    26.478082 
   38000    237.25702   -492.82621       229892   -22522.261    1686.7152   -24208.976   -1401.2161    234.57675    39.432961     35.54604    26.459948 
   38200    236.48602   -387.74843       229892   -22557.955    1681.2339   -24239.189   -988.08314    235.08851    39.433137    35.544222    26.448819 
   38400    238.23589   -254.99348       229892   -22485.715    1693.6742   -24179.389   -427.55711    236.65456    39.434643    35.542563    26.444199 
   38600    228.24855   -440.79378       229892   -22552.451    1622.6719   -24175.123   -1147.1199     237.0606    39.435461    35.539566    26.426127 
   38800    236.90866   -464.65356       229892   -22558.809    1684.2386   -24243.047    -1252.556    238.65933    39.435246    35.538367    26.419879 
   39000    236.85176   -403.71513       229892    -22535.18    1683.8341   -24219.014   -993.98144     240.5014    39.435493    35.537933    26.405829 
   39200    228.15797   -534.10283       229892   -22604.348    1622.0279   -24226.376   -1528.4417    242.26866     39.43581    35.538874    26.406692 
   39400    237.83451   -411.41891       229892   -22602.967    1690.8207   -24293.788   -1048.1878    243.55371    39.433789    35.541904    26.434275 
   39600     231.8535   -450.06189       229892   -22548.153    1648.3003   -24196.453   -1190.1305    244.70621       39.432    35.542915    26.406657 
   39800    233.42526   -369.13891       229892   -22570.724    1659.4743   -24230.199   -901.63924    245.84159    39.432231    35.542541    26.407204 
   40000    232.86418   -409.54774       229892   -22530.927    1655.4855   -24186.413   -1057.3317    246.68754     39.43238    35.541684    26.422784 
   40200    232.21358   -435.65083       229892   -22538.323    1650.8602   -24189.183   -1123.1545    247.87587    39.433213     35.54204     26.42855 
   40400    233.43688   -485.90452       229892   -22576.471    1659.5569   -24236.028   -1394.7809      248.155    39.435041    35.541245     26.43134 
   40600    240.69024   -168.94764       229892   -22509.442    1711.1227   -24220.565   -77.413711     249.2086    39.437132    35.542359    26.400313 
   40800    235.27228   -338.72877       229892   -22609.619    1672.6052   -24282.224   -765.86334    250.05156    39.435813    35.541704    26.419719 
   41000    235.62738   -379.26409       229892   -22547.476    1675.1297   -24222.606   -954.17967    251.44988    39.433039    35.539125    26.423799 
   41200    237.04885   -403.59189       229892   -22507.021    1685.2352   -24192.256    -1069.808    253.35513    39.431444    35.539299    26.453351 
   41400    236.25366   -436.52095       229892   -22549.543    1679.5821   -24229.125   -1120.1894    252.97501     39.43024    35.540102    26.443516 
   41600    233.56111   -336.42284       229892   -22568.921    1660.4401   -24229.361   -779.92453    253.48357    39.430807    35.539102    26.445478 
   41800    235.71141   -287.70979       229892   -22539.187    1675.7271   -24214.914   -528.06901    254.33068     39.42737    35.539006    26.439049 
   42000    233.97228   -503.86539       229892   -22561.853    1663.3632   -24225.216    -1423.451    255.91729    39.426494    35.539359    26.437049 
   42200    235.11473   -522.03782       229892   -22617.077    1671.4852   -24288.562    -1488.225    257.26981    39.427077    35.537999    26.452604 
   42400    236.79392    -377.7015       229892   -22564.843    1683.4229   -24248.266   -925.84087     258.7869    39.426705    35.537186     26.46045 
   42600    234.37553   -329.41236       229892   -22591.061      1666.23   -24257.291   -733.91733    259.27892    39.425407     35.53572    26.461427 
   42800    240.35148   -345.66497       229892   -22526.476    1708.7144   -24235.191    -814.9287    260.25258    39.424541    35.536455    26.449335 
   43000    238.85596   -397.40218       229892   -22567.826    1698.0824   -24265.909   -1021.5062    260.95002    39.422331    35.535825    26.440895 
   43200    233.97098   -335.58882       229892   -22611.433     1663.354   -24274.787   -763.29626    261.54844    39.419779    35.534173    26.428803 
   43400    236.53971   -175.64633       229892   -22608.829    1681.6156   -24290.444   -124.41149    262.73748    39.419264    35.535927     26.41752 
   43600    231.60183   -333.31853       229892   -22615.341    1646.5111   -24261.852   -792.00845    263.92936     39.41906    35.535893    26.422921 
   43800    239.76913   -303.74638       229892   -22597.979    1704.5743   -24302.554   -637.70231    264.62077    39.418452    35.535523    26.425571 
   44000     225.7294    -459.0555       229892   -22629.069    1604.7627   -24233.832   -1278.9845    265.13087    39.419289     35.53712    26.420007 
   44200     233.0581   -416.79963       229892   -22584.677    1656.8641   -24241.541   -1063.4913    265.26377    39.417854    35.538137    26.444198 
   44400    232.25692   -421.28975       229892   -22626.749    1651.1683   -24277.917   -1084.6471    266.92839    39.418467    35.539631    26.439378 
   44600    234.69018   -487.35585       229892    -22603.92     1668.467   -24272.387     -1359.61    268.26124    39.419093    35.539407    26.443953 
   44800    235.22103   -209.60766       229892   -22613.951    1672.2409   -24286.191   -256.82882    268.92036    39.417597    35.539464     26.44356 
   45000    231.91171   -338.09202       229892   -22622.621    1648.7141   -24271.335   -747.76941     270.7468    39.417497    35.537597    26.445151 
   45200    231.18133   -266.15314       229892   -22549.939    1643.5217   -24193.461   -505.79065    271.99393    39.417279    35.538467    26.432844 
   45400    227.45764   -515.63849       229892    -22608.91    1617.0492   -24225.959   -1469.8041    273.92093    39.417352    35.539193    26.444676 
   45600    239.26731   -409.15167       229892   -22547.778    1701.0068   -24248.785   -1025.2773      275.683    39.417087    35.538692    26.449472 
   45800    234.99421   -412.71018       229892   -22586.362    1670.6283    -24256.99   -1046.8243    277.80041    39.416002    35.541502    26.459831 
   46000    240.21602   -278.10488       229892   -22525.818    1707.7514    -24233.57   -559.79639    278.16135     39.41679    35.543213    26.472768 
   46200    241.93515     -293.891       229892   -22500.744    1719.9731   -24220.717    -601.5556     279.9036    39.416896     35.54558    26.490268 
   46400    236.08231   -446.53578       229892   -22581.274    1678.3639   -24259.638   -1202.8031    280.50341    39.419616    35.546422    26.480263 
   46600    233.05944    -325.2953       229892   -22574.364    1656.8736   -24231.237   -746.89922    280.73299    39.420684     35.54659    26.488934 
   46800    235.06896   -289.85133       229892   -22588.067    1671.1598   -24259.227   -613.57644    282.25483    39.422392    35.545466    26.490427 
   47000    234.23579   -495.58658       229892   -22544.681    1665.2366   -24209.918   -1403.7348    282.46912    39.421362    35.546257    26.482254 
   47200    233.73763   -394.67713       229892   -22656.173     1661.695   -24317.868   -1032.4381    283.11126    39.420486      35.5478    26.494242 
   47400    234.93288   -282.80856       229892   -22580.342    1670.1924   -24250.535   -580.68604    284.04755    39.417898    35.548098    26.501241 
   47600    233.81095   -379.23127       229892    -22589.59    1662.2163   -24251.806   -927.18533    284.57661    39.416323    35.550107    26.513221 
   47800    231.25067   -385.26298       229892   -22628.954    1644.0147   -24272.969   -940.78351    286.01808     39.41473    35.552217    26.523462 
   48000    237.80795   -334.21607       229892   -22596.588    1690.6319    -24287.22   -803.61721    287.24142    39.412756    35.554277    26.527469 
   48200    235.24365   -372.72986       229892   -22620.322    1672.4017   -24292.723   -913.16343    287.47045    39.412015      35.5556     26.53741 
   48400    232.28911   -489.35434       229892   -22631.777    1651.3971   -24283.175    -1352.603    288.34612    39.413764    35.555256     26.52786 
   48600    231.07737   -325.93248       229892   -22696.788    1642.7826   -24339.571   -743.09309    289.67281    39.413553    35.558333    26.520795 
   48800    238.88885   -303.81584       229892   -22655.931    1698.3162   -24354.248   -643.19476    291.30257    39.414692    35.557754    26.506969 
   49000     227.4966    -415.0384       229892   -22639.186    1617.3261   -24256.512   -1083.2656    292.45427    39.414143    35.558945    26.499968 
   49200     235.8051   -343.62874       229892   -22550.666    1676.3932   -24227.059   -832.13571    292.72033    39.417646    35.558122    26.508006 
   49400    235.86116   -244.61017       229892   -22590.337    1676.7917   -24267.129   -439.32728    293.22536    39.417156    35.558447    26.504733 
   49600    231.60595   -288.31804       229892   -22593.948    1646.5404   -24240.489   -591.70769    293.69669    39.418538    35.560705    26.501162 
   49800    235.84243   -325.09162       229892   -22578.828    1676.6585   -24255.487   -749.77447    294.77842    39.418305    35.561397    26.497386 
   50000    233.36621   -381.82235       229892   -22604.705    1659.0545    -24263.76   -951.60814    297.79318    39.419186    35.565181    26.482374 
   50200    236.51992   -279.80766       229892   -22543.595     1681.475    -24225.07   -591.04708    298.35802    39.422178    35.565739     26.47264 
   50400    231.39742   -423.45772       229892   -22572.544    1645.0579   -24217.602   -1152.7831    299.68049    39.424297    35.567055    26.470917 
   50600     240.2826    -335.0038       229892   -22485.164    1708.2247   -24193.389   -765.93022    299.61965    39.426287    35.564694    26.475136 
   50800    230.70697   -179.51699       229892   -22673.615    1640.1494   -24313.764   -142.63189    299.14668    39.425397     35.56424    26.475189 
   51000    233.43927   -329.30592       229892   -22633.883     1659.574   -24293.457   -763.68733    300.11505     39.42751    35.565207    26.486281 
   51200     230.0361   -406.80246       229892   -22669.093      1635.38   -24304.473   -1073.4306    300.97875    39.427035    35.563945    26.491038 
   51400    237.26695   -420.71685       229892   -22618.764    1686.7858    -24305.55   -1101.8262    303.33565    39.427288    35.563482    26.479631 
   51600    234.25982    -371.1039       229892    -22629.34    1665.4074   -24294.748   -909.20744    304.24625    39.428096    35.564285    26.479758 
   51800     233.5712    -425.0421       229892    -22595.35    1660.5119   -24255.862   -1134.9944    304.93449     39.42742    35.564191    26.466307 
   52000    230.48909   -343.86363       229892   -22702.058    1638.6004   -24340.659   -815.90294    304.23322    39.426107    35.566295    26.479519 
   52200     220.2937   -291.51328       229892   -22687.289     1566.119   -24253.408   -613.90846    305.53842    39.426744     35.56724    26.496408 
   52400    229.12591   -446.42489       229892   -22704.636    1628.9092   -24333.545   -1218.8636     305.7787    39.427285    35.568416    26.481276 
   52600    230.11312   -455.47766       229892   -22543.227    1635.9276   -24179.154   -1227.8732    307.00563    39.427365    35.572147    26.484685 
   52800    236.21117     -365.631       229892   -22469.119      1679.28   -24148.399   -906.50447    306.44114    39.426019    35.571354    26.483272 
   53000    240.54066   -438.69239       229892   -22483.404    1710.0594   -24193.463   -1196.7336    308.77751    39.425973     35.57061    26.468518 
   53200    240.71389   -313.32009       229892   -22607.893    1711.2908   -24319.184   -688.19351    306.83057    39.422349    35.571645    26.475064 
   53400    233.92727   -351.67576       229892   -22603.649    1663.0432   -24266.692   -829.72222    308.70253    39.421426    35.570451    26.502853 
   53600    232.57837   -424.93012       229892   -22679.322    1653.4536   -24332.776   -1107.4863    310.09872     39.42109    35.569953    26.504175 
   53800    230.44626   -431.03614       229892   -22589.631    1638.2959   -24227.927   -1160.8713    310.18566    39.423638    35.570576    26.515131 
   54000    240.17605   -376.74006       229892   -22575.389    1707.4673   -24282.856   -882.36395    309.26969    39.424062    35.571168    26.528587 
   54200     237.7862   -312.02609       229892   -22547.003    1690.4772    -24237.48   -689.82532    311.43611    39.423009    35.570963    26.538146 
   54400    237.59345   -511.75151       229892   -22504.784    1689.1069   -24193.891   -1450.5346    313.61862    39.424192    35.570085     26.55455 
   54600     237.6732     -416.508       229892   -22554.602    1689.6739   -24244.276   -1075.2927    314.11943    39.426088    35.571163    26.564679 
   54800    238.59679   -449.81393       229892   -22544.452    1696.2399   -24240.692   -1252.8854    315.65983    39.426815    35.572385     26.57236 
   55000     237.3357    -414.5727       229892   -22540.982    1687.2745   -24228.256    -1095.682    316.88174    39.426973    35.571117    26.585258 
   55200    228.67907   -370.33095       229892   -22663.205    1625.7325   -24288.937   -903.61128    317.03437    39.426563    35.569438    26.597407 
   55400    234.63343   -327.53641       229892   -22605.865    1668.0635   -24273.928   -714.81061    318.17563    39.426368    35.568903    26.602708 
   55600    228.80241   -378.57506       229892   -22618.822    1626.6094   -24245.432    -926.8361    317.41507    39.423938    35.570979    26.600295 
   55800    240.54879   -336.52965       229892    -22491.59    1710.1171   -24201.707   -777.26829    319.53639    39.423316    35.571577    26.601579 
   56000    241.62052   -528.30172       229892   -22515.927    1717.7364   -24233.664   -1523.5119    320.19875    39.423509    35.571238    26.615802 
   56200    227.87141   -345.33986       229892   -22524.258    1619.9907   -24144.249   -795.99852    318.91215    39.422358    35.574145     26.61325 
   56400    233.04709   -447.14007       229892   -22592.421    1656.7858   -24249.207   -1214.4813    320.55653    39.423486     35.57678    26.623325 
   56600    229.10733   -310.92081       229892   -22665.335    1628.7771   -24294.112   -707.07199    319.81856    39.424053    35.576177    26.607227 
   56800    225.68289   -324.47124       229892   -22576.697     1604.432   -24181.129   -704.16095    321.34111    39.425228     35.57785     26.60358 
   57000    234.60406   -296.84245       229892    -22593.36    1667.8547   -24261.215   -588.27981    321.71731    39.423164    35.577804    26.591195 
   57200    242.96035   -404.73368       229892   -22481.785    1727.2615   -24209.046   -1030.4142    322.76605    39.422537    35.579209    26.587191 
   57400    229.67144   -277.06039       229892   -22530.651    1632.7876   -24163.438   -544.73296    321.47468    39.422047    35.581391    26.596579 
   57600    233.99222   -275.91676       229892   -22558.722     1663.505   -24222.227   -538.36564    321.58075    39.422667    35.581101    26.588311 
   57800    231.41663   -481.36007       229892   -22525.576    1645.1945   -24170.771   -1344.5176    322.34668    39.422768    35.579673    26.583678 
   58000    233.61693   -464.71536       229892   -22540.223     1660.837    -24201.06   -1279.0934    323.90255    39.423035    35.578405    26.607612 
   58200    239.06669   -340.95674       229892   -22493.765    1699.5805   -24193.346   -758.47751    324.38234    39.421188    35.579898    26.605014 
   58400     239.5078   -604.89816       229892   -22526.398    1702.7165   -24229.114   -1860.8438    325.21828    39.423303    35.581872    26.605707 
   58600    233.25959   -250.49536       229892   -22528.178    1658.2965   -24186.475    -409.3558    325.14756    39.423298    35.581742    26.606994 
   58800    227.82113   -390.09939       229892   -22509.143    1619.6333   -24128.776    -962.2991    324.53008    39.424093    35.580401     26.60032 
   59000    237.64784   -273.72768       229892   -22459.438    1689.4936   -24148.932   -494.32274     323.7834    39.424916    35.580074    26.609219 
   59200    232.60879   -404.00837       229892   -22552.522    1653.6699   -24206.191   -1019.3359    325.76451    39.425442    35.579931    26.610563 
   59400    226.84129   -322.87093       229892   -22571.117    1612.6673   -24183.784   -716.85607    326.90346    39.424944    35.580322    26.595432 
   59600    232.84983   -432.10167       229892   -22619.112    1655.3835   -24274.495   -1151.5697    327.36425    39.423167    35.579772    26.585874 
   59800    235.64403   -353.41387       229892   -22563.174    1675.2481   -24238.422   -795.30877    328.67053    39.421962    35.579873    26.586445 
   60000    241.36182   -330.08206       229892   -22530.481    1715.8971   -24246.379   -714.29755    329.05616    39.419141    35.582071    26.607552 
   60200    240.50888   -453.94838       229892   -22570.007    1709.8334    -24279.84   -1203.8602    328.66552    39.418356    35.580988    26.587134 
   60400    231.46733   -474.64589       229892   -22532.028    1645.5549   -24177.583   -1349.3541     330.6598    39.418369     35.57972    26.580405 
   60600    232.79897   -386.42516       229892   -22518.569    1655.0219   -24173.591   -942.48606    331.79149    39.419179     35.58037    26.604655 
   60800    234.65391   -310.91843       229892   -22420.328    1668.2091   -24088.537   -685.24372    333.77721    39.417498    35.579773    26.613036 
   61000    235.64396   -270.92389       229892   -22543.024    1675.2475   -24218.272   -509.42918    333.89784    39.418337     35.58118    26.621341 
   61200    239.56251   -178.44428       229892   -22522.326    1703.1055   -24225.431    -160.0134    335.00397    39.420092    35.579873    26.609418 
   61400    240.89297   -382.06425       229892   -22528.661     1712.564   -24241.225   -958.23435    336.33228    39.420804    35.577177    26.615932 
   61600    234.96915   -407.35761       229892   -22539.819    1670.4502   -24210.269   -1075.9784    337.00911    39.421088    35.578449    26.618372 
   61800    230.52019   -290.52635       229892    -22580.22    1638.8215   -24219.041   -582.32107    337.73228    39.421206    35.579926    26.611718 
   62000     234.4255   -384.52304       229892   -22506.019    1666.5853   -24172.605   -978.29035    339.10506    39.421233    35.580023    26.604353 
   62200    235.91202   -230.54626       229892   -22487.094    1677.1533   -24164.247   -369.62942     338.0746    39.422785    35.580806    26.617102 
   62400    236.41975   -387.40758       229892   -22515.789    1680.7629   -24196.552   -943.10521    339.77982    39.422919    35.580954     26.61616 
   62600    236.20256   -222.46148       229892   -22545.701    1679.2188   -24224.919   -359.38902    341.36715    39.423944    35.582929    26.617165 
   62800    234.24967   -265.51087       229892   -22612.033    1665.3353   -24277.369   -496.12057    341.58241    39.425008    35.581774    26.601052 
   63000    242.12824   -240.74012       229892   -22521.988    1721.3458   -24243.334   -410.65368    342.41717    39.425212    35.581604    26.592142 
   63200    233.88457   -196.64486       229892   -22568.283    1662.7397   -24231.023   -215.37325    344.52501    39.423623     35.58064    26.600765 
   63400    235.60208   -370.66645       229892       -22585    1674.9498    -24259.95   -880.48641    345.69056     39.42257    35.577978      26.6006 
   63600    233.78999   -435.35563       229892   -22626.538    1662.0673   -24288.606   -1169.4855    346.36123    39.422537    35.574752    26.581058 
   63800    232.01668   -346.64307       229892   -22659.348    1649.4604   -24308.808   -831.37876    347.22092    39.422646    35.573361    26.575902 
   64000    234.79463   -377.78534       229892   -22547.068    1669.2095   -24216.278   -925.88913    349.68973    39.421359    35.574373    26.581152 
   64200    229.92043   -279.05904       229892    -22530.24    1634.5577   -24164.797   -526.54196    349.21169    39.420165    35.575837    26.561581 
   64400    229.43335   -299.64028       229892   -22586.436    1631.0949    -24217.53   -683.22845    350.86134    39.418601    35.576315     26.55533 
   64600    233.92922    -206.5921       229892   -22583.817    1663.0571   -24246.874   -273.17682    352.61659    39.418032    35.576558    26.567551 
   64800    233.48003   -268.06672       229892   -22598.268    1659.8637   -24258.132   -501.30894    352.62959    39.417961    35.575088    26.568317 
   65000    236.02328   -305.26039       229892   -22491.018    1677.9442   -24168.962   -665.42165    353.98111    39.417053    35.574823    26.574388 
   65200      233.517   -345.35055       229892   -22538.466    1660.1266   -24198.592   -830.63108     355.6879    39.418748    35.573443     26.59359 
   65400    229.75333   -240.59933       229892   -22526.767    1633.3697   -24160.136    -395.1443    357.57491    39.418228    35.573503    26.609716 
   65600    237.01205   -359.65633       229892   -22443.404    1684.9736   -24128.378   -878.31385    358.20551    39.418643     35.57596    26.623256 
   65800    234.00629   -295.91982       229892   -22508.538     1663.605   -24172.143   -664.15515    362.88052    39.417797    35.576587    26.599123 
   66000    237.96847   -511.66667       229892   -22491.721    1691.7731   -24183.494   -1484.5166    364.67007    39.417224    35.575754    26.591956 
   66200     228.7687   -375.24156       229892   -22562.432    1626.3698   -24188.802   -910.43525    365.30596    39.416161    35.576285    26.609923 
   66400    233.82399   -406.61094       229892   -22525.882     1662.309   -24188.191   -1038.1879    368.17242    39.416507    35.575129    26.607262 
   66600    226.18171   -395.25535       229892   -22574.372    1607.9782    -24182.35   -991.30825    370.49018      39.4148    35.574752    26.612141 
   66800    235.43874   -399.88498       229892   -22579.844    1673.7886   -24253.632   -961.37507    372.37801    39.414834    35.574951    26.636753 
   67000    227.68212   -402.74106       229892   -22653.588     1618.645   -24272.233    -1005.951    371.82677    39.415869    35.573154    26.649395 
   67200    231.58253   -436.06708       229892   -22601.857    1646.3739   -24248.231   -1158.3909    371.97623    39.416671    35.571818    26.656683 
   67400    229.33294    -362.7191       229892   -22548.071    1630.3811   -24178.452   -871.09755    373.11735    39.413952    35.573058    26.654884 
   67600    241.42773   -357.63706       229892   -22513.554    1716.3657    -24229.92   -818.32001    373.47523    39.413884     35.57476    26.638138 
   67800    229.17198    -342.1397       229892   -22563.759    1629.2368   -24192.995   -771.53318    373.73808    39.409568    35.577424    26.619552 
   68000    233.01515   -298.03053       229892    -22645.33    1656.5588   -24301.889    -604.4957    375.80109    39.407731    35.578913    26.606514 
   68200    233.22006   -170.90673       229892   -22600.168    1658.0155   -24258.184   -137.04661    377.07714    39.407585    35.580219    26.607025 
   68400    240.60379   -247.30465       229892   -22565.005    1710.5082   -24275.513   -388.22675    378.73291    39.407472    35.580866    26.606674 
   68600      231.784    -201.9108       229892    -22608.35    1647.8062   -24256.156   -257.61853    378.84917     39.41014    35.581198    26.604889 
   68800    237.98554   -317.71852       229892   -22539.469    1691.8944   -24231.363   -759.34401    380.46825      39.4122    35.582133    26.589791 
   69000    235.28968   -451.73943       229892   -22555.759    1672.7289   -24228.488   -1222.5151    379.66335    39.413961    35.579207     26.60983 
   69200    226.59855   -362.32154       229892   -22649.091    1610.9417   -24260.032   -855.83266    379.87277    39.413134    35.580001    26.617906 
   69400    230.63988   -413.21171       229892   -22650.651    1639.6724   -24290.323   -1042.8786    381.32834    39.414459    35.580871    26.625593 
   69600    235.25261   -293.69211       229892   -22525.015    1672.4654    -24197.48   -606.07546    383.40691    39.413484    35.581635    26.632295 
   69800    234.60266   -300.10996       229892   -22558.915    1667.8447    -24226.76   -634.87437    384.45732    39.411447    35.581218    26.621709 
   70000    231.78552   -348.71345       229892   -22601.377     1647.817   -24249.194   -781.43813    384.50517    39.414227    35.583299    26.617727 
   70200    240.15627   -274.03387       229892   -22493.104    1707.3266    -24200.43   -517.26532    385.84748    39.416123    35.586653    26.605897 
   70400    236.90071   -349.08848       229892    -22517.09    1684.1821   -24201.272   -814.31875    386.65835    39.417689    35.589113    26.596241 
   70600    232.63972   -334.02337       229892   -22579.052    1653.8897   -24232.942   -770.77731    386.52842    39.419091    35.588549     26.56493 
   70800    235.93623    -344.0678       229892   -22606.336    1677.3254   -24283.661   -819.52464    388.57813     39.41984    35.587984    26.568309 
   71000    234.69982   -355.54733       229892   -22604.559    1668.5354   -24273.094      -851.44     389.6909    39.419201    35.589359    26.537151 
   71200    226.59227   -373.94811       229892   -22597.342     1610.897   -24208.239     -931.722    391.09493    39.418538    35.589252    26.535121 
   71400    230.74728   -275.60141       229892   -22592.942     1640.436   -24233.378   -520.09204    391.72172     39.41661    35.589227    26.535446 
   71600    241.94452   -363.88245       229892   -22518.784    1720.0397   -24238.824   -886.81418    391.86525    39.414304    35.589537    26.538848 
   71800    226.96643   -244.75601       229892   -22620.431     1613.557   -24233.988   -423.27882     394.4367    39.413931    35.591781    26.553156 
   72000    239.00791   -408.28008       229892   -22662.377    1699.1627    -24361.54   -1059.7164     397.2396    39.413536    35.591662    26.523828 
   72200    237.75729   -188.98982       229892   -22524.601    1690.2717   -24214.873   -158.74822    396.24496    39.413179     35.59219    26.512349 
   72400    232.41959   -451.76188       229892    -22574.57    1652.3248   -24226.895   -1231.0704    397.00487    39.412964    35.592147    26.513111 
   72600    232.85969   -337.07391       229892   -22604.474    1655.4535   -24259.928   -805.56287    396.69264    39.412803    35.592897    26.516703 
   72800    234.98351   -321.46972       229892   -22620.181    1670.5523   -24290.733   -688.34301    395.97401    39.414885    35.592521    26.529248 
   73000    235.48767   -302.78555       229892   -22623.634    1674.1365    -24297.77   -622.20104    396.64099    39.414602     35.59259    26.546056 
   73200    238.64781   -353.44102       229892   -22576.849    1696.6026   -24273.452   -828.06629    398.94848    39.414123    35.594176    26.555234 
   73400    235.69579   -204.66916       229892   -22522.977    1675.6161   -24198.593   -210.20321    399.16245      39.4133     35.59237    26.532815 
   73600     233.8295   -241.59385       229892   -22550.082    1662.3481    -24212.43   -389.08955     399.5469    39.414934    35.588331    26.524203 
   73800    228.05258   -302.14603       229892   -22634.946    1621.2787   -24256.225   -650.03385    400.28129    39.415185      35.5896    26.537902 
   74000     231.3389   -419.08579       229892   -22630.233    1644.6419   -24274.875   -1109.2052    401.22102    39.415122     35.59293    26.521144 
   74200    236.05898   -296.09691       229892   -22538.636    1678.1981   -24216.834   -577.29953    402.50645    39.416545    35.591464    26.528131 
   74400    241.26302    -236.1728       229892   -22577.672    1715.1948   -24292.867   -395.00311     403.3786    39.418866    35.590035    26.520644 
   74600    231.94667   -469.59725       229892   -22590.655    1648.9627   -24239.618   -1339.1508    402.27949    39.421697    35.589967    26.519902 
   74800    231.54348   -323.40222       229892   -22591.785    1646.0963   -24237.881   -742.52249    402.21107    39.424748    35.590262    26.537326 
   75000    228.79737   -272.53471       229892   -22558.364    1626.5735   -24184.938   -514.31859    403.83869    39.424425    35.586267    26.528546 
   75200    232.80857   -173.71191       229892   -22456.139    1655.0901   -24111.229    -126.9534    404.04157    39.425941    35.588016    26.513065 
   75400    231.93565   -421.32194       229892   -22586.181    1648.8843   -24235.066   -1091.3115    404.87191    39.425416    35.585995    26.511707 
   75600    237.31144   -376.85153       229892   -22555.176    1687.1021   -24242.278   -900.68069    405.13495    39.423825    35.585372    26.503744 
   75800    234.92017   -494.26708       229892   -22500.284     1670.102   -24170.386   -1447.8894    406.85692    39.424149    35.583295    26.485605 
   76000     237.2564   -305.86177       229892   -22468.647    1686.7108   -24155.358   -674.23683    406.22358    39.421787    35.584109    26.507213 
   76200    231.86755   -365.26388       229892   -22582.636    1648.4002   -24231.036   -892.56904    405.49277    39.422784    35.585167    26.500459 
   76400    240.16932   -187.04003       229892   -22550.836    1707.4194   -24258.255   -201.06222    406.08172     39.42558    35.582413    26.521215 
   76600    232.64265   -234.44273       229892   -22543.323    1653.9106   -24197.233   -362.86613    407.94376    39.428595    35.582234    26.534381 
   76800    235.75391   -392.30239       229892   -22546.301    1676.0292   -24222.331   -989.89986    410.51465    39.431819    35.582907    26.515488 
   77000     233.9276   -278.00848       229892   -22566.042    1663.0456   -24229.087   -548.88312    411.48308    39.430225    35.581941    26.529869 
   77200    237.17271   -474.49058       229892   -22530.598    1686.1158   -24216.714   -1322.9122    413.95647    39.431057    35.581792    26.538568 
   77400    236.29326   -219.18246       229892    -22525.16    1679.8636   -24205.024   -352.89906    415.66844    39.430549    35.582032    26.527748 
   77600     234.0161   -295.59386       229892   -22569.322    1663.6747   -24232.997   -609.94861    414.30065    39.429417    35.581806    26.536265 
   77800    231.96991   -156.93916       229892   -22599.359    1649.1279   -24248.486   -65.353062    416.06922    39.429389    35.585001     26.53118 
   78000    231.91552   -375.22855       229892    -22566.65    1648.7412   -24215.391   -907.85792    419.33482    39.430087    35.586026     26.52342 
   78200    233.62867   -348.25622       229892   -22581.868    1660.9204   -24242.788   -801.81828    420.41815    39.427701    35.585384    26.521842 
   78400    238.89275   -486.56482       229892   -22541.715     1698.344   -24240.059   -1377.1365    421.74251    39.426525    35.588332    26.514733 
   78600    234.52993   -293.73706       229892   -22591.196    1667.3277   -24258.523   -552.84923    421.41611    39.425239    35.589011    26.505483 
   78800    234.60873   -344.34983       229892   -22556.417    1667.8879   -24224.305   -803.75636    421.66562     39.42466    35.589023    26.513088 
   79000    236.19645   -482.12413       229892   -22557.421    1679.1754   -24236.596   -1352.2614    422.41056    39.426453    35.587704    26.510084 
   79200    236.76334   -308.67614       229892   -22512.091    1683.2055   -24195.297   -659.24981     424.8145    39.424984    35.587855     26.52375 
   79400    237.43182   -442.93389       229892   -22494.237    1687.9579   -24182.195   -1213.7645    425.13609    39.426927    35.590312    26.506351 
   79600    234.97953   -308.62725       229892   -22572.951     1670.524   -24243.475   -670.22281    425.81849    39.428703    35.590595    26.505954 
   79800    233.72305   -426.59441       229892   -22555.826    1661.5914   -24217.417   -1136.9236    427.62137    39.428892    35.589738    26.522446 
   80000    232.78148    -525.0994       229892   -22583.949    1654.8976   -24238.846   -1490.8848    429.21504    39.429278    35.590658    26.521868 
   80200    232.23451   -394.81425       229892   -22601.913     1651.009   -24252.921   -996.52778    429.12934    39.429946    35.590383    26.534814 
   80400    232.59604    -338.5305       229892   -22643.107    1653.5792   -24296.686   -784.54048    428.98623    39.430301    35.589165    26.515829 
   80600    233.10622   -334.18062       229892   -22629.431    1657.2062   -24286.638   -809.31907    429.21995    39.429696    35.587969    26.535397 
   80800    232.06571   -167.23474       229892   -22582.346     1649.809   -24232.155   -169.74513    429.75392      39.4294    35.586943    26.525772 
   81000      231.975   -310.78196       229892   -22634.969    1649.1641   -24284.133   -713.81735    431.47015    39.429397    35.586789    26.538463 
   81200    231.98244   -361.03278       229892   -22616.894     1649.217   -24266.111   -839.09712    433.15957    39.429042    35.584652    26.548744 
   81400    234.56284    -420.2554       229892   -22581.561    1667.5617   -24249.123    -1117.423    434.60156    39.430619    35.584001    26.544157 
   81600    232.05524   -282.81405       229892   -22661.855    1649.7345    -24311.59   -564.45834    432.17525    39.433338     35.58412    26.541574 
   81800    229.92248   -413.25656       229892   -22702.651    1634.5722   -24337.223   -1114.9884     433.5429    39.432337    35.585763    26.544352 
   82000    232.86306   -456.28532       229892   -22603.165    1655.4775   -24258.642   -1274.0338    436.42298    39.432171     35.58634    26.528395 
   82200    239.69806   -245.22236       229892    -22555.42    1704.0691   -24259.489   -441.64187    437.45702    39.432918    35.588176    26.548391 
   82400    232.39352   -283.26048       229892   -22614.565    1652.1395   -24266.705   -557.84603    438.29466    39.435424    35.589501    26.550894 
   82600    238.16558    -408.4965       229892   -22529.616    1693.1744   -24222.791   -1088.9911    437.49608    39.435251    35.589705     26.54501 
   82800    228.61533   -157.98843       229892    -22608.28    1625.2794    -24233.56   -70.784141     437.2272    39.436355    35.590218    26.520391 
   83000    239.14506   -468.48055       229892   -22488.319    1700.1377   -24188.456   -1272.5687    438.94627    39.435651     35.58849    26.488561 
   83200    238.97202   -256.82346       229892   -22539.988    1698.9076   -24238.896   -512.83866     439.1824    39.436393    35.588553    26.508391 
   83400    236.36026   -607.48467       229892   -22522.668    1680.3399   -24203.007    -1817.241    441.75954    39.437579    35.589649    26.528554 
   83600    230.22368   -468.92201       229892   -22626.221    1636.7136   -24262.935    -1336.305    441.98769    39.439436    35.590757     26.53841 
   83800    234.14234   -295.55909       229892   -22577.115    1664.5722   -24241.688   -618.84429    440.34709    39.442333    35.590542    26.549817 
   84000    239.18937   -414.05809       229892   -22525.291    1700.4527   -24225.743   -1110.5027    440.52437    39.443131    35.588232    26.533147 
   84200    241.69473   -250.43191       229892   -22502.381    1718.2639   -24220.645   -430.15489    439.86821    39.445598    35.586635    26.526537 
   84400     231.2612    -297.1677       229892   -22546.197    1644.0895   -24190.286   -624.72161    441.25704    39.444531    35.586275    26.515302 
   84600    236.45279   -337.77088       229892   -22520.201    1680.9977   -24201.199   -799.06346    440.84543    39.443342    35.587719    26.514851 
   84800    233.88773   -286.85964       229892   -22566.968    1662.7622    -24229.73   -574.45612    443.09077    39.441761    35.589625    26.520204 
   85000    233.61509   -260.75783       229892   -22519.734    1660.8239   -24180.558   -461.83935    444.85798    39.442053    35.588911    26.514248 
   85200    234.70851   -381.38533       229892   -22536.206    1668.5973   -24204.803   -965.35706    443.39491    39.442343    35.588924    26.505635 
   85400    229.84532   -366.32034       229892   -22629.069    1634.0237   -24263.093   -889.11633    443.20824    39.441739    35.589784    26.506444 
   85600    237.85791    -400.7517       229892   -22602.889    1690.9871   -24293.876   -1069.4382    445.19259     39.44309    35.590082     26.50242 
   85800    233.64806   -550.24459       229892   -22605.995    1661.0582   -24267.054   -1590.5954    448.37852    39.441571    35.591729    26.504344 
   86000    229.92529   -354.22914       229892   -22519.348    1634.5922    -24153.94    -888.7358    448.48022     39.43845    35.591746    26.483407 
   86200    239.40674   -382.26096       229892   -22503.091    1701.9981    -24205.09   -958.83838    450.10666    39.436764    35.594853     26.47856 
   86400    225.67341   -245.47971       229892    -22583.27    1604.3646   -24187.634   -401.80426    450.14269    39.436424    35.595107    26.491965 
   86600    234.63291   -443.90329       229892   -22506.174    1668.0598   -24174.234   -1193.6121    451.87249    39.436145    35.597319    26.510286 
   86800    232.86277   -306.53528       229892   -22586.267    1655.4754   -24241.742    -678.6624    453.72851    39.435352    35.594683    26.519603 
   87000    238.37191   -555.38747       229892   -22601.711    1694.6412   -24296.352    -1631.133    455.40648    39.437719    35.591933    26.525469 
   87200    238.19654   -379.40214       229892   -22538.733    1693.3944   -24232.127   -978.80633    456.28135    39.437297    35.592987    26.508324 
   87400    234.35334   -217.10957       229892   -22610.683    1666.0723   -24276.755   -308.55216    457.72917    39.435922    35.591746    26.471645 
   87600     230.6276    -495.5214       229892   -22511.929    1639.5851   -24151.514   -1402.0086    458.10426    39.436599    35.590571    26.479627 
   87800    234.29954   -521.87668       229892   -22593.606    1665.6898   -24259.296   -1539.8819    458.47688    39.436071    35.590336    26.484574 
   88000    235.00752    -347.0542       229892    -22595.49    1670.7229   -24266.213   -850.81515    462.26838    39.435517    35.588509    26.487429 
   88200    236.22324   -209.39336       229892   -22610.373    1679.3658   -24289.739   -269.53234    460.78081    39.435743    35.588864    26.482412 
   88400    236.62707   -416.25512       229892   -22531.132    1682.2367   -24213.369   -1092.4205    459.73863    39.434121    35.587863    26.490986 
   88600    236.72296    -422.1459       229892   -22555.065    1682.9184   -24237.983   -1114.8955    459.81056    39.431803    35.588034    26.476634 
   88800     229.4447    -569.7515       229892   -22548.113    1631.1756   -24179.288   -1697.0949    460.28467    39.428448    35.585945    26.475193 
   89000    234.71933    -464.3322       229892   -22520.501    1668.6742   -24189.175   -1305.2153    460.51623     39.42572    35.586404     26.47188 
   89200    233.07399   -439.25508       229892   -22529.887     1656.977   -24186.864   -1166.9639    459.35833    39.428625    35.586161    26.479272 
   89400    234.66401   -400.12301       229892    -22496.88    1668.2809   -24165.161   -1020.6375    458.35106    39.427928     35.58561    26.497142 
   89600    234.24784   -354.45535       229892   -22640.625    1665.3222   -24305.947   -843.49383    457.85718    39.427785    35.587437    26.498846 
   89800    233.27856   -248.15234       229892   -22556.707    1658.4314   -24215.138   -433.16265    459.17883     39.42698    35.587366     26.50235 
   90000    230.65763   -237.27119       229892     -22590.7    1639.7986   -24230.499   -401.73767    459.05905    39.425937    35.587059    26.506492 
   90200    224.18373   -370.82181       229892   -22632.963    1593.7742   -24226.737   -920.69892    459.48225    39.425146    35.588339    26.506493 
   90400    234.86298   -482.70673       229892    -22558.49    1669.6954   -24228.185   -1340.1155    460.52551    39.423845    35.588877    26.511024 
   90600    234.59333   -219.73237       229892   -22540.536    1667.7784   -24208.314   -335.94158    461.06712    39.424491    35.588464    26.490006 
   90800    234.48022   -283.76262       229892   -22546.388    1666.9743   -24213.363   -606.98795    460.22102    39.424242    35.587615    26.467975 
   91000    228.26653    -335.7936       229892   -22553.643    1622.7997   -24176.443   -812.45598    461.39576    39.426682    35.586894    26.469403 
   91200    231.97414   -379.06725       229892   -22628.325     1649.158   -24277.483   -937.68436    461.69379    39.426994    35.585738    26.487779 
   91400    236.76332   -380.72193       229892   -22551.331    1683.2054   -24234.537   -948.13486     460.0955    39.425595    35.584482    26.502098 
   91600    236.02449   -349.29991       229892   -22464.497    1677.9528    -24142.45   -899.60728       459.12    39.426574    35.585763    26.516438 
   91800    240.01743   -406.73214       229892   -22494.075    1706.3396   -24200.415   -1043.7368    459.62134    39.426063    35.583297    26.521255 
   92000    231.23326   -297.51547       229892   -22445.284    1643.8909   -24089.174   -628.54877    459.69113    39.425645    35.583148    26.528248 
   92200    234.42185    -351.1789       229892   -22484.762    1666.5593   -24151.322   -851.71812    460.27814    39.425267    35.585553    26.513543 
   92400    235.81605   -405.99494       229892   -22497.242     1676.471   -24173.713   -1057.3053    461.40922    39.424461    35.586685    26.517691 
   92600     241.9828   -232.94527       229892   -22477.336    1720.3118   -24197.648   -363.33668    463.28166    39.424836    35.587794    26.510079 
   92800    241.29964   -335.90104       229892   -22587.079    1715.4551   -24302.534   -755.69426    463.63314    39.426444    35.589646       26.499 
   93000    233.31203   -258.25351       229892   -22637.247    1658.6693   -24295.916   -447.24825    465.35563    39.425864    35.590254    26.492657 
   93200    229.79647   -389.89177       229892   -22598.043    1633.6764    -24231.72   -954.82164    466.91032    39.426162    35.590337    26.473543 
   93400    227.83014   -310.82704       229892   -22670.492    1619.6973    -24290.19   -693.77777    467.92656    39.427611    35.590328    26.447119 
   93600    233.76893   -566.51295       229892   -22614.906    1661.9175   -24276.824   -1664.9959    469.88909    39.430058     35.58871    26.484083 
   93800    232.10577   -241.18008       229892   -22651.236    1650.0937   -24301.329   -415.31235    469.10951    39.433784    35.587276    26.495497 
   94000    236.90811   -229.35692       229892    -22647.62    1684.2347   -24331.855   -390.89483    470.67968      39.4343    35.585806    26.483961 
   94200    237.17961    -313.2625       229892   -22560.683    1686.1648   -24246.848   -668.17012      471.841    39.434964    35.585343    26.459104 
   94400    226.49447   -371.78667       229892   -22603.898    1610.2017   -24214.099   -896.04028    473.04225    39.434122    35.584751    26.442468 
   94600    232.83396   -440.05536       229892    -22587.03    1655.2706   -24242.301   -1248.2689    474.48587    39.434544    35.584503    26.418798 
   94800    235.62014   -378.58054       229892   -22544.795    1675.0782   -24219.873   -975.71912    474.25189    39.433164    35.583864    26.430719 
   95000    230.56257   -362.25384       229892   -22607.945    1639.1228   -24247.068   -894.60806    473.70886    39.432604     35.58221     26.43904 
   95200    231.93167    -243.2169       229892   -22580.828     1648.856   -24229.684   -390.82261    474.00597     39.43178    35.584076    26.449808 
   95400    235.56526   -480.99898       229892   -22519.755    1674.6881   -24194.443   -1364.0028    475.90995    39.432831    35.582299    26.465911 
   95600    231.34752   -334.69152       229892   -22492.632    1644.7032   -24137.335   -783.33332    477.65786    39.431416    35.582728    26.476946 
   95800    235.52901   -388.88585       229892   -22504.322    1674.4304   -24178.752   -986.99304    478.05843    39.431786    35.581861    26.485957 
   96000    240.27036   -367.82336       229892   -22511.492    1708.1377    -24219.63   -881.94462    477.91638    39.433072    35.583396    26.489691 
   96200    236.76046   -300.65348       229892   -22458.091    1683.1851   -24141.276   -623.60658    479.48747    39.434123    35.584061    26.487145 
   96400    230.40234   -229.15392       229892   -22527.901    1637.9837   -24165.885   -351.23683    478.59314     39.43224    35.584393    26.502392 
   96600    234.19276   -364.93885       229892   -22559.754    1664.9306   -24224.685   -873.83673    480.96668    39.432995    35.582052    26.497632 
   96800    234.19723   -399.72394       229892   -22517.812    1664.9624   -24182.774   -998.67637    481.25952    39.431213    35.580654    26.497099 
   97000    235.19376   -427.10838       229892     -22544.1     1672.047   -24216.147   -1120.0004    481.53901    39.433413    35.580057    26.477126 
   97200     231.8827   -114.86955       229892   -22576.824    1648.5079   -24225.332    98.350904    482.75869    39.433451     35.58195    26.453141 
   97400    235.98734   -205.75165       229892   -22565.145    1677.6887   -24242.834   -267.96546    484.33822    39.435529    35.582486    26.454064 
   97600    236.81734   -303.18329       229892   -22518.115    1683.5894   -24201.704   -624.47631    484.11134    39.435744    35.583917    26.444559 
   97800    236.58508   -284.21211       229892   -22542.878    1681.9382   -24224.816   -539.12294    485.35249    39.435575    35.582012    26.441571 
   98000    234.16917   -394.10502       229892   -22601.314     1664.763   -24266.077   -1004.4581    488.48294    39.435716    35.580443    26.435774 
   98200    231.27949   -388.44667       229892   -22614.774    1644.2195   -24258.994   -915.51147      489.477    39.435816    35.580873    26.435664 
   98400    230.67835   -412.19889       229892   -22551.089    1639.9459   -24191.035   -1099.2238    489.28645    39.436438    35.583036    26.430319 
   98600    234.44238   -465.34813       229892   -22579.651    1666.7053   -24246.356   -1247.1099    490.00601    39.436694    35.582308    26.413834 
   98800    235.75885   -309.08042       229892   -22571.052    1676.0644   -24247.116   -664.71075    489.69746    39.437298    35.582986    26.425721 
   99000    232.34526   -509.47849       229892   -22608.514    1651.7963    -24260.31   -1447.5044    489.62708    39.436894    35.587368     26.43596 
   99200    234.40822   -407.16168       229892   -22575.996    1666.4624   -24242.459   -1109.6091    490.37068    39.438566    35.592658    26.446763 
   99400    227.82697   -481.89122       229892    -22563.52    1619.6748   -24183.195   -1351.6843    490.64095    39.439586    35.596395    26.451313 
   99600    232.64254   -404.22621       229892   -22573.221    1653.9098   -24227.131   -1020.7154    490.27042    39.440079    35.598791    26.438363 
   99800    233.53599   -378.45712       229892   -22573.099    1660.2615   -24233.361   -955.62582    489.94599    39.438611    35.600602    26.443456 
  100000    234.77513   -530.29238       229892   -22560.608    1669.0708   -24229.679   -1503.5176    489.33354    39.439387    35.602509     26.43972 
  100200    233.59801   -342.30079       229892   -22600.947    1660.7025    -24261.65    -793.2881    488.93042    39.438501    35.602106    26.434867 
  100400    237.04438   -409.63115       229892   -22517.768    1685.2035   -24202.971   -1043.7578    491.42229    39.438922     35.60258    26.421541 
  100600    233.67409   -257.95825       229892   -22548.185    1661.2433   -24209.428   -462.23933    491.16925    39.439586    35.601204    26.421228 
  100800     233.9174   -342.41256       229892   -22602.668     1662.973   -24265.641   -794.34206    491.51626    39.439894    35.599851    26.423394 
[...]
 3975800    223.94377   -533.96259       229892    -24713.49    1592.0682   -26305.558   -1569.4944    4141.5128    40.463985    36.124055    26.797671 
 3976000    222.50227   -318.49852       229892   -24752.443    1581.8202   -26334.263    -751.8332    4140.6361    40.464012    36.124749     26.81093 
 3976200    227.32854   -344.55804       229892   -24756.905    1616.1313   -26373.036   -848.56612    4140.8305    40.465674    36.124674    26.810759 
 3976400    218.52782   -477.68836       229892   -24784.228    1553.5649   -26337.793   -1354.0282    4141.4739    40.466349    36.122554    26.811208 
 3976600    223.83732   -330.47826       229892   -24789.994    1591.3114   -26381.305   -754.12399    4139.5131      40.4677    36.122483    26.815061 
 3976800      228.405   -429.59679       229892   -24709.938    1623.7842   -26333.722   -1167.1076    4139.4086    40.468262    36.121414    26.808701 
 3977000    220.95451   -402.63408       229892   -24828.573    1570.8169   -26399.389   -1048.9419    4139.7479    40.469034    36.121743    26.827954 
 3977200    222.32601     -330.254       229892   -24733.728    1580.5672   -26314.295    -764.8176    4139.5759    40.469892     36.12034    26.822429 
 3977400    222.71282   -387.50636       229892   -24749.374    1583.3171   -26332.691   -978.20531    4139.7368    40.470172     36.12007    26.798503 
 3977600    222.59298   -403.42484       229892   -24779.391    1582.4651   -26361.856   -1071.6857    4141.3494    40.471657    36.118476    26.806947 
 3977800    226.64566   -448.35325       229892   -24743.976    1611.2766   -26355.253    -1242.301    4139.7424     40.47313    36.117672    26.797247 
 3978000    222.44996   -348.30394       229892   -24789.637    1581.4484   -26371.085    -800.0476    4140.0564    40.473651    36.117885    26.805073 
 3978200    226.77089   -413.87424       229892   -24725.923    1612.1669    -26338.09   -1154.8333     4140.489    40.474274      36.1179    26.810321 
 3978400    223.15683   -261.85679       229892   -24784.248    1586.4737   -26370.722    -478.6301    4137.9912    40.475411    36.117697    26.800492 
 3978600    224.43025   -391.23035       229892   -24765.947    1595.5267   -26361.474    -1019.681    4140.7791    40.475444    36.117987    26.805505 
 3978800    225.89347   -416.13028       229892   -24723.531    1605.9291    -26329.46   -1077.1359    4139.8151    40.476524    36.117364      26.8081 
 3979000     223.7127   -338.54871       229892   -24752.484    1590.4255   -26342.909   -815.05828    4140.9455    40.476634    36.117666    26.814615 
 3979200    223.35586   -317.73686       229892   -24782.335    1587.8886   -26370.224   -701.97875    4139.8245    40.477113    36.117739    26.799074 
 3979400    227.60273    -347.3537       229892    -24770.97    1618.0806   -26389.051   -832.42503    4140.0129    40.478713    36.117381    26.811497 
 3979600    225.04265   -377.06402       229892   -24776.292    1599.8804   -26376.173   -921.65944    4139.5246    40.478785    36.117075    26.812509 
 3979800    227.17255   -286.15761       229892   -24765.421    1615.0223   -26380.443   -571.68054    4139.7022    40.478735    36.116852    26.812867 
 3980000    223.80665   -434.12782       229892   -24756.262    1591.0934   -26347.355   -1181.9761    4141.9046    40.479458    36.116747    26.809824 
 3980200    223.74463   -379.55059       229892   -24742.113    1590.6525   -26332.765   -950.97811    4138.9679    40.479731    36.116933     26.81492 
 3980400     222.5855   -302.37136       229892   -24749.414    1582.4119   -26331.826   -656.39509    4141.0523    40.480494    36.116859    26.813229 
 3980600    227.74412   -322.18797       229892   -24691.396    1619.0858   -26310.482    -732.9578    4138.8815    40.479792    36.117495    26.811809 
 3980800    227.12261     -497.452       229892   -24692.957    1614.6673   -26307.624   -1419.4363    4140.8319    40.480503    36.116483    26.826365 
 3981000    224.25225   -417.36879       229892   -24728.134    1594.2613   -26322.396   -1101.0261    4140.8423    40.480688    36.116435    26.838162 
 3981200    229.02983   -315.86191       229892   -24726.044    1628.2262    -26354.27   -733.18615    4139.0216    40.481202     36.11629    26.814714 
 3981400    230.20549   -334.62412       229892   -24727.411    1636.5842   -26363.996   -806.67391    4141.1687    40.481919    36.116553    26.813747 
 3981600    220.68429   -456.70039       229892   -24767.174    1568.8958    -26336.07   -1262.1883    4139.8348    40.482637    36.115362    26.827275 
 3981800      231.267   -289.69701       229892   -24736.005    1644.1308   -26380.135   -640.51569    4142.3567    40.483219    36.115538    26.820546 
 3982000    223.57424   -362.15405       229892   -24776.793    1589.4411   -26366.234    -878.3807    4138.8621    40.483707    36.115169    26.821315 
 3982200    225.39587   -340.98598       229892   -24787.584    1602.3915   -26389.976   -774.65488    4141.5096    40.484218    36.114806    26.834622 
 3982400    226.20267   -354.21634       229892   -24722.503    1608.1272    -26330.63   -886.47138    4140.6095    40.485348    36.114677    26.825793 
 3982600    221.28907   -426.28495       229892   -24742.948    1573.1953   -26316.143   -1144.8126    4140.5961    40.484764    36.115198    26.830194 
 3982800    226.59887   -400.54943       229892   -24698.595    1610.9439   -26309.539   -1043.7126    4141.0215     40.48414    36.113486    26.826538 
 3983000    227.61714   -299.58716       229892   -24684.648     1618.183   -26302.831   -635.21063    4139.2916    40.484104     36.11318    26.832501 
 3983200     228.0575   -492.73218       229892   -24719.377    1621.3136   -26340.691   -1415.0445    4141.7655    40.484109    36.112649    26.823748 
 3983400    226.67462   -462.50688       229892   -24669.557    1611.4825   -26281.039   -1270.7835    4140.0065    40.483856    36.112358    26.826614 
 3983600    223.51635   -505.52702       229892   -24719.373    1589.0296   -26308.402   -1494.2058     4141.074    40.484205    36.111914    26.826873 
 3983800    225.41345   -460.13772       229892   -24697.722    1602.5165   -26300.238   -1273.0454    4141.0131    40.484199    36.111582    26.827226 
 3984000    225.21091   -417.28709       229892     -24730.6    1601.0766   -26331.676   -1093.2058    4139.3749    40.483912    36.111838    26.818741 
 3984200    222.64674   -419.99442       229892   -24710.819    1582.8473   -26293.666   -1147.0343    4141.5742    40.484133    36.111329    26.820216 
 3984400    225.46696   -416.38346       229892   -24747.223    1602.8969    -26350.12   -1127.7766    4139.7784    40.484465    36.110873    26.816519 
 3984600     220.6916   -429.53013       229892   -24752.374    1568.9478   -26321.322   -1107.4441    4141.7752    40.483827    36.110424    26.807293 
 3984800    222.73038   -336.45666       229892   -24723.863    1583.4419   -26307.305   -803.42602    4140.1345    40.482872    36.109451    26.813844 
 3985000    224.22375   -379.33757       229892   -24732.923    1594.0587   -26326.982   -986.43378    4139.6126    40.483073     36.11023    26.811077 
 3985200    223.80683   -330.37975       229892   -24714.222    1591.0947   -26305.316   -742.18323    4139.5558    40.483239    36.110116    26.808604 
 3985400    228.40127   -430.30462       229892   -24736.241    1623.7576   -26359.999   -1175.4354    4140.5766     40.48327    36.109567    26.814927 
 3985600    225.80532   -414.32824       229892   -24697.167    1605.3024   -26302.469   -1062.7056    4141.1979     40.48368    36.109575    26.817149 
 3985800    230.84767    -413.6785       229892   -24725.657    1641.1496   -26366.806   -1130.2003    4139.7183    40.484039    36.109227    26.818251 
 3986000    236.50976   -439.21814       229892   -24628.074    1681.4027   -26309.476   -1173.2951    4142.6055    40.484067    36.109745    26.819852 
 3986200    231.71331   -442.05086       229892   -24652.058    1647.3036   -26299.361   -1177.2882    4141.6851    40.483453    36.109867    26.810513 
 3986400    222.53471   -441.70327       229892   -24772.017    1582.0509   -26354.068   -1226.3218    4142.2324    40.483853    36.109375    26.802845 
 3986600    219.56021   -424.69414       229892   -24747.488    1560.9045   -26308.393   -1115.5579     4140.429    40.484456    36.108586    26.805912 
 3986800    226.07034   -394.60037       229892   -24738.203    1607.1865   -26345.389   -1009.7884    4140.9199    40.483664    36.107875    26.803171 
 3987000    225.48529   -307.56191       229892   -24703.253    1603.0272    -26306.28   -663.73577    4140.1348    40.483922    36.107028    26.793447 
 3987200    216.25716   -416.80222       229892   -24808.246    1537.4223   -26345.669   -1097.6563    4140.7694    40.483606    36.106924    26.793941 
 3987400    222.68367   -337.24465       229892   -24749.067    1583.1099   -26332.177   -828.07326    4139.9843    40.483004    36.106844    26.794192 
 3987600    223.04886   -380.60144       229892   -24695.735    1585.7061   -26281.441    -960.7292    4141.4416    40.483215    36.108076    26.794299 
 3987800    223.92001   -419.57359       229892   -24732.722    1591.8993   -26324.622   -1108.3124    4141.2342    40.483463    36.109476    26.804204 
 3988000     227.5904   -422.52831       229892   -24710.429     1617.993   -26328.422   -1124.5743     4141.167    40.483412    36.108768     26.80444 
 3988200    235.31835   -293.19089       229892   -24728.313    1672.9327   -26401.245   -635.12501    4139.6095    40.483348    36.108968    26.798894 
 3988400    221.65266   -289.95543       229892   -24737.176    1575.7802   -26312.956   -622.61042    4139.2283    40.482929    36.108534    26.810707 
 3988600    223.20862    -356.3223       229892   -24778.332    1586.8419   -26365.173   -887.67402    4140.2621    40.482504    36.108364    26.817215 
 3988800    224.53595   -363.96249       229892   -24754.857    1596.2782   -26351.135   -920.69627    4138.9591    40.482781     36.10838    26.807966 
 3989000    223.20953   -317.25787       229892    -24692.05    1586.8483   -26278.898   -758.03416     4139.094    40.482113     36.10769    26.814477 
 3989200    226.99669   -350.76653       229892    -24743.15    1613.7721   -26356.922   -848.52508    4140.2067    40.481478    36.107397    26.823674 
 3989400    219.82286   -405.86748       229892   -24757.591    1562.7717   -26320.362   -1088.5932    4140.8314    40.480799    36.107052    26.822027 
 3989600    228.67674   -417.67222       229892   -24663.675     1625.716   -26289.391   -1119.2073    4141.1167     40.48096    36.107028    26.822843 
 3989800    227.43147   -359.45849       229892   -24709.301    1616.8631   -26326.164   -867.52284    4139.4472    40.482579    36.107549    26.822627 
 3990000    230.08999   -302.92284       229892   -24754.038    1635.7631   -26389.801   -673.82194    4138.3964    40.482279    36.107549    26.813355 
 3990200     223.8719   -349.82989       229892   -24780.035    1591.5572   -26371.592   -854.78521    4139.6344     40.48154    36.107548    26.813911 
 3990400     222.3999   -402.81344       229892   -24735.008    1581.0924   -26316.101   -1070.0884    4140.0999     40.48183    36.106825    26.807588 
 3990600    217.38764   -386.49206       229892   -24764.993    1545.4591   -26310.452   -1010.7631    4139.6562    40.480149    36.107517    26.803634 
 3990800    231.12115   -482.68229       229892   -24714.002    1643.0939   -26357.096   -1362.4316    4140.0652    40.480309    36.107696    26.798835 
 3991000    225.50606   -396.78724       229892   -24723.997    1603.1749   -26327.172   -1057.1226    4139.9464    40.479703    36.107421    26.803176 
 3991200    228.34274    -355.3895       229892   -24692.042    1623.3415   -26315.383    -857.4967    4140.1349    40.478885    36.107296     26.80891 
 3991400    226.75603   -462.43251       229892   -24681.159    1612.0612   -26293.221   -1301.5696    4139.5462    40.478259    36.106249    26.803769 
 3991600     228.1418   -355.49859       229892   -24735.933     1621.913   -26357.846   -886.52741    4139.9529    40.478316    36.106757    26.789555 
 3991800     218.1998   -336.92603       229892   -24808.874     1551.233   -26360.107   -768.15479    4139.4703    40.479237    36.106341    26.789713 
 3992000    224.42283    -445.3464       229892   -24746.049    1595.4739   -26341.523   -1210.0925    4138.6696    40.478408    36.105975    26.780937 
 3992200    222.12616   -375.71213       229892    -24741.03    1579.1464   -26320.176    -934.2115    4140.1475    40.478843    36.105427     26.79196 
 3992400    225.49846   -289.43444       229892   -24752.107    1603.1209   -26355.228   -604.59228    4139.0663    40.478756    36.104726    26.793599 
 3992600     223.4375   -293.94558       229892   -24738.806     1588.469   -26327.275   -584.66831    4140.1735    40.478816    36.105395    26.796288 
 3992800     224.2151   -504.65863       229892   -24736.015    1593.9971   -26330.012   -1453.4364     4140.587    40.479068    36.105714    26.799421 
 3993000    215.06766   -368.61192       229892   -24830.526    1528.9659   -26359.492   -909.50894    4142.0732    40.479398    36.105193      26.7962 
 3993200    227.81228   -329.39152       229892   -24732.833    1619.5703   -26352.403   -800.01789    4140.5896    40.479903    36.104706    26.789236 
 3993400    228.08568    -451.9773       229892   -24715.801     1621.514   -26337.315   -1228.6532    4139.8113    40.480138    36.104268    26.788384 
 3993600    225.30446   -345.00963       229892   -24736.089    1601.7416    -26337.83   -770.69747    4139.0007    40.479838    36.104689    26.788863 
 3993800    228.43849   -272.59038       229892   -24734.727    1624.0222   -26358.749    -547.2129    4140.3948    40.479968    36.103995    26.781853 
 3994000    225.63334   -315.51853       229892   -24751.585    1604.0798   -26355.664   -704.04458    4140.1198     40.48096    36.103095    26.787919 
 3994200    222.98125   -411.78353       229892    -24788.78    1585.2254   -26374.006   -1083.5514    4141.0347    40.481137    36.103389     26.78336 
 3994400    225.17734   -367.90099       229892   -24743.291     1600.838   -26344.129   -905.47667    4139.4911    40.480528    36.103451    26.785096 
 3994600    219.55504   -321.36696       229892   -24799.719    1560.8677   -26360.587   -733.71885    4138.9095    40.480964    36.103391     26.79639 
 3994800    226.44609   -379.53607       229892   -24733.888    1609.8578   -26343.745   -1000.2909    4140.5714    40.482396    36.103043    26.810444 
 3995000    224.64164    -440.7822       229892   -24693.883    1597.0295   -26290.912   -1195.3151    4139.7187    40.482567    36.103034    26.802321 
 3995200    222.96853   -389.74731       229892   -24798.955     1585.135    -26384.09    -1005.912    4140.6055    40.482891    36.102762    26.796904 
 3995400    229.50293   -346.78252       229892   -24715.305    1631.5896   -26346.894   -817.91575    4140.8808    40.483569    36.102607    26.801975 
 3995600    233.56916   -406.57157       229892   -24662.072    1660.4973   -26322.569   -1054.8437    4141.4747    40.484622    36.102081    26.809405 
 3995800    225.91861   -252.93807       229892   -24684.684    1606.1078   -26290.792    -440.1505    4140.7525    40.484199    36.101864    26.823644 
 3996000    229.02589   -528.50471       229892   -24608.632    1628.1982   -26236.831   -1537.9246     4140.858    40.484394    36.101938    26.828415 
 3996200    227.06033   -428.32299       229892   -24673.392    1614.2245   -26287.616   -1138.2383    4140.9101    40.484681    36.103033    26.837078 
 3996400    219.23882   -439.13565       229892   -24760.466    1558.6197   -26319.085   -1206.7941    4141.5639    40.484621    36.102887    26.829513 
 3996600    222.47041   -431.58877       229892   -24723.817    1581.5938   -26305.411   -1169.8766    4140.3943    40.484471    36.102621    26.829315 
 3996800    219.80826   -418.59737       229892   -24776.934    1562.6679   -26339.601   -1087.4162    4141.3521    40.485435    36.103382    26.827126 
 3997000    231.96397   -442.19703       229892   -24646.349    1649.0857   -26295.434   -1203.9239    4139.3801    40.486205    36.103511    26.842088 
 3997200    223.79146   -413.45056       229892   -24725.462    1590.9854   -26316.448   -1072.1719    4139.8541    40.486476    36.103443    26.840925 
 3997400    227.68494   -348.41047       229892   -24778.794    1618.6651   -26397.459   -839.40801    4139.6814    40.486861    36.103328    26.830728 
 3997600    224.30675   -339.44866       229892   -24735.544    1594.6487   -26330.193   -791.05821    4140.0666    40.486834    36.103873    26.836723 
 3997800    219.01532   -476.93032       229892   -24851.296    1557.0307   -26408.327   -1342.0483    4141.5511    40.486342    36.103456    26.831507 
 3998000    225.29754   -464.62702       229892   -24756.526    1601.6924   -26358.219   -1306.8106    4140.1177    40.485636    36.103217    26.834853 
 3998200    223.21777   -385.12594       229892   -24773.586    1586.9069   -26360.493   -974.93297    4140.9143     40.48591    36.104383    26.837707 
 3998400    229.60734   -410.22832       229892   -24664.932    1632.3318   -26297.263   -1051.7145    4140.8904     40.48632    36.104856    26.825856 
 3998600    224.52183   -323.24204       229892   -24779.758    1596.1778   -26375.936   -735.56819    4140.4634    40.485149    36.104366    26.814409 
 3998800    221.96796   -350.18847       229892   -24733.905    1578.0217   -26311.927   -863.44183    4138.9894     40.48496    36.105757    26.814882 
 3999000    233.10782    -330.6773       229892   -24694.072    1657.2175    -26351.29   -784.99682    4139.3114    40.484005    36.105799    26.814695 
 3999200    224.49408   -436.93332       229892   -24764.622    1595.9805   -26360.602   -1235.4528     4139.794    40.483339    36.106862    26.815412 
 3999400    220.79706   -352.70731       229892   -24784.327    1569.6976   -26354.025   -859.02065    4140.7697    40.482564    36.107584     26.81749 
 3999600    222.15571   -309.52758       229892   -24783.804    1579.3565   -26363.161   -670.68929    4138.7168    40.481977    36.107036    26.814559 
 3999800    232.59008   -349.85162       229892   -24711.084    1653.5368   -26364.621   -849.89873    4139.8564    40.482157    36.107382    26.828133 
 4000000    234.31916    -395.7696       229892   -24675.604    1665.8293   -26341.433   -1082.0336    4140.8454    40.482218    36.106863    26.820664 
Loop time of 6608.48 on 120 procs for 4000000 steps with 9010 atoms

Performance: 522.964 ns/day, 0.046 hours/ns, 605.283 timesteps/s
98.1% CPU use with 120 MPI tasks x no OpenMP threads

MPI task timing breakdown:
Section |  min time  |  avg time  |  max time  |%varavg| %total
---------------------------------------------------------------
Pair    | 0.20523    | 1596.8     | 5451.9     |4535.3 | 24.16
Neigh   | 0.30892    | 101.39     | 399.17     |1246.0 |  1.53
Comm    | 15.303     | 2652       | 5871       |3921.5 | 40.13
Output  | 79.501     | 79.578     | 81.116     |   1.6 |  1.20
Modify  | 178.59     | 2136.1     | 6469.7     |5369.2 | 32.32
Other   |            | 42.59      |            |       |  0.64

Nlocal:    75.0833 ave 232 max 0 min
Histogram: 52 8 30 0 0 0 0 0 4 26
Nghost:    603.783 ave 985 max 0 min
Histogram: 10 4 6 2 8 16 25 19 15 15
Neighs:    0 ave 0 max 0 min
Histogram: 120 0 0 0 0 0 0 0 0 0
FullNghs:  7434.22 ave 28976 max 0 min
Histogram: 70 20 0 0 0 0 0 2 14 14

Total # of neighbors = 892106
Ave neighs/atom = 99.0129
Neighbor list builds = 425151
Dangerous builds = 0
write_data 		${DIR}/data.${NAME}_run
write_data 		run_19/data.${NAME}_run
write_data 		run_19/data.ibeam_cooling_19_run
Total wall time: 1:50:27
