
# Set production fixes - Nose/Hoover
#
fix                 4 water temp/csvr ${START_TEMP} ${END_TEMP} 500.0 928347
fix                 4 water temp/csvr 235 ${END_TEMP} 500.0 928347
fix                 4 water temp/csvr 235 225 500.0 928347


## divide "droplet" into core and surface
#region		core_reg cylinder z 135 135 44.6 20 INF units box
#region		surface_reg cylinder z 135 135 44.6 20 INF units box side out
#group		core dynamic all region core_reg
#group		surface dynamic all region surface_reg

## compute pressure core
#compute        peratom_core core stress/atom NULL
#compute        p_core core reduce sum c_peratom_core[1] c_peratom_core[2] c_peratom_core[3]
#variable       press_core equal -(c_p_core[1]+c_p_core[2]+c_p_core[3])/(3*1249982.5)


## compute pressure surface
#compute        peratom_surf surface stress/atom NULL
#compute        p_surf surface reduce sum c_peratom_surf[1] c_peratom_surf[2] #c_peratom_surf[3]
#variable       press_surf equal -(c_p_surf[1]+c_p_surf[2]+c_p_surf[3])/(3*42395)

## compute total pressure of drop
compute        peratom water stress/atom NULL
compute        p water reduce sum c_peratom[1] c_peratom[2] c_peratom[3]
variable       press equal -(c_p[1]+c_p[2]+c_p[3])/(3*58187)


# compute order parameter
compute        3 all orientorder/atom nnn NULL cutoff 3.5

# compute center of mass of bridge
compute 	4 water com

# Run simulation
thermo_style        custom step c_2 press vol etotal ke pe v_press c_1[4] c_4[*]
thermo              200
dump		     1 water custom 400 ${DIR}/prod.${NAME}.dump id type x y z vx vy vz c_3[*] c_peratom[*]
dump		     1 water custom 400 run_16/prod.${NAME}.dump id type x y z vx vy vz c_3[*] c_peratom[*]
dump		     1 water custom 400 run_16/prod.ibeam_cooling_16.dump id type x y z vx vy vz c_3[*] c_peratom[*]
run                 ${STEPS}
run                 4000000
Neighbor list info ...
  update every 1 steps, delay 0 steps, check yes
  max neighbors/atom: 2000, page size: 100000
  master list distance cutoff = 6.67472
  ghost atom cutoff = 6.67472
  binsize = 3.33736, bins = 24 22 12
  2 neighbor lists, perpetual/occasional/extra = 1 1 0
  (1) pair sw, perpetual
      attributes: full, newton on
      pair build: full/bin/atomonly
      stencil: full/bin/3d
      bin: standard
  (2) compute orientorder/atom, occasional, copy from (1)
      attributes: full, newton on
      pair build: copy
      stencil: none
      bin: none
Per MPI rank memory allocation (min/avg/max) = 0.8661 | 6.238 | 7.207 Mbytes
Step c_2 Press Volume TotEng KinEng PotEng v_press c_1[4] c_4[1] c_4[2] c_4[3] 
       0    236.98352   -415.34074       229892   -22623.355    1684.7708   -24308.126   -1113.3555    32.883235    39.444325     35.56162    26.751094 
     200    229.91923   -455.25739       229892   -22661.318    1634.5492   -24295.867   -1263.6004    35.254378    39.445362    35.561725    26.771919 
     400    233.07575   -330.13912       229892   -22606.802    1656.9896   -24263.791   -765.23328    35.982732    39.446052    35.561002    26.800131 
     600    237.28285   -247.58129       229892   -22476.297    1686.8989   -24163.196   -416.52134    36.494325    39.446659    35.561918    26.805026 
     800    235.21142   -499.08546       229892   -22465.661    1672.1726   -24137.833   -1408.3893    36.410287    39.445479    35.562367    26.797016 
    1000    231.81285   -398.51429       229892   -22507.723    1648.0113   -24155.734   -1012.1917    38.060641    39.446319    35.565692    26.789898 
    1200    234.17484   -363.70165       229892   -22479.931    1664.8033   -24144.734   -937.11925    40.281944    39.444591    35.566887    26.803439 
    1400    239.68122   -291.30954       229892    -22475.83    1703.9494    -24179.78    -640.0037    40.837134     39.44706      35.5662     26.80624 
    1600     234.6635   -365.89894       229892   -22476.384    1668.2773   -24144.661   -865.55148    41.681031    39.446384    35.565634    26.784277 
    1800    236.84276   -359.73913       229892    -22465.57    1683.7701    -24149.34   -899.27936    43.065605    39.447433    35.565923    26.778105 
    2000    240.16597   -504.81299       229892   -22410.057    1707.3956   -24117.452   -1458.9262    43.850422    39.448642    35.565706    26.767761 
    2200    235.53307   -297.03446       229892   -22496.247    1674.4592   -24170.706   -591.61856    45.075756    39.448041    35.565873    26.769047 
    2400    240.45065   -396.02848       229892   -22481.193    1709.4195   -24190.612   -1009.9473    46.778157    39.449153    35.568214    26.749212 
    2600    235.41183   -210.58315       229892   -22575.833    1673.5973    -24249.43   -285.38709    47.230782    39.448942     35.57111    26.751086 
    2800    242.67672   -159.61883       229892   -22474.018    1725.2451   -24199.263   -94.893315     48.12456    39.448845    35.572439    26.741695 
    3000    234.72822   -114.83177       229892   -22470.432    1668.7374   -24139.169    86.118241    49.716489    39.448681    35.573753    26.747153 
    3200    229.71122   -530.92831       229892   -22560.315    1633.0703   -24193.385   -1550.0353    51.366821    39.448373    35.572742    26.773066 
    3400     232.4801    -412.8598       229892   -22517.164    1652.7549   -24169.919   -1090.3984    52.952921    39.449593    35.569749    26.779745 
    3600    236.78166   -259.68911       229892   -22515.348    1683.3358   -24198.684   -492.82438    54.162729    39.450655    35.570131     26.77949 
    3800    234.78025   -362.47589       229892    -22464.79    1669.1072   -24133.898   -885.88103    55.192873    39.449771    35.569286    26.764183 
    4000    229.59015   -294.76467       229892   -22550.006    1632.2096   -24182.215   -602.22898    56.564016    39.451047    35.569258    26.763086 
    4200    234.81643    -362.0968       229892   -22510.408    1669.3645   -24179.773   -882.20221    57.346275    39.452023    35.569926    26.756193 
    4400    237.66586     -557.244       229892   -22529.488    1689.6217   -24219.109    -1655.877    59.141379    39.453257    35.571045    26.749576 
    4600    230.86092   -563.15846       229892   -22594.351    1641.2438   -24235.595   -1695.7795    59.996087    39.453482    35.570723    26.738323 
    4800    233.54643   -377.88713       229892     -22492.6    1660.3357   -24152.936   -919.71406    61.160789    39.453935    35.572718    26.735453 
    5000     223.7743   -310.20349       229892   -22525.289    1590.8634   -24116.152   -672.78106     62.03608      39.4548    35.574983    26.733689 
    5200    234.10203   -265.98606       229892   -22564.394    1664.2856   -24228.679   -498.12483    63.110868    39.453473     35.57701    26.726286 
    5400    230.77542   -479.33474       229892    -22567.13     1640.636   -24207.766   -1354.1623     65.24435    39.454363    35.575847    26.733578 
    5600    232.60422   -346.41247       229892    -22569.55    1653.6373   -24223.188   -827.09004     65.68287    39.455287    35.573462    26.719547 
    5800    234.15248   -392.93627       229892   -22546.037    1664.6443   -24210.681   -1012.6598    66.927956    39.454538     35.57356    26.727551 
    6000    234.80501   -239.19544       229892   -22598.997    1669.2833   -24268.281   -418.88782    68.682683     39.45516    35.574063    26.729645 
    6200    233.51418    -375.6146       229892   -22630.001    1660.1064   -24290.107   -918.74974    69.230461    39.453681    35.572932    26.732286 
    6400    231.09321   -383.96887       229892   -22635.079    1642.8952   -24277.974   -919.46913    70.412273    39.452368    35.573868    26.723402 
    6600    238.13383   -435.38569       229892   -22629.936    1692.9486   -24322.885   -1202.8735    72.391997    39.452529     35.57488    26.738644 
    6800     232.9953   -357.43689       229892   -22642.428    1656.4176   -24298.845   -880.33847    73.341643    39.456855    35.574444    26.730635 
    7000    232.90796   -309.15396       229892   -22603.123    1655.7967    -24258.92   -706.95267     73.74117    39.458429    35.577263    26.742621 
    7200    231.78963   -357.62316       229892   -22687.727    1647.8462   -24335.573   -839.83069    74.847238    39.457883    35.577743    26.736275 
    7400    231.56763   -274.71714       229892    -22642.91     1646.268   -24289.178   -539.47672    76.785871    39.457228    35.576549    26.741425 
    7600    236.55072   -309.89535       229892   -22519.524    1681.6939   -24201.218    -651.5247    77.231112    39.457348    35.574779    26.735364 
    7800     232.1384   -149.33198       229892   -22632.781    1650.3257   -24283.107   -58.039565    78.876527    39.455477    35.573515    26.735722 
    8000    234.63596   -418.40351       229892   -22476.582    1668.0815   -24144.664   -1110.0648    80.149987    39.453339    35.573935    26.734734 
    8200    231.51232   -382.49479       229892   -22511.244    1645.8748   -24157.119   -971.02926    80.741823    39.452688    35.574433    26.750716 
    8400    237.83079   -477.80684       229892    -22457.98    1690.7942   -24148.775   -1334.6722    82.595148    39.453036    35.571584     26.75813 
    8600    231.70039   -398.69267       229892   -22536.779    1647.2118   -24183.991   -1068.6337    83.897096    39.451449    35.570484    26.762561 
    8800    228.42653   -411.03757       229892   -22540.146    1623.9372   -24164.083   -1078.1446     85.22827    39.451236    35.570543    26.780693 
    9000    231.79032   -310.48954       229892   -22504.648    1647.8512   -24152.499   -693.45217    86.645873    39.449458     35.57011    26.793488 
    9200    243.33513   -329.59541       229892   -22506.506    1729.9259   -24236.432   -756.99162    87.712518    39.449987    35.570295    26.797004 
    9400    233.79938   -296.66665       229892   -22537.359     1662.134   -24199.494   -663.70532    90.931734    39.450794    35.571741    26.818989 
    9600    231.55831   -320.08385       229892   -22600.273    1646.2017   -24246.475   -724.09147    90.554314    39.448103    35.573427    26.817325 
    9800    235.07941   -238.61429       229892   -22487.521     1671.234   -24158.755   -406.44123    92.474271    39.447546    35.570421    26.816587 
   10000     226.4212   -350.20811       229892   -22552.577    1609.6808   -24162.258   -870.65623    93.267231    39.447241    35.571117    26.821155 
   10200    241.08562   -475.68434       229892   -22469.408    1713.9336   -24183.341   -1341.4936    95.135293    39.445911    35.570453    26.819211 
   10400    237.08759   -280.66507       229892   -22484.698    1685.5107   -24170.209    -578.0848    97.082346    39.446659    35.570893    26.821572 
   10600    235.14057   -353.58798       229892   -22572.216    1671.6689   -24243.885   -847.54799    97.372673    39.445707    35.570127    26.831134 
   10800     228.7642   -501.95852       229892   -22611.354    1626.3377   -24237.692   -1415.0833    98.070278    39.445315    35.569953    26.858236 
   11000    234.56899   -370.29742       229892   -22612.503    1667.6053   -24280.108   -898.66434    100.08463    39.445929    35.569565    26.870148 
   11200    237.92771   -247.11698       229892    -22599.87    1691.4833   -24291.353   -447.49398    101.72134    39.444944    35.569033    26.879195 
   11400    236.73421   -144.95129       229892   -22574.845    1682.9984   -24257.844   -27.052438    103.33954     39.44521    35.568556    26.879943 
   11600    238.51177   -369.90902       229892   -22508.433    1695.6355   -24204.069   -935.70872     105.8339    39.443523    35.567573    26.883395 
   11800    231.36812   -192.58118       229892   -22474.459    1644.8497   -24119.308   -224.62631     106.5806    39.441664    35.566245    26.888172 
   12000    238.11913   -247.54287       229892   -22470.474    1692.8441   -24163.318   -425.57249    108.93067    39.443005    35.565766    26.884178 
   12200    233.76746   -443.14442       229892   -22480.871    1661.9071   -24142.778   -1233.6554    110.08744    39.443916     35.56786    26.895911 
   12400    234.03528   -516.51753       229892   -22541.261    1663.8111   -24205.072   -1535.8433    111.08805    39.444383    35.571549    26.902992 
   12600    241.69337   -339.89226       229892   -22484.571    1718.2542   -24202.825   -766.65088     111.3611     39.44334    35.571683    26.908657 
   12800    235.76461   -367.55977       229892   -22533.525    1676.1053    -24209.63    -884.4878    111.87478    39.442099    35.571772    26.900155 
   13000    235.04818    -310.4502       229892   -22593.133     1671.012   -24264.145    -686.2841    112.26985    39.441093    35.570163    26.899903 
   13200    234.97172   -230.66767       229892   -22632.193    1670.4685   -24302.661   -386.71567     113.3373    39.441869    35.568237    26.902132 
   13400    228.58039   -119.38879       229892   -22660.329     1625.031    -24285.36    79.917503    113.55823    39.445616    35.567569    26.906874 
   13600    226.91657   -328.19595       229892   -22587.902    1613.2025   -24201.104    -765.6544    114.38347    39.448539    35.564532    26.889556 
   13800    239.75084   -257.54456       229892   -22554.861    1704.4443   -24259.306   -432.51163    115.57298    39.447257     35.56351    26.902894 
   14000     238.9929   -398.69011       229892   -22511.591     1699.056   -24210.647   -1010.9657    116.58329    39.447676    35.561588    26.892273 
   14200    236.44137   -313.18723       229892   -22567.801    1680.9165   -24248.717   -675.72309    116.28105    39.447171    35.561436    26.886049 
   14400    233.45545   -597.16035       229892   -22610.158     1659.689   -24269.847   -1808.3408    117.27727    39.449861    35.562317    26.871704 
   14600     235.0073   -481.28863       229892   -22564.147    1670.7214   -24234.868   -1327.1621    118.22045    39.450716    35.561131    26.891858 
   14800    235.52526   -377.51769       229892   -22492.624    1674.4037   -24167.028   -991.28156    119.53828    39.450479    35.560093    26.901056 
   15000    231.98051   -399.59886       229892   -22516.886    1649.2033   -24166.089   -1028.6062     119.7244    39.450792    35.560914     26.90326 
   15200    234.86832    -185.4377       229892   -22461.515    1669.7334   -24131.248   -166.63849    121.07591    39.451765    35.559468     26.89997 
   15400    234.71213   -257.04423       229892   -22539.621     1668.623   -24208.244   -492.92048    121.76755    39.451341    35.558333    26.895822 
   15600    241.62319   -454.73997       229892   -22432.661    1717.7553   -24150.416   -1280.8793    123.88315    39.451074    35.556875     26.90582 
   15800    241.98413   -364.18608       229892   -22485.664    1720.3213   -24205.985   -888.45695    125.58388    39.450549    35.554484    26.905151 
   16000    235.32695   -213.25172       229892   -22524.971    1672.9939   -24197.964   -291.34246    127.25807    39.450771    35.554732    26.889464 
   16200    239.61004   -391.19778       229892   -22466.881    1703.4434   -24170.325   -997.42954     128.6326    39.451104    35.553288      26.9082 
   16400    230.86837   -130.53726       229892   -22527.834    1641.2968   -24169.131   -16.454669     129.9952    39.450666    35.551585    26.909115 
   16600    240.20077   -180.99761       229892   -22479.792     1707.643   -24187.435   -146.43963    131.53648     39.44903    35.550626    26.896408 
   16800    234.87421    -288.5067       229892   -22513.517    1669.7752   -24183.292   -608.33805    132.03556     39.45077     35.54969    26.886422 
   17000    228.32227   -539.04266       229892   -22571.017     1623.196   -24194.213   -1555.6487     134.2929    39.449954    35.549497    26.890506 
   17200    237.67642   -384.20652       229892   -22562.074    1689.6968   -24251.771   -956.51825    134.15878    39.448845    35.548472    26.891021 
   17400    232.56875   -313.45073       229892   -22633.103    1653.3852   -24286.488   -672.20752    135.02443    39.450267    35.547763    26.894466 
   17600     237.0306   -443.32511       229892   -22518.298    1685.1055   -24203.403   -1184.2695    135.97885     39.44833     35.54853    26.896262 
   17800     233.6978   -210.33396       229892   -22582.392    1661.4119   -24243.804   -306.06794    136.56177    39.447067    35.549636    26.878923 
   18000    234.54025   -518.11024       229892   -22518.594    1667.4011   -24185.995   -1526.2093    138.61774    39.447031    35.549417     26.87404 
   18200    236.71141   -444.29771       229892   -22533.614    1682.8363    -24216.45   -1208.4282    139.80762    39.446113    35.551025     26.88642 
   18400    235.28996   -426.43903       229892   -22534.582    1672.7309   -24207.313   -1133.8647     141.7127    39.447989    35.549615    26.876624 
   18600    234.86469   -256.56159       229892   -22518.678    1669.7076   -24188.385   -435.20804    142.30148    39.447733    35.548785    26.875512 
   18800    228.85123   -347.27745       229892   -22551.524    1626.9565   -24178.481   -804.03432    142.95889     39.44799    35.548508    26.869825 
   19000    233.27979   -392.57689       229892    -22505.64    1658.4401    -24164.08   -1007.9491    146.14402    39.447597    35.548513    26.866867 
   19200    235.50858   -299.32878       229892    -22511.41    1674.2851   -24185.696   -644.16865    146.72678    39.445607    35.545301    26.860053 
   19400    239.42628   -409.81425       229892   -22471.714     1702.137   -24173.851   -1029.1889    148.35141    39.444501    35.545729    26.843476 
   19600    230.87156   -350.03306       229892   -22468.548    1641.3195   -24109.868   -847.71451    148.97285    39.442755    35.547626    26.837705 
   19800    237.10036    -297.6572       229892   -22461.901    1685.6015   -24147.502   -674.07064    150.33988     39.44241    35.547796     26.87466 
   20000    238.31186   -236.41077       229892   -22547.559    1694.2143   -24241.773   -387.18315    152.73535    39.442988    35.548055     26.86574 
   20200    229.85911   -400.10771       229892   -22655.008    1634.1217    -24289.13   -1022.9397    153.91592    39.442767    35.548962    26.876225 
   20400      235.671   -482.07796       229892   -22569.907    1675.4398   -24245.347   -1348.7006    154.91904    39.443932    35.550775    26.855826 
   20600    234.54161    -289.7874       229892   -22623.742    1667.4107   -24291.152   -569.45714    155.12236    39.442009    35.550722    26.860115 
   20800    239.42899   -279.30269       229892   -22514.239    1702.1562   -24216.395   -561.05842    156.69615    39.438184    35.552603    26.849048 
   21000    233.15838   -234.10931       229892   -22498.817     1657.577   -24156.394   -341.31598    158.28368    39.435914    35.552729    26.859526 
   21200    233.08805   -381.79271       229892   -22481.716     1657.077   -24138.793   -949.62972    159.31306    39.434766    35.552039    26.843627 
   21400    237.40988   -352.08775       229892   -22478.016    1687.8019   -24165.818     -827.585    160.09896    39.435125    35.551221    26.860968 
   21600    239.23788    -496.9883       229892    -22457.54    1700.7976   -24158.338   -1390.3608     160.3715     39.43354    35.550967     26.85494 
   21800    237.03371   -365.64581       229892   -22567.655    1685.1276   -24252.783   -856.52129    162.06284    39.433549    35.547751    26.844633 
   22000    229.94732   -326.69361       229892   -22588.954    1634.7488   -24223.703    -680.8432    162.76876    39.433104    35.546998     26.84058 
   22200    231.21724   -285.21804       229892   -22613.581     1643.777   -24257.358   -588.18239      163.498    39.432752    35.546923    26.841027 
   22400    239.93885   -368.16191       229892   -22467.531    1705.7809   -24173.312   -918.53246    164.45665    39.431495    35.551408    26.860953 
   22600    238.25962   -325.10102       229892   -22517.057    1693.8429     -24210.9   -730.99593      165.149    39.431307    35.551401    26.860916 
   22800    233.83549   -432.54976       229892   -22499.597    1662.3907   -24161.988   -1165.0138    165.86692    39.431962    35.549044    26.847559 
   23000    230.45954   -262.94262       229892    -22560.33    1638.3904   -24198.721   -484.02503    168.81624    39.432341    35.547257    26.872145 
   23200    241.82452   -208.78491       229892   -22519.083    1719.1866   -24238.269     -266.582    171.03261    39.431585    35.545262    26.879216 
   23400    239.49427   -339.14191       229892   -22526.312    1702.6204   -24228.932   -790.84331    171.14124      39.4303    35.545049    26.873807 
   23600    235.43792   -464.21915       229892   -22497.856    1673.7828   -24171.639   -1287.5991    173.36739    39.431437    35.545022      26.8803 
   23800    236.77792    -439.1958       229892   -22498.967    1683.3092   -24182.277   -1189.6013    175.18195     39.43162    35.545365    26.902408 
   24000     232.9981     -379.884       229892   -22504.835    1656.4376   -24161.272   -926.04047    176.86629    39.432872    35.544934    26.895117 
   24200    238.08376   -324.45928       229892   -22512.445    1692.5927   -24205.038   -741.00386    178.27358     39.43335    35.545589    26.890605 
   24400    237.18737   -387.00362       229892   -22583.639      1686.22   -24269.859   -949.09289    178.28821     39.43243    35.546163     26.87656 
   24600    232.28509   -402.89752       229892    -22580.32    1651.3686   -24231.688   -1079.0616    179.34547    39.432038    35.546218    26.870287 
   24800    232.11439   -452.62608       229892    -22567.04     1650.155   -24217.195   -1236.3986    179.81522    39.432076    35.547587    26.861085 
   25000    239.89268   -282.75822       229892   -22585.313    1705.4527   -24290.765   -560.50709     181.5336    39.432053    35.549844    26.860875 
   25200    219.49879   -342.39247       229892   -22684.292    1560.4678    -24244.76   -788.57841    182.35151    39.431127    35.550318     26.85987 
   25400    237.09614   -463.05065       229892   -22549.933    1685.5715   -24235.505   -1292.9538     182.8028    39.432461     35.54965    26.842741 
   25600    235.48437    -261.6769       229892    -22450.04     1674.113   -24124.153   -492.06185    183.68063    39.433414    35.547813     26.83427 
   25800    240.05609   -111.01207       229892   -22524.124    1706.6144   -24230.739    113.42827    184.23782    39.435149     35.54689     26.83836 
   26000    235.63369   -530.13417       229892   -22552.499    1675.1746   -24227.674   -1555.7059    186.02759    39.437316    35.547047    26.839394 
   26200    234.52168   -293.79552       229892   -22510.993     1667.269   -24178.262   -633.41401     186.9134      39.4375    35.544975    26.837305 
   26400    230.23831    -328.5483       229892   -22541.092    1636.8176    -24177.91   -706.89658    188.66769    39.436344     35.54583    26.842863 
   26600     233.9547   -389.86619       229892   -22463.681    1663.2382   -24126.919   -1026.3115    190.86935     39.43538    35.546047    26.832007 
   26800    230.21051   -441.16015       229892   -22483.579    1636.6199   -24120.199   -1195.4248    192.64515    39.433687    35.547377    26.814558 
   27000    239.87724   -232.67398       229892   -22440.644    1705.3429   -24145.987   -407.23334    192.99311    39.433228    35.547353    26.809939 
   27200    236.80148   -296.59913       229892   -22508.644    1683.4767    -24192.12   -624.62712    195.20247    39.435297    35.548378    26.801355 
   27400     242.0213   -239.78887       229892   -22455.866    1720.5856   -24176.452   -416.04926     197.8498    39.437259    35.547213    26.812292 
   27600    233.08514   -357.91234       229892   -22587.049    1657.0563   -24244.105   -888.01604    199.38103    39.437825    35.547517    26.810871 
   27800    241.49315   -358.78135       229892   -22466.387    1716.8309   -24183.218   -850.36951     199.3897    39.437911    35.551377    26.806275 
   28000    233.26454   -422.22703       229892   -22575.944    1658.3317   -24234.276   -1111.0574    200.49223    39.435758    35.551876    26.798308 
   28200    238.35756   -436.56997       229892   -22513.537    1694.5392   -24208.077   -1203.3208    201.26501    39.434991    35.552577     26.81272 
   28400    234.68885   -383.53321       229892   -22546.113    1668.4575    -24214.57   -977.35074    202.11862    39.435962     35.54862     26.81098 
   28600    236.02354   -334.46027       229892   -22574.856    1677.9461   -24252.802   -791.32804    202.30687    39.436174    35.546264    26.801265 
   28800    230.64607   -405.63834       229892   -22569.314    1639.7164    -24209.03   -1055.4812    203.65022    39.434431     35.54579    26.814283 
   29000    226.91855   -358.51187       229892   -22533.585    1613.2166   -24146.801   -864.70169    205.59472    39.432616    35.545352    26.812725 
   29200    232.80455   -446.41528       229892   -22475.257    1655.0615   -24130.318    -1201.136    206.18012    39.432002    35.548469    26.813053 
   29400    240.77753   -411.37675       229892   -22518.765    1711.7433   -24230.509   -1047.9346    207.28351    39.430003    35.548496      26.8107 
   29600     236.7467   -389.15166       229892   -22498.141    1683.0872   -24181.228   -958.14642    207.94154    39.427014    35.548335    26.811855 
   29800     232.8381   -266.66023       229892   -22582.672       1655.3   -24237.972   -535.02248    209.06717    39.427506    35.546566     26.82765 
   30000    229.84384   -316.36313       229892   -22654.095    1634.0132   -24288.108   -736.54058    211.35019    39.429613    35.545045     26.83399 
   30200    236.52671   -334.78118       229892    -22562.86    1681.5233   -24244.384   -731.96336    212.07059     39.42888    35.545387    26.835463 
   30400    232.67296   -284.38042       229892   -22605.216    1654.1261   -24259.342   -564.94273     213.7772     39.42794    35.545367    26.846355 
   30600    235.83702   -170.10117       229892   -22679.388    1676.6201   -24356.008   -113.98884    213.52587    39.429478    35.544151    26.836702 
   30800    232.74537   -274.76032       229892   -22670.603    1654.6408   -24325.244   -528.39507    214.70332    39.426943    35.542126    26.846067 
   31000    233.90868   -315.57269       229892   -22623.865    1662.9111   -24286.776   -725.86398    214.35331    39.423659    35.542128    26.837989 
   31200    231.02519   -307.50185       229892   -22606.447    1642.4116   -24248.859   -684.67805     214.7678    39.423079    35.540033    26.845852 
   31400    236.24795   -393.33363       229892   -22591.263    1679.5415   -24270.805   -1017.6462     215.2374    39.423643    35.540645    26.866604 
   31600    235.68339   -392.39314       229892   -22630.559    1675.5279   -24306.087   -1011.2168    214.71716    39.424212     35.53853    26.899892 
   31800    237.11165   -200.61203       229892   -22544.485    1685.6817   -24230.167   -206.99725      214.612    39.424234    35.536135    26.898218 
   32000    230.91311   -390.67059       229892   -22611.529    1641.6148   -24253.144   -931.27293    216.44552    39.421977    35.536772    26.903812 
   32200    233.06267   -342.86696       229892   -22610.433    1656.8966    -24267.33      -784.74    218.44626     39.42271     35.53776    26.894656 
   32400    234.49308   -391.01689       229892   -22621.091    1667.0657   -24288.156   -966.21797    218.57788    39.426422    35.535165    26.892699 
   32600    238.03067   -397.76982       229892   -22555.063    1692.2152   -24247.278   -1020.4036    217.25314    39.427256    35.532074    26.884348 
   32800    241.70792   -278.34083       229892   -22545.222    1718.3576   -24263.579   -533.70364    218.71374    39.427976    35.531106    26.855867 
   33000      235.436   -371.16077       229892   -22532.414    1673.7691   -24206.183   -900.56111    219.27543    39.429284    35.530757    26.838861 
   33200    239.60907    -353.8212       229892   -22529.569    1703.4365   -24233.006   -843.78447    221.04987    39.430784    35.533881    26.830419 
   33400    228.00703   -361.17383       229892   -22607.483    1620.9548   -24228.438   -862.31756    222.36934     39.42819    35.535621    26.818718 
   33600    232.50983   -331.31336       229892   -22594.309    1652.9663   -24247.275   -764.94045    222.49011    39.428787    35.534541    26.806697 
   33800    241.13648   -255.09541       229892   -22455.035    1714.2951    -24169.33   -422.47561    223.22066    39.426445    35.533038     26.80142 
   34000    232.17331   -360.83484       229892    -22554.68    1650.5739   -24205.254   -851.60545    224.70741    39.425671    35.531647    26.799834 
   34200    237.84681   -296.59186       229892   -22531.041    1690.9082   -24221.949   -577.02588    224.65085    39.423483    35.531317    26.794505 
   34400    235.06016   -448.04305       229892   -22576.441    1671.0972   -24247.538   -1191.0457     226.6744    39.422294     35.52972    26.801485 
   34600    235.65763    -319.6958       229892   -22422.063    1675.3448   -24097.408   -701.07301    227.85781    39.421158    35.530248    26.774208 
   34800    234.92286   -310.93014       229892   -22493.295    1670.1211   -24163.416   -700.50395    228.93176    39.420516    35.531215    26.777161 
   35000    231.94297   -323.41101       229892   -22573.825    1648.9364   -24222.762   -710.73886    229.84303    39.419266    35.530451    26.780426 
   35200    242.04876   -236.53803       229892   -22520.724    1720.7808   -24241.505   -413.41788    229.06565    39.421065    35.529362    26.790263 
   35400    234.36366   -318.04784       229892    -22525.37    1666.1456   -24191.516   -693.66476    229.59609    39.422705     35.52913    26.785022 
   35600    231.29859   -422.46617       229892   -22546.596    1644.3554   -24190.952   -1102.3069    233.45487    39.423169    35.529779    26.794933 
   35800    240.92291   -281.50938       229892   -22462.245    1712.7768   -24175.022   -561.24969    234.31819     39.42262    35.531089    26.781381 
   36000    228.11184   -171.15489       229892   -22580.597       1621.7   -24202.297   -128.66235    235.78244    39.423189    35.528946    26.772869 
   36200    235.82438   -360.97893       229892   -22571.049    1676.5302   -24247.579   -851.79537    237.40951    39.424246     35.53039    26.778944 
   36400    231.03912    -301.4902       229892   -22546.537    1642.5107   -24189.047   -630.41954    237.62562    39.422982    35.529559    26.776868 
   36600    232.14273   -401.92881       229892   -22510.409    1650.3565   -24160.766   -1020.4369    238.14249    39.420627    35.531313     26.78276 
   36800    231.02925   -350.27276       229892   -22545.929    1642.4405   -24188.369   -824.79636    240.05328    39.423332    35.534698    26.778235 
   37000    230.96537   -355.64528       229892   -22559.422    1641.9864   -24201.408   -823.93688    242.27891    39.423561    35.537355    26.790065 
   37200    233.72735   -371.45173       229892   -22559.767    1661.6219   -24221.389   -907.81421    243.00921    39.425112    35.538213    26.780883 
   37400    225.63998   -324.50393       229892   -22566.031    1604.1269   -24170.158   -708.23364    243.63585    39.424021    35.538565    26.776688 
   37600    226.02346   -347.73232       229892   -22559.032    1606.8532   -24165.885   -792.59351    243.57363    39.424368    35.538815    26.777728 
   37800     233.3875   -295.18799       229892   -22612.295    1659.2058   -24271.501   -601.67331    244.71235    39.424537    35.538072    26.768917 
   38000    237.43504   -473.50937       229892   -22518.194    1687.9808   -24206.175   -1295.2533    247.58251    39.425623    35.536585    26.754447 
   38200    230.97069   -372.57431       229892   -22540.773    1642.0242   -24182.797   -932.70136    248.53779    39.425847    35.533629    26.755469 
   38400     240.3911   -198.94118       229892   -22465.594    1708.9961    -24174.59   -222.01244    248.81773    39.426243    35.535267     26.73972 
   38600    234.71232   -352.93934       229892   -22525.786    1668.6244   -24194.411   -805.02267    250.24745    39.425186    35.535262    26.744732 
   38800    236.29761   -331.21693       229892   -22545.849    1679.8945   -24225.743   -751.18134     250.5596    39.425396    35.532777    26.747818 
   39000    235.10958   -393.77029       229892   -22529.351    1671.4485     -24200.8   -993.79645    251.36503    39.426775    35.533825    26.735918 
   39200     229.8013   -188.82278       229892    -22616.24    1633.7108   -24249.951   -190.23337    250.75764    39.426432    35.532728    26.716967 
   39400    228.39223   -210.09187       229892    -22608.01    1623.6934   -24231.703    -297.1765    252.19808    39.427903     35.53194    26.689258 
   39600    235.54818   -371.37364       229892   -22546.922    1674.5666   -24221.489   -956.38744    252.88661    39.429439    35.531526    26.660397 
   39800    231.72519   -410.87106       229892   -22563.011    1647.3881   -24210.399   -1103.0673    253.63179    39.429853    35.533364    26.681314 
   40000    235.97393   -511.70841       229892   -22536.583    1677.5934   -24214.176   -1442.4866    255.13747    39.428014    35.534502    26.693117 
   40200    232.19736   -429.38919       229892    -22527.96    1650.7449   -24178.705   -1156.3879    256.21474     39.42574    35.534963    26.679657 
   40400    232.40379   -340.07783       229892   -22558.341    1652.2125   -24210.553   -746.91656    255.75156    39.425811    35.534631    26.670951 
   40600    229.45644    -465.5264       229892   -22472.393     1631.259   -24103.652   -1270.7328    256.90401    39.427759    35.534669    26.658205 
   40800    231.03039   -397.55404       229892   -22574.435    1642.4486   -24216.883   -1022.7188    257.12986    39.428397    35.535881    26.643143 
   41000    236.15786   -428.35479       229892   -22500.735     1678.901   -24179.636   -1147.0902    257.28487    39.427111    35.532681    26.640569 
   41200    242.63099   -337.50449       229892     -22440.3      1724.92    -24165.22   -789.94397    259.14817    39.426608    35.531411    26.636697 
   41400    238.21207    -216.0289       229892   -22486.744    1693.5049   -24180.249   -343.40881    258.23398    39.427152    35.528601     26.64886 
   41600    230.54054   -188.99515       229892   -22481.885    1638.9662   -24120.851   -170.50583    258.35866     39.42733    35.528201    26.649042 
   41800    232.77888   -227.97454       229892   -22493.731     1654.879    -24148.61   -352.60506    259.00454    39.428425    35.527715     26.66012 
   42000    233.18646   -123.63209       229892   -22520.225    1657.7766   -24178.002     48.01732     260.6985    39.430097    35.527727    26.680359 
   42200    236.89381   -340.43464       229892   -22576.819     1684.133   -24260.952   -782.42528    262.27125    39.430371    35.528841    26.667539 
   42400    235.58734   -271.32534       229892   -22526.743    1674.8451   -24201.588   -500.70902    262.99655    39.429156    35.530218    26.683765 
   42600    233.89724   -388.75475       229892   -22586.708    1662.8297   -24249.538   -976.47391     263.3598    39.429799     35.52923     26.68886 
   42800    232.10803   -360.14368       229892   -22538.816    1650.1098   -24188.925   -834.12119    264.73767    39.428289    35.528026    26.692607 
   43000    235.75107   -329.55685       229892   -22555.766    1676.0091   -24231.775   -743.08681    266.03986    39.428673    35.526975    26.684112 
   43200    235.08147   -439.70803       229892   -22548.615    1671.2487   -24219.864    -1150.246    268.47439    39.428516    35.529021    26.651754 
   43400    228.94319   -284.08097       229892   -22519.689    1627.6103     -24147.3   -559.82088     267.8148    39.429017    35.529386    26.650334 
   43600    234.95939   -392.45699       229892   -22541.944    1670.3808   -24212.325   -997.19963    269.08027    39.429122    35.529055    26.653102 
   43800    234.76826   -537.71376       229892   -22599.279     1669.022   -24268.301   -1556.2072     269.7402    39.430241    35.529322    26.657057 
   44000    229.52163   -440.88113       229892    -22611.88    1631.7225   -24243.602   -1171.3229    268.94909    39.428779    35.529394    26.638992 
   44200    238.08822   -116.37813       229892   -22563.459    1692.6244   -24256.083     88.15734    268.42571     39.42744    35.527518    26.634072 
   44400    233.24547   -395.07424       229892   -22580.667    1658.1961   -24238.863   -1001.1023    269.17141      39.4276    35.526699    26.599926 
   44600    232.88253   -450.13246       229892   -22589.594    1655.6159   -24245.209   -1199.5525    270.60179    39.427392    35.524935    26.581666 
   44800    233.05988   -261.93089       229892   -22592.861    1656.8768   -24249.737   -495.90514    271.82861    39.429032    35.526638    26.571115 
   45000    233.04724   -143.04094       229892   -22557.408    1656.7869   -24214.195   -7.0201164    272.63312    39.427771     35.52719    26.571786 
   45200    236.31563   -398.99378       229892   -22521.448    1680.0226    -24201.47   -995.25688     273.8774      39.4272     35.52727    26.564384 
   45400    238.34856   -398.28657       229892   -22605.681    1694.4752   -24300.156   -1029.0007     274.8309    39.425563     35.52573    26.572827 
   45600    234.43312   -239.02726       229892   -22505.921    1666.6395    -24172.56   -379.98872    277.12854    39.423358    35.526501     26.58146 
   45800    231.81358   -514.61698       229892   -22547.807    1648.0165   -24195.823   -1455.1922    278.01609    39.422816    35.525084    26.586666 
   46000    237.53981    -528.6902       229892   -22495.953    1688.7256   -24184.678   -1494.6148    280.40426    39.422043    35.523006    26.562293 
   46200     235.7017   -220.24257       229892   -22479.893    1675.6581   -24155.551   -289.49138    279.46695    39.422153    35.520936    26.547953 
   46400    234.44736   -346.16313       229892   -22537.682    1666.7407   -24204.423   -844.50175    279.31168    39.422803    35.520585    26.528273 
   46600      232.336   -335.00515       229892   -22522.398    1651.7305   -24174.128   -777.33458    280.31209    39.423362    35.521205     26.52959 
   46800    233.31564   -195.08524       229892   -22519.738     1658.695   -24178.433   -211.51611    281.81473    39.425307    35.521179    26.539662 
   47000    232.33604   -478.23917       229892   -22489.927    1651.7308   -24141.658   -1327.8931    283.14786    39.427652    35.521045    26.552318 
   47200    230.39751   -254.47307       229892   -22584.338    1637.9494   -24222.288   -433.06376    283.38645    39.428049    35.520795     26.55855 
   47400    234.43995   -258.50145       229892   -22521.215     1666.688   -24187.903   -466.73999    283.11651    39.427261    35.521231    26.551765 
   47600    234.86973   -295.39095       229892   -22557.686    1669.7434   -24227.429   -605.88915    282.97147    39.425772    35.519389     26.56883 
   47800    231.18187   -420.38104       229892   -22552.904    1643.5256   -24196.429   -1068.4464    284.24962    39.424522    35.518697     26.57557 
   48000    233.96494   -319.36928       229892   -22551.312     1663.311   -24214.623    -706.6602    287.84978    39.423093    35.518619    26.592339 
   48200    233.03722   -178.25703       229892   -22549.247    1656.7157   -24205.962   -139.89785    288.66427    39.421147    35.518589    26.602952 
   48400    239.53729   -331.64238       229892   -22546.773    1702.9262   -24249.699    -743.1512    290.63745    39.421171    35.516374    26.598904 
   48600    233.48808    -322.7782       229892   -22624.924    1659.9209   -24284.845   -716.17852    291.15259    39.420444    35.517147     26.61022 
   48800    231.60364   -402.89875       229892   -22560.347     1646.524   -24206.871   -1029.5554    294.02187    39.421231    35.515632    26.622292 
   49000    231.42712   -380.99097       229892    -22546.59    1645.2691   -24191.859   -913.28398    293.24172    39.423181    35.513759     26.63188 
   49200     232.1679   -385.58844       229892   -22493.713    1650.5355   -24144.249   -961.47699    294.33296     39.42261    35.516149    26.628184 
   49400    240.09591   -511.73484       229892   -22525.525    1706.8975   -24232.422   -1432.6887    297.55142    39.422393     35.51635    26.612552 
   49600    232.07757   -303.15839       229892   -22535.178    1649.8933   -24185.071   -647.27821    297.18037    39.422224    35.516251    26.609958 
   49800    230.68707    -378.7267       229892   -22525.977    1640.0079   -24165.985   -967.39313    298.55684    39.424714    35.517112    26.589118 
   50000    234.00498   -342.90196       229892   -22542.998    1663.5957   -24206.594   -843.15166    298.60896    39.426709      35.5172     26.58663 
   50200    234.78648   -563.91555       229892   -22458.664    1669.1515   -24127.815    -1633.111    302.11561     39.42703    35.519688    26.593743 
   50400    239.02237   -375.45753       229892   -22458.059    1699.2654   -24157.324   -949.69772    302.54559    39.426257    35.522695    26.575753 
   50600    240.21654   -200.84913       229892   -22403.131    1707.7551   -24110.887   -253.57343    304.13774    39.427504    35.523749     26.56646 
   50800    236.29021   -393.68895       229892   -22593.713    1679.8419   -24273.555   -983.95481    304.33333    39.428146    35.523144    26.566234 
   51000    238.26081   -282.23518       229892   -22556.864    1693.8514   -24250.716   -564.35464    304.94643    39.428693    35.522902    26.565386 
   51200    231.31099   -497.62787       229892   -22570.332    1644.4435   -24214.775   -1388.0044    307.89773    39.428179    35.522867    26.543935 
   51400    231.87752    -371.9135       229892    -22559.74    1648.4711   -24208.211   -909.46368    308.70221     39.42752    35.520124    26.543054 
   51600    232.05622   -252.42799       229892   -22586.511    1649.7415   -24236.253   -458.92789    310.05587    39.430808    35.519562    26.536086 
   51800    232.58851   -240.30687       229892   -22553.681    1653.5257   -24207.207   -418.21166    311.07346     39.43089      35.5189    26.550752 
   52000     234.7209   -328.25467       229892   -22597.182    1668.6853   -24265.868   -753.16033    310.36424     39.43262    35.520208    26.584586 
   52200    228.46113   -462.44347       229892   -22612.751    1624.1832   -24236.934   -1258.4459    311.76559    39.432833     35.52268    26.594902 
   52400    227.31909   -569.24698       229892   -22655.587    1616.0641   -24271.651   -1649.0088    313.87978    39.431406     35.52421     26.58743 
   52600    237.08726   -333.36894       229892   -22541.993    1685.5083   -24227.502   -749.05806    314.19653    39.430024    35.525675    26.607066 
   52800    236.41278   -256.76464       229892    -22506.83    1680.7133   -24187.543   -472.20139     313.4516    39.430248    35.527039    26.591005 
   53000    234.52045   -436.73497       229892   -22499.447    1667.2603   -24166.707   -1172.3741    314.25412    39.432335    35.528909    26.579831 
   53200    234.41919   -499.47263       229892   -22600.167    1666.5404   -24266.708   -1429.7249    314.79201    39.432969    35.529298    26.583442 
   53400    236.17319   -335.96669       229892   -22539.184      1679.01   -24218.194   -762.48648    316.11313    39.434862    35.532376    26.601854 
   53600    228.39861   -266.66038       229892   -22642.583    1623.7387   -24266.322   -465.89623    317.57734    39.432902    35.536103    26.604916 
   53800    235.24156   -466.08787       229892   -22615.637    1672.3868   -24288.023   -1275.5446    318.76932    39.432643    35.535468    26.622268 
   54000    232.74849   -567.17241       229892   -22604.735     1654.663   -24259.398    -1655.054    320.20203    39.433133    35.535535    26.619555 
   54200    239.83261   -203.60108       229892   -22544.709    1705.0257   -24249.735   -269.25809    319.69776    39.433705     35.53489     26.62419 
   54400    238.98514   -474.79393       229892   -22502.881    1699.0008   -24201.882   -1297.4408    321.35731     39.43585    35.533641    26.608867 
   54600    238.78866   -345.98676       229892   -22530.423    1697.6039   -24228.027   -787.64177    322.21825    39.437659    35.535883    26.610603 
   54800     242.1539   -367.72348       229892   -22515.743    1721.5282   -24237.271   -845.09766    324.52124    39.437898    35.537978    26.610938 
   55000    242.95697   -357.77119       229892   -22546.764    1727.2375   -24274.002   -861.26399    326.37936    39.438451    35.537694    26.619322 
   55200    224.64599   -433.46929       229892   -22693.259    1597.0605    -24290.32   -1194.4207    326.96675    39.436605    35.535793    26.601778 
   55400    227.87315   -367.19418       229892    -22639.87    1620.0031   -24259.873   -942.83539    327.24293    39.436815    35.536751    26.583774 
   55600    232.64985   -492.65525       229892   -22646.378    1653.9618    -24300.34    -1378.608     328.6776    39.438252    35.538174    26.569875 
   55800    243.40711   -346.17669       229892   -22525.402    1730.4376   -24255.839   -788.45969    328.31508    39.439225    35.536877     26.55121 
   56000    238.79119   -415.86251       229892   -22575.106     1697.622   -24272.728   -1069.1081    330.11992    39.442215    35.537826    26.556876 
   56200    232.24354   -207.12849       229892   -22528.578    1651.0732   -24179.652     -245.633    331.10326    39.442723    35.538587    26.555466 
   56400    234.90873   -198.80396       229892    -22587.13    1670.0207    -24257.15   -202.57852    331.20831    39.442303     35.53947    26.543667 
   56600    229.88725   -286.47234       229892   -22700.612    1634.3218   -24334.934   -560.39548    332.47677    39.443309    35.541094    26.550494 
   56800    237.47332   -414.10204       229892   -22633.043    1688.2529   -24321.296   -1039.2926    333.57374    39.445871    35.543299     26.57448 
   57000    230.89816   -419.76701       229892    -22677.52    1641.5086   -24319.028   -1110.1468    333.21267     39.44646    35.545071    26.593619 
   57200     239.8002   -160.65766       229892   -22580.901    1704.7952   -24285.696    -98.63179    336.03112    39.447283    35.545617    26.578727 
   57400    233.98873    -335.3425       229892    -22613.04    1663.4802    -24276.52   -755.28281    337.32709    39.448569    35.544656    26.585585 
   57600    230.43557   -370.34528       229892   -22613.432    1638.2199   -24251.652   -898.41317    338.71621    39.449753    35.545593    26.589456 
   57800    232.19098   -286.72898       229892   -22582.837    1650.6996   -24233.537   -564.51275    339.43253    39.449908    35.546255    26.569722 
   58000    234.98456   -371.70861       229892   -22583.884    1670.5597   -24254.444   -958.63839    340.68491    39.450385    35.546538    26.561298 
   58200    238.23972   -319.15803       229892   -22520.881    1693.7015   -24214.582   -708.05137    341.56698    39.451758    35.544876    26.576789 
   58400    239.53754    -343.8071       229892   -22581.314    1702.9279   -24284.242   -812.99509    341.74468     39.45239    35.542467    26.570209 
   58600    232.58675   -406.78963       229892   -22618.537    1653.5132    -24272.05   -1041.0497    343.44383    39.452493    35.542631     26.56791 
   58800    229.44975   -317.75127       229892   -22583.203    1631.2115   -24214.414   -716.89741    344.98741    39.451823    35.542613    26.553327 
   59000    236.18965   -319.95451       229892   -22493.206     1679.127   -24172.333   -698.24322     348.7366    39.451222    35.542214    26.548679 
   59200    234.76216   -256.09471       229892   -22549.939    1668.9787   -24218.917   -454.01092    350.00314    39.449772    35.541047    26.586956 
   59400    235.93713   -327.90541       229892   -22549.536    1677.3318   -24226.868   -714.17556     351.3553    39.450168    35.539217    26.593256 
   59600    233.33973    -472.6456       229892   -22601.126    1658.8662   -24259.992   -1287.2267    351.29612    39.450928     35.54002    26.588856 
   59800    234.99883   -388.22921       229892    -22582.15    1670.6612   -24252.812   -974.61948    351.82547    39.448998    35.537286    26.580736 
   60000    235.15277   -546.92954       229892   -22518.599    1671.7556   -24190.354   -1593.8209    352.80947     39.44775    35.535446    26.592955 
   60200    237.74552   -362.67723       229892   -22547.106    1690.1881   -24237.294   -862.97674    351.91538    39.448264    35.533287    26.591382 
   60400    238.04612   -460.46667       229892   -22557.078    1692.3251   -24249.403   -1280.0367    353.92773    39.449746    35.532023    26.599898 
   60600    232.47793   -249.40374       229892   -22542.428    1652.7395   -24195.167    -391.2299    352.34826    39.449593    35.532872    26.600812 
   60800    240.76211   -255.65897       229892   -22493.516    1711.6337   -24205.149   -449.68973    352.64049    39.448968    35.531745    26.619263 
   61000    227.06808   -397.47164       229892   -22599.029    1614.2796   -24213.309   -1008.8007    354.27408    39.450305    35.535372     26.62507 
   61200    238.42781   -426.49776       229892   -22566.826    1695.0386   -24261.865   -1157.8146    355.03137    39.448916    35.534716    26.627381 
   61400    237.53939   -393.55839       229892    -22564.83    1688.7226   -24253.553   -1011.8494    355.90118    39.449204    35.533272    26.629089 
   61600    236.43237   -410.62911       229892   -22598.707    1680.8526   -24279.559    -1052.361    356.93402    39.449011    35.532187    26.626243 
   61800    234.93718   -249.92549       229892   -22636.026    1670.2229   -24306.249   -460.06787    358.46225    39.448818    35.531432    26.650652 
   62000    236.16077   -391.00937       229892   -22570.908    1678.9217   -24249.829   -1009.9426    361.32228    39.451422    35.531632    26.649345 
   62200    238.55662   -316.21783       229892   -22575.794    1695.9543   -24271.748   -676.85744    361.15244    39.453687    35.531331    26.640531 
   62400    238.83541   -347.60794       229892   -22576.493    1697.9363   -24274.429   -857.02857    362.37726    39.453793    35.531334    26.610478 
   62600    230.99375    -347.2741       229892   -22581.303    1642.1882   -24223.491   -832.19858    363.65629     39.45418    35.531997    26.608765 
   62800    235.92047   -377.60181       229892   -22632.722    1677.2133   -24309.935   -940.72801     365.6076    39.453876     35.53326    26.599638 
   63000     236.3298   -237.48565       229892   -22562.353    1680.1234   -24242.477   -390.66914    366.94561    39.455489    35.531104    26.588056 
   63200    227.75537      -257.34       229892    -22596.14    1619.1657   -24215.306   -474.67174    369.38962    39.454389    35.531117    26.559804 
   63400    235.66009   -362.90574       229892   -22615.652    1675.3622   -24291.014   -873.27171    371.10301    39.453007    35.529097    26.571589 
   63600     229.1501   -308.99479       229892   -22617.036    1629.0812   -24246.117   -667.36575    370.61666    39.453546    35.527924    26.549527 
   63800    229.55746    -476.1282       229892   -22659.247    1631.9772   -24291.224   -1354.2499    369.11581    39.452128    35.530197    26.530384 
   64000    241.47015   -527.82445       229892   -22536.432    1716.6673     -24253.1   -1539.6403    369.70278    39.451388    35.529417    26.520619 
   64200    231.03034   -404.96571       229892   -22531.536    1642.4483   -24173.984   -1034.5281    373.04347    39.451899    35.529424    26.527264 
   64400    233.40449   -469.53072       229892     -22574.5    1659.3267   -24233.827    -1306.869    374.27954    39.450882     35.52942      26.5352 
   64600     239.0736   -326.62203       229892   -22605.599    1699.6297   -24305.228   -746.38602     375.5516     39.45019    35.530154    26.522425 
   64800    232.22944   -280.49629       229892   -22586.233     1650.973   -24237.206   -558.86919    377.03717    39.448987    35.529095    26.530243 
   65000    237.35532   -368.11561       229892   -22490.845     1687.414   -24178.259   -953.29455    377.89082    39.445675    35.529824    26.520964 
   65200     233.1157   -465.12498       229892   -22567.622    1657.2736   -24224.895   -1322.4604    378.05545    39.445482    35.530609    26.515757 
   65400    237.59933   -196.61671       229892   -22591.141    1689.1487   -24280.289   -261.30516    378.95771    39.444789    35.530001    26.514102 
   65600    236.04452   -272.66602       229892   -22524.768    1678.0952   -24202.863   -555.22494    379.82108    39.444575    35.531779    26.502109 
   65800    230.86612   -310.51969       229892   -22537.461    1641.2808   -24178.742   -676.97662    380.70771    39.443566    35.532599    26.499776 
   66000    235.30835   -323.47392       229892    -22517.71    1672.8617   -24190.572   -769.64577    381.20197    39.442633    35.533275    26.498315 
   66200    232.88169   -380.99296       229892   -22572.687      1655.61   -24228.297    -943.1862    383.01035    39.441117    35.534704    26.493889 
   66400    227.74031   -476.16204       229892   -22560.438    1619.0587   -24179.497   -1318.8444    384.59967    39.441441    35.536179    26.487744 
   66600    234.52633   -296.45106       229892   -22621.471    1667.3021   -24288.773   -581.56686    383.76624    39.441578    35.538326    26.486718 
   66800    229.11964   -384.87039       229892    -22611.01    1628.8647   -24239.875   -932.58813    384.55166    39.441811    35.540024    26.477815 
   67000    233.73734   -257.77922       229892   -22710.107     1661.693     -24371.8   -457.74194    384.99062     39.43962    35.540495     26.49233 
   67200    232.40986   -408.18328       229892   -22702.439    1652.2556   -24354.695   -1069.9834    384.47894    39.438412    35.541458    26.483139 
   67400    232.00021   -349.39117       229892   -22688.241    1649.3433   -24337.584   -783.05771    385.02514    39.437034    35.542039    26.497404 
   67600    237.58742   -380.30108       229892   -22612.759    1689.0641   -24301.823   -913.94814    385.84045    39.436426    35.543595    26.498987 
   67800     231.9739    -296.8142       229892   -22623.121    1649.1563   -24272.277   -614.95249    387.56603    39.434946    35.545471    26.482174 
   68000    230.09909   -361.90018       229892   -22699.524    1635.8278   -24335.352   -882.58608    387.92389    39.433597    35.547621      26.4965 
   68200    231.94777   -365.06062       229892   -22665.298    1648.9705   -24314.269   -874.94347    386.06635    39.434184    35.547749    26.488761 
   68400    235.85091   -468.94727       229892   -22622.869    1676.7189   -24299.588   -1289.5022    387.81262    39.436126    35.548687    26.492197 
   68600    235.21032   -460.33302       229892   -22657.079    1672.1647   -24329.244   -1254.5869    387.27209    39.436359    35.547495    26.501406 
   68800    238.23027   -281.73069       229892   -22589.488    1693.6342   -24283.122   -537.98183    386.85506    39.435956    35.546814    26.520473 
   69000    235.50635   -371.97088       229892   -22570.135    1674.2693   -24244.404   -912.24759    388.21645    39.433585    35.546154    26.535207 
   69200    235.09219    -256.9482       229892   -22622.198    1671.3249   -24293.523   -423.71159    389.64396    39.433813    35.543964    26.562819 
   69400    225.04185   -454.20608       229892   -22616.217    1599.8747   -24216.092   -1216.7212    388.07485    39.432286     35.54427    26.551407 
   69600    236.51717   -242.94985       229892   -22490.162    1681.4554   -24171.617   -390.53652    389.08844    39.431014    35.543958      26.5422 
   69800    241.31215   -407.12496       229892   -22536.894     1715.544   -24252.438   -1047.6385    389.27036    39.427533    35.543471    26.536048 
   70000     235.8218   -509.35837       229892   -22569.231    1676.5119   -24245.743   -1452.7577    390.37765    39.426066    35.543429    26.539452 
   70200      243.011    -440.0814       229892   -22454.821    1727.6216   -24182.443   -1180.9645    390.91819    39.426045    35.543217    26.539904 
   70400    237.83873   -314.41752       229892    -22487.14    1690.8507    -24177.99   -674.71477    392.82465    39.426479    35.542057    26.535591 
   70600    231.90934    -257.3049       229892     -22558.3    1648.6973   -24206.998   -471.25607    392.94308    39.425309     35.53988    26.573215 
   70800    232.00409   -377.13712       229892   -22538.305    1649.3709   -24187.676     -936.177    395.94687    39.423529    35.537678    26.596519 
   71000    233.69382   -448.67475       229892   -22571.499    1661.3836   -24232.882   -1172.4013    397.79086     39.42274    35.537483    26.589697 
   71200    230.94225   -368.18627       229892   -22560.889    1641.8221   -24202.711   -897.88822    399.16785    39.423573    35.535519    26.607372 
   71400    236.32919   -223.99669       229892   -22594.284     1680.119   -24274.403    -324.8151    398.59297    39.425357    35.535261     26.61989 
   71600    237.11413   -491.15472       229892   -22497.735    1685.6994   -24183.434   -1380.8382    400.08825    39.423407    35.533873     26.62924 
   71800     233.4379   -381.93453       229892   -22614.334    1659.5642   -24273.898   -956.85816    400.71285    39.422963    35.531012    26.640946 
   72000     231.3242   -363.01466       229892   -22616.797    1644.5374   -24261.334   -845.26666    401.13942    39.420683    35.529448    26.641749 
   72200    240.22785   -341.77793       229892   -22445.518    1707.8355   -24153.354    -801.2425    401.53037    39.419589    35.529092    26.630173 
   72400    229.89114   -334.79908       229892   -22497.203    1634.3494   -24131.552   -730.96692    400.48179    39.421058     35.52896    26.615193 
   72600    233.30472   -402.70718       229892   -22503.027    1658.6174   -24161.644   -1077.9829    402.68895    39.418072    35.530596    26.597748 
   72800    238.50155   -253.28155       229892   -22534.892    1695.5628   -24230.455   -409.61127    404.05167    39.415897    35.531872    26.595117 
   73000    238.61359   -328.39649       229892   -22551.072    1696.3594   -24247.431   -715.97476    405.58534    39.413797    35.532834    26.580329 
   73200    235.06068    -632.2433       229892   -22486.062    1671.1009   -24157.163   -1895.9222    407.73617    39.412996    35.534139    26.583732 
   73400    234.53074   -402.77932       229892   -22466.261    1667.3335   -24133.594   -1050.5205    408.63329    39.411158    35.535244    26.574393 
   73600    235.17411   -317.55311       229892   -22519.286    1671.9073   -24191.193   -698.32785    410.63535    39.411661    35.534928    26.549869 
   73800     227.8425   -280.25749       229892   -22590.364    1619.7852   -24210.149   -506.44467    412.17801    39.411451    35.536865    26.534991 
   74000     228.3719   -538.51999       229892   -22587.281    1623.5488    -24210.83   -1538.4961    412.44026    39.411164    35.539166     26.53066 
   74200    235.34998    -302.8416       229892   -22459.953    1673.1576    -24133.11   -589.99268    415.44266    39.411455    35.540287    26.548707 
   74400    234.30028   -343.20244       229892   -22486.183     1665.695   -24151.878   -734.05308    415.20149    39.411132    35.538821     26.56884 
   74600    233.99462     -636.604       229892   -22528.642     1663.522   -24192.164   -1928.9779    413.81997    39.414225    35.536981    26.600172 
   74800    229.69331   -156.05085       229892   -22570.561     1632.943   -24203.504    -56.33451    415.64057    39.416127    35.534618    26.616213 
   75000    230.44157   -419.83347       229892   -22540.367    1638.2626    -24178.63   -1110.6143    415.04759    39.417088    35.534624    26.609483 
   75200    233.87568   -345.05433       229892   -22463.294    1662.6765    -24125.97   -767.05117    415.24585    39.417826    35.533253    26.600741 
   75400    228.13798   -318.28194       229892   -22545.587    1621.8858   -24167.473   -649.27426    413.99723    39.420197      35.5323    26.599075 
   75600    233.78068   -394.32886       229892   -22515.398    1662.0011   -24177.399   -981.80014    415.82103    39.421124    35.535227    26.581402 
   75800    236.88765   -169.55644       229892   -22465.109    1684.0892   -24149.198     -127.877    417.96266    39.421165    35.536524    26.580696 
   76000    240.60687   -323.06255       229892   -22431.457      1710.53   -24141.987   -709.56353    418.14508    39.421432    35.536633    26.581854 
   76200    233.18903   -353.76855       229892   -22546.506    1657.7949     -24204.3   -825.70491    418.59917    39.423747    35.536873    26.585874 
   76400    235.49809   -430.78902       229892   -22550.397    1674.2105   -24224.608    -1139.664    419.61167    39.424033    35.537702    26.610718 
   76600    236.04873   -52.833378       229892   -22533.615    1678.1252    -24211.74    350.75108     419.3559    39.423747    35.539201    26.580335 
   76800    233.83285   -267.85782       229892   -22567.224     1662.372   -24229.596   -480.82227    419.22347    39.421123    35.539059    26.584777 
   77000    238.61877   -416.40152       229892   -22552.675    1696.3962   -24249.071   -1109.6555    419.26123    39.420679    35.540943    26.571594 
   77200    235.87953   -447.83426       229892   -22510.925    1676.9223   -24187.848   -1196.0724    420.66262    39.420676     35.54009    26.551418 
   77400    234.45695   -318.75991       229892    -22551.18    1666.8088   -24217.989   -700.20161    421.51379    39.421742    35.540141    26.554309 
   77600    234.21082   -450.97493       229892   -22582.521     1665.059    -24247.58   -1231.5085    425.15339    39.423323    35.540153    26.542787 
   77800    235.76555   -258.52416       229892   -22609.302     1676.112   -24285.414   -493.44204    426.67744     39.42526    35.540948    26.533253 
   78000     230.7121   -430.07336       229892   -22601.699    1640.1858   -24241.884   -1101.4758    429.29628    39.425914    35.539228    26.541047 
   78200    240.41919   -424.19699       229892   -22631.895    1709.1958   -24341.091   -1158.9569    429.76326    39.427224    35.538462    26.542746 
   78400    235.61616    -239.6534       229892   -22562.346      1675.05   -24237.396   -397.40694    431.42791    39.426086    35.540754    26.537154 
   78600    233.61674   -355.32999       229892   -22606.463    1660.8356   -24267.298   -865.61444    432.06724    39.425606    35.538799    26.536658 
   78800    234.81814   -339.55255       229892   -22577.474    1669.3767   -24246.851   -777.57915    432.38158    39.428325    35.536156     26.55043 
   79000    232.07348   -537.20397       229892   -22572.849    1649.8642   -24222.713    -1607.785    434.94791    39.430415    35.533692    26.568247 
   79200    235.40954   -333.44178       229892   -22513.805     1673.581   -24187.387   -821.64554    435.35473    39.431922    35.532959    26.587575 
   79400     238.1622   -364.43941       229892    -22481.66    1693.1503   -24174.811   -872.19618    436.94943     39.43122    35.531505    26.577838 
   79600     234.9267   -415.14396       229892   -22626.857    1670.1484   -24297.005   -1096.4174    439.09762    39.430432     35.53106    26.585576 
   79800    234.34434   -136.67183       229892   -22632.582    1666.0082   -24298.591    1.3145563     442.2087    39.428072    35.529652    26.594623 
   80000    232.42727   -452.71537       229892   -22653.221    1652.3794     -24305.6    -1203.047    444.42683    39.424939    35.529299    26.601876 
   80200    234.11271     -464.052       229892   -22634.888    1664.3616    -24299.25   -1255.1836    444.09072    39.421286    35.527851    26.573619 
   80400    230.16181    -391.2839       229892   -22661.214    1636.2737   -24297.487   -947.66962    443.30791    39.421593     35.52691    26.568787 
   80600     229.9203   -388.63729       229892    -22637.44    1634.5567   -24271.997   -1001.6314    447.18342    39.423308    35.527663    26.568846 
   80800    239.62107   -406.00148       229892   -22598.453    1703.5218   -24301.975   -1039.0521    449.10977    39.425149    35.529759    26.550284 
   81000    231.72737   -316.68013       229892   -22639.917    1647.4037    -24287.32   -708.53862    448.61024     39.42668    35.529651    26.552342 
   81200    239.12925   -343.34483       229892   -22605.248    1700.0253   -24305.273   -789.51445    449.15571     39.42838    35.528489    26.561863 
   81400    229.49486   -388.55277       229892   -22556.107    1631.5322   -24187.639   -981.24447    449.85173    39.428377    35.526344     26.55767 
   81600    225.03863   -377.11609       229892    -22622.35    1599.8518   -24222.201   -911.99164    449.46736    39.427351     35.52818    26.562213 
   81800     231.1834   -313.96752       229892   -22623.325    1643.5365   -24266.862   -677.74964    451.54755     39.42609    35.529756    26.593836 
   82000     228.6133   -335.32108       229892   -22527.026     1625.265   -24152.291    -797.6167    452.82007    39.425832    35.530247    26.593013 
   82200    235.88064   -269.66685       229892    -22526.66    1676.9302    -24203.59   -559.86314    450.17652     39.42498    35.529077    26.597122 
   82400     234.6798   -392.93543       229892   -22543.581    1668.3932   -24211.974   -1031.2648    450.56307    39.423605    35.528744    26.595803 
   82600    242.15789   -299.29579       229892   -22465.496    1721.5566   -24187.052   -632.58708    451.77341    39.422523    35.528885    26.579479 
   82800    229.78234   -369.19137       229892   -22568.239    1633.5759   -24201.815   -917.77702    452.51816    39.425264    35.527947    26.580998 
   83000    233.15841   -404.52606       229892   -22493.894    1657.5772   -24151.471   -1083.9061    454.47867    39.426096    35.528452    26.562353 
   83200    237.00777   -427.63328       229892   -22511.294    1684.9432   -24196.237   -1107.7204    457.09227    39.426852    35.526926    26.590156 
   83400    236.61822   -408.96843       229892   -22503.876    1682.1738    -24186.05   -1073.0082    457.64756    39.426846     35.52628    26.610855 
   83600    232.54609   -490.11251       229892   -22599.776    1653.2241       -24253   -1384.7247    458.47653    39.427385     35.52449     26.63071 
   83800     235.8888   -405.89846       229892   -22529.115    1676.9882   -24206.103   -1043.7212    459.34205     39.42737    35.523236    26.619932 
   84000    238.82001   -225.05597       229892   -22511.519    1697.8269   -24209.346    -346.5049    458.12629    39.429895    35.523064    26.619535 
   84200    232.65158   -396.16353       229892   -22510.106     1653.974    -24164.08   -1038.8314    459.33198     39.43445    35.522482    26.621214 
   84400    235.67348   -402.73538       229892   -22556.256    1675.4575   -24231.713   -1058.7623    461.27848    39.437262    35.521926    26.598199 
   84600    234.85845   -460.79505       229892   -22527.175    1669.6632   -24196.838   -1247.1087    463.39832    39.435836    35.521243    26.592276 
   84800     232.6076   -438.72242       229892   -22563.226    1653.6614   -24216.888    -1177.109    462.70074     39.43429    35.523108    26.598873 
   85000    238.39527   -278.23822       229892   -22543.673    1694.8073    -24238.48   -567.61138    463.63599    39.433122    35.524996     26.60297 
   85200    237.06369   -458.93088       229892   -22548.081    1685.3408   -24233.422   -1260.5054    464.20455    39.431254    35.525834    26.594888 
   85400    234.01943   -377.52947       229892   -22606.231    1663.6984   -24269.929   -939.94185    467.41201    39.429067    35.527325    26.568002 
   85600    230.15611   -297.27198       229892   -22594.874    1636.2332   -24231.107   -673.11902    469.96913    39.428613    35.526749    26.554921 
   85800    233.51257   -308.23277       229892   -22613.939     1660.095   -24274.034   -717.71792    470.05962     39.42838    35.525962    26.536606 
   86000    236.16609   -385.38297       229892   -22587.909    1678.9595   -24266.868    -1007.151    469.54666    39.428548    35.528157    26.519366 
   86200    239.02923   -333.85126       229892   -22555.796    1699.3142   -24255.111   -776.58979    470.82643    39.430152    35.528791    26.510979 
   86400    235.92475   -379.81521       229892   -22648.531    1677.2437   -24325.775   -953.82858    470.02799    39.431854    35.528807    26.506611 
   86600     236.4108   -200.83799       229892   -22580.059    1680.6992   -24260.759   -275.48374    470.49107    39.430964    35.529144    26.513896 
   86800    234.74177   -342.97532       229892   -22632.556    1668.8337    -24301.39   -787.73056    470.73271    39.430134    35.528969    26.505302 
   87000    233.49289   -352.74347       229892   -22614.663    1659.9551   -24274.619    -862.3501    471.66551    39.429908    35.526712    26.507256 
   87200     240.9422   -425.89399       229892    -22547.53     1712.914   -24260.444   -1153.8304    473.64492    39.430097     35.52539    26.511598 
   87400    228.68407   -351.11451       229892   -22640.285    1625.7681   -24266.053   -848.31802    471.90628    39.428418     35.52485    26.504973 
   87600    236.15521   -359.46812       229892   -22530.087    1678.8822   -24208.969    -878.6389     472.7682    39.428831      35.5254    26.520807 
   87800    233.85338   -467.65654       229892   -22595.126     1662.518   -24257.644   -1319.2116    474.33326    39.430889    35.524991    26.542542 
   88000     236.8571   -382.53461       229892   -22607.965    1683.8721   -24291.837   -984.99364    474.75084    39.429637     35.52592     26.55202 
   88200    230.62346   -439.75847       229892   -22648.358    1639.5556   -24287.914   -1177.5062     476.9415    39.431114    35.527069    26.551334 
   88400    235.60839   -477.15534       229892   -22580.122    1674.9947   -24255.117   -1331.9519    476.48799    39.432624    35.527407    26.570728 
   88600    241.52319   -149.71757       229892   -22638.473    1717.0444   -24355.517   -59.176088    475.05976    39.432686    35.525894    26.594877 
   88800    235.23245    -570.6676       229892   -22672.718    1672.3221    -24345.04   -1696.5713     474.8514     39.43523    35.523122    26.597264 
   89000    234.50636   -244.25262       229892   -22610.029    1667.1601   -24277.189   -410.20049    476.26863    39.436089    35.521918     26.60427 
   89200    237.54747   -319.32505       229892   -22626.787    1688.7801   -24315.567   -709.84387    475.87729    39.436985    35.524138    26.598483 
   89400    238.98958   -297.35142       229892   -22578.212    1699.0323   -24277.245   -629.99163     476.3317    39.436673    35.525525     26.60649 
   89600     235.0086    -264.0669       229892    -22698.04    1670.7306   -24368.771   -514.12621    477.96656     39.43827    35.527393    26.634888 
   89800     236.0812   -321.85398       229892   -22581.457     1678.356   -24259.813   -757.83424    477.78931    39.439993    35.527316    26.643244 
   90000    232.51775   -335.30859       229892   -22581.612    1653.0226   -24234.634   -715.46502    479.61629    39.441364    35.526312    26.660213 
   90200    235.21811   -455.68412       229892    -22634.36    1672.2201    -24306.58   -1270.2733     478.8592    39.442704    35.525464    26.669635 
   90400    234.08912   -348.80096       229892   -22587.872    1664.1939   -24252.065   -844.76958    481.96788       39.446    35.524807     26.68667 
   90600    230.73855   -449.79559       229892   -22609.313    1640.3739   -24249.687   -1213.4346    482.25116    39.445698    35.525296    26.686965 
   90800    228.64671   -266.32865       229892   -22643.766    1625.5025   -24269.269   -461.18666    482.69233    39.444648    35.525304    26.706745 
   91000    231.94115   -172.33015       229892   -22686.416    1648.9234   -24335.339   -160.83603    482.55872    39.442888    35.524328    26.699538 
   91200    229.35327   -324.64136       229892   -22731.762    1630.5256   -24362.287   -750.92616    483.45707    39.442309    35.526322    26.707843 
   91400    227.55581    -394.2922       229892   -22632.295     1617.747   -24250.042   -1023.9911     484.7877    39.442445    35.526786    26.723962 
   91600    241.74028   -193.40697       229892   -22497.224    1718.5878   -24215.812   -248.02606    483.94933    39.442857    35.525454    26.712206 
   91800    236.88381   -455.26316       229892    -22539.24     1684.062   -24223.302   -1252.2472    486.13473     39.44358    35.525305    26.713495 
   92000    236.05493   -327.81432       229892   -22531.074    1678.1692   -24209.243   -789.52921    488.13339    39.443997    35.524797    26.719121 
   92200    234.94839    -378.1544       229892   -22559.917    1670.3026    -24230.22   -953.13089    487.79685    39.444719    35.524263    26.701202 
   92400    239.77183   -456.90191       229892   -22577.632    1704.5936   -24282.226   -1302.8676    488.58087    39.445093    35.526138    26.674748 
   92600     237.0063   -275.06612       229892   -22533.803    1684.9327   -24218.736   -538.51736    488.85497    39.444931    35.528036     26.64941 
   92800    235.74279   -250.62462       229892   -22640.564    1675.9502   -24316.515   -455.28087    491.33377    39.444348    35.529868     26.63851 
   93000    228.74068   -201.81854       229892   -22664.427    1626.1706   -24290.598   -233.29171    491.14218    39.444871    35.530703    26.657798 
   93200    232.77681   -363.57235       229892    -22611.32    1654.8644   -24266.185    -907.3176    492.58545    39.446687    35.531398     26.65535 
   93400    226.99037   -437.84105       229892   -22682.316    1613.7272   -24296.043   -1206.4963    492.43354    39.446476    35.531842    26.650956 
   93600    230.39245   -162.60788       229892   -22650.242    1637.9134   -24288.155   -116.13002    491.34799    39.446247    35.530883    26.650295 
   93800    230.14391   -208.13379       229892   -22666.727    1636.1465   -24302.873   -273.19756    494.95281    39.445033    35.531363    26.641205 
   94000    229.94428   -368.26694       229892   -22645.688    1634.7272   -24280.415   -927.21092     496.1429    39.446176    35.533254    26.658139 
   94200    239.50048   -446.36527       229892   -22548.435    1702.6645   -24251.099   -1198.4908    496.51706    39.444132    35.532864     26.67101 
   94400    234.55851   -411.61776       229892   -22576.752    1667.5308   -24244.282   -1062.9716    494.45615    39.445164    35.533704    26.685434 
   94600    242.76852   -235.60743       229892   -22596.454    1725.8978   -24322.352   -375.05626    495.99614     39.44843    35.534963    26.690579 
   94800    232.06293   -307.81482       229892   -22564.346    1649.7892   -24214.135   -664.38637       496.77     39.44787    35.535182    26.699218 
   95000    236.42862   -410.30167       229892    -22614.93    1680.8259   -24295.755   -1035.9688    498.86268     39.44723    35.536921    26.692772 
   95200    231.76353   -271.41358       229892   -22606.332    1647.6607   -24253.992   -486.60546    497.19705    39.447158    35.539131    26.688789 
   95400    235.18425   -186.47572       229892    -22541.52    1671.9794   -24213.499   -194.34651    498.82008    39.446789    35.542357    26.680655 
   95600    238.20994   -290.29471       229892   -22496.067    1693.4897   -24189.557   -617.08653    499.89104    39.444324    35.542704    26.670927 
   95800    236.98681    -266.8414       229892   -22535.404    1684.7942   -24220.198   -488.94319    499.64896     39.44119    35.541476    26.675405 
   96000    236.42006   -340.37382       229892   -22501.287    1680.7651   -24182.052   -813.50302    501.87839    39.439892    35.540408    26.672498 
   96200     239.4168   -410.16396       229892    -22455.43    1702.0695     -24157.5   -1075.3662    503.33463    39.438718    35.539855    26.678628 
   96400    229.90979   -440.68251       229892   -22546.569     1634.482   -24181.051   -1192.3892    504.92425    39.434831    35.536358     26.69594 
   96600     235.6529   -386.66491       229892   -22568.371    1675.3111   -24243.682   -995.22042    505.59996    39.433112    35.534598    26.681169 
   96800    235.34935   -105.20318       229892   -22510.127    1673.1531    -24183.28    137.15435    505.71724    39.434566    35.532743    26.689918 
   97000    236.00146   -63.261357       229892    -22542.97    1677.7891   -24220.759    260.22976    505.54714    39.435653    35.533224    26.695123 
   97200    234.30878   -411.74606       229892   -22547.349    1665.7554   -24213.105   -1081.8592    506.24695    39.435215    35.533935    26.718694 
   97400    232.94309   -332.00565       229892   -22568.486    1656.0464   -24224.532   -789.68542    505.95154    39.436894    35.532535     26.72055 
   97600    242.46192   -267.80592       229892   -22545.909     1723.718   -24269.627   -572.18807    505.48031    39.437832    35.532249    26.721698 
   97800    240.97714    -529.5449       229892   -22532.514    1713.1624   -24245.677   -1527.0175    507.55599    39.437708    35.534071    26.720721 
   98000    233.82762   -208.30194       229892   -22597.633    1662.3348   -24259.968   -303.99374    508.83484    39.436294    35.534992    26.729211 
   98200     231.1169   -352.65983       229892   -22623.127    1643.0637   -24266.191   -827.86763    511.21686    39.435654     35.53425     26.74161 
   98400    234.27543    -372.6929       229892   -22544.737    1665.5184   -24210.256   -944.46744    511.80621    39.434877    35.534594    26.741649 
   98600     234.5851   -378.15775       229892   -22585.499    1667.7199   -24253.218   -926.12312    513.08033    39.435478    35.536985    26.745707 
   98800    231.41796   -309.53454       229892    -22552.99    1645.2039   -24198.194   -656.30787    512.71127    39.437102    35.537708    26.743388 
   99000        231.1   -366.90942       229892   -22579.121    1642.9435   -24222.065   -889.39336     512.7368     39.43914    35.538512     26.75161 
   99200     234.0907   -292.52368       229892   -22582.304    1664.2051   -24246.509   -608.07957    512.20802     39.43716    35.537484    26.740103 
   99400     237.3353   -423.27989       229892   -22554.129    1687.2717   -24241.401   -1105.7258    512.90189    39.437514    35.538767    26.727759 
   99600    240.36671   -316.20143       229892   -22522.343    1708.8227   -24231.165    -730.7595     513.8756    39.438624    35.540512    26.725784 
   99800    235.47389   -268.19094       229892   -22571.108    1674.0385   -24245.147   -506.16522    514.76629    39.438101    35.543238    26.714846 
  100000    234.72938   -200.71605       229892   -22590.201    1668.7456   -24258.946   -264.35831    515.48495    39.439641    35.542989    26.708548 
  100200     232.4434   -193.68143       229892   -22622.138     1652.494   -24274.632   -221.92243    515.97621    39.438421    35.545196    26.713056 
  100400    235.78576   -495.56362       229892   -22562.073    1676.2556   -24238.328   -1375.6499     515.9119    39.437824    35.544729    26.714026 
  100600    236.10148   -496.72083       229892   -22597.396    1678.5002   -24275.897   -1399.1367    515.61842    39.437547    35.544546    26.717799 
  100800    232.86832    -281.1262       229892   -22631.333    1655.5149   -24286.848   -605.00622    517.23927    39.438512    35.543938    26.704731 
[...]
 3975800    222.73698   -280.21502       229892   -24528.046    1583.4889   -26111.535    -569.5382      6196.65    38.405896    35.384636    26.745644 
 3976000    225.50819   -188.67698       229892   -24556.628      1603.19   -26159.818   -248.32128    6195.9455     38.40558    35.385652    26.734911 
 3976200    222.59556   -233.15358       229892   -24557.329    1582.4835   -26139.812   -370.14874     6194.008    38.405573    35.388526     26.73981 
 3976400    219.60934   -281.51975       229892   -24578.935    1561.2537   -26140.188   -603.52951    6194.1198    38.406005    35.390381    26.752117 
 3976600    222.11182   -302.11367       229892    -24565.44    1579.0444   -26144.485   -637.23386    6195.0479    38.406829    35.392404    26.757403 
 3976800     229.3603   -135.44933       229892   -24497.747    1630.5756   -26128.323   -31.212747    6195.4153    38.406654    35.394101    26.768581 
 3977000    224.50791   -302.11644       229892   -24616.642    1596.0788   -26212.721   -676.40363    6195.8315    38.406349     35.39439    26.761865 
 3977200    224.26042   -357.52487       229892   -24523.512    1594.3193   -26117.831   -834.61311    6196.7597    38.405305    35.394111    26.770632 
 3977400    216.82419   -299.97742       229892   -24543.677    1541.4534    -26085.13   -631.10445     6194.851    38.405316    35.395978    26.777406 
 3977600    228.87881    -158.2845       229892   -24557.297    1627.1526   -26184.449   -141.55862    6196.1804    38.404758    35.398088    26.775873 
 3977800    227.11724   -178.77949       229892   -24519.104    1614.6292   -26133.733   -210.83081    6195.0059    38.403687    35.398695    26.778987 
 3978000    220.87998   -182.40754       229892   -24565.209     1570.287   -26135.496   -193.72364      6193.53    38.403684    35.399209     26.77793 
 3978200    228.30961    -374.8343       229892   -24510.349     1623.106   -26133.455   -925.49785    6195.0468      38.4017     35.39873    26.765085 
 3978400    222.13619    -245.4219       229892   -24573.548    1579.2177   -26152.766   -438.37894    6195.5051    38.401217    35.397866    26.767853 
 3978600    228.55093   -263.49452       229892   -24552.252    1624.8216   -26177.074   -520.86184    6196.1187    38.400894    35.400555     26.76987 
 3978800    229.42624   -248.20126       229892   -24517.737    1631.0444   -26148.781   -444.33298    6195.5992    38.399956    35.399595    26.765784 
 3979000    229.57707    -260.0192       229892   -24528.922    1632.1166   -26161.038   -508.58703      6194.42    38.399259    35.401052     26.75599 
 3979200    222.85212   -157.66092       229892   -24553.978    1584.3074   -26138.285   -101.91384    6194.4636    38.399211    35.400867    26.759043 
 3979400    217.99422   -252.15257       229892   -24531.834    1549.7715   -26081.605   -478.39656    6194.7731    38.398845    35.400394    26.779853 
 3979600    223.84843   -353.29489       229892    -24546.26    1591.3904    -26137.65   -864.84689    6196.7054    38.399616     35.40226    26.778121 
 3979800    222.23168   -290.12324       229892   -24543.079    1579.8966   -26122.975   -596.90749     6193.311    38.400408    35.400332    26.772368 
 3980000    224.87194   -234.39948       229892   -24551.727    1598.6668   -26150.393   -378.45829    6195.1928    38.400575    35.400412    26.779042 
 3980200    228.07395   -272.04012       229892   -24539.957    1621.4306   -26161.388   -576.07818    6193.5101    38.399706    35.398454    26.787803 
 3980400    221.74901   -256.54835       229892   -24538.771    1576.4652   -26115.236   -473.93438    6195.1552    38.398213    35.397664     26.79218 
 3980600    229.62314   -354.04089       229892   -24480.061    1632.4442   -26112.505   -903.05435    6195.4499    38.397644    35.396814    26.791507 
 3980800    226.06703   -269.49531       229892   -24490.631    1607.1629   -26097.794   -544.25625    6193.6399    38.399197    35.397133    26.793875 
 3981000    219.15396   -191.84385       229892    -24513.14    1558.0163   -26071.157    -246.4907    6195.1597    38.398228    35.395958    26.794369 
 3981200     228.6029   -377.27522       229892   -24499.139     1625.191    -26124.33   -951.76707    6195.0697    38.397124    35.397221    26.797727 
 3981400    227.75711   -213.02721       229892   -24487.816    1619.1781   -26106.994   -301.04525     6194.159    38.398613    35.399209    26.794808 
 3981600     215.6634    -209.1094       229892   -24540.114    1533.2012   -26073.315   -315.86621    6194.0877    38.402763      35.4015    26.797695 
 3981800    220.02851   -239.17783       229892   -24526.612    1564.2337   -26090.846   -445.68468    6195.6002    38.402707    35.400672    26.800802 
 3982000     227.1223   -336.83826       229892   -24572.054    1614.6651   -26186.719   -776.93226    6195.7806    38.402691    35.400823    26.796313 
 3982200     225.7992   -219.87621       229892   -24583.574    1605.2589   -26188.833   -359.79043    6195.2846    38.402831    35.402159    26.782024 
 3982400    230.22953   -138.26296       229892    -24507.59    1636.7551   -26144.345    39.845942    6196.4859    38.403607    35.402535    26.768024 
 3982600    229.82172   -342.71824       229892   -24537.896    1633.8559   -26171.752    -786.2305    6195.8951    38.404326     35.40655    26.758079 
 3982800    225.12826   -265.06197       229892   -24473.545    1600.4891   -26074.034   -515.15613    6196.8231    38.404938     35.40615    26.759005 
 3983000    226.07733   -232.89918       229892   -24464.535    1607.2362   -26071.771   -401.86622     6196.802    38.403765    35.407838    26.749621 
 3983200    228.98567   -130.42401       229892   -24499.864    1627.9122   -26127.777    8.7399511    6193.2727    38.405136    35.409618    26.756969 
 3983400     224.5498   -227.03129       229892   -24463.056    1596.3766   -26059.433   -345.92622    6196.0706    38.405024    35.412391     26.75524 
 3983600    226.18937   -382.21359       229892    -24528.67    1608.0327   -26136.702   -973.94006     6196.534    38.404513    35.414499    26.747593 
 3983800    225.44861   -277.44382       229892   -24514.595    1602.7665   -26117.361   -572.85259    6197.2976    38.404786    35.417674    26.744794 
 3984000     224.0563   -262.31499       229892   -24539.235    1592.8682   -26132.104   -493.70717    6196.4962    38.404136    35.418674    26.742531 
 3984200    227.31354    -298.9448       229892   -24516.224    1616.0247   -26132.249   -643.04665    6197.4077    38.404484    35.419651    26.746071 
 3984400    224.46656   -189.35705       229892   -24531.744    1595.7848   -26127.528   -231.79044    6196.4123    38.403908    35.421896    26.752836 
 3984600    228.63736   -220.68978       229892   -24533.758     1625.436   -26159.194   -337.88119    6195.2385    38.402502    35.424678    26.764176 
 3984800    224.92732   -311.46133       229892    -24519.13    1599.0605    -26118.19   -651.30666     6195.968     38.40299    35.423931    26.763969 
 3985000    227.01074   -317.76922       229892   -24554.055     1613.872   -26167.927   -722.65404    6196.1351    38.403129    35.424387    26.780776 
 3985200    223.94728   -273.78596       229892   -24518.975    1592.0931   -26111.068   -559.69739    6196.2165     38.40263    35.423758    26.786338 
 3985400    218.51635    -240.9951       229892   -24532.845    1553.4834   -26086.329   -388.78709    6195.0263    38.404379    35.422635    26.775904 
 3985600    223.86988   -273.54239       229892   -24505.032    1591.5429   -26096.575   -584.76709    6196.1051    38.404531    35.425449    26.761798 
 3985800     226.8487   -161.68338       229892   -24534.442    1612.7201   -26147.162   -89.864805    6196.1221    38.402375    35.427045      26.7468 
 3986000    235.15178   -339.18891       229892   -24428.267    1671.7485   -26100.016   -838.43272    6196.5024    38.401479    35.427434    26.764277 
 3986200     228.0492   -340.54302       229892   -24449.854    1621.2547   -26071.109   -798.61149    6197.5578    38.400402     35.43078    26.769352 
 3986400    222.19695   -305.24028       229892   -24577.611    1579.6496   -26157.261   -662.55545    6196.4542    38.400086    35.433081    26.771931 
 3986600    221.40488   -322.30044       229892   -24557.755    1574.0186   -26131.774   -700.23548    6195.5593    38.400264    35.435165    26.765893 
 3986800    231.77219   -182.69412       229892   -24528.099    1647.7223   -26175.821   -205.36023    6195.5266    38.395748    35.435099    26.771436 
 3987000    225.52557   -248.80311       229892   -24510.145    1603.3136   -26113.459   -432.02998    6195.5688    38.395043    35.434467    26.761382 
 3987200    221.51769   -356.89435       229892   -24622.089    1574.8206    -26196.91   -884.38631    6196.0149    38.393488    35.433874    26.775277 
 3987400    225.19428   -317.97064       229892   -24561.104    1600.9583   -26162.063   -716.34442    6198.2335    38.391772    35.433281    26.759296 
 3987600    224.68437   -312.23182       229892   -24497.839    1597.3333   -26095.172   -747.62551    6196.4163    38.391496    35.435718    26.783358 
 3987800    227.16611    -427.5659       229892   -24538.869    1614.9765   -26153.845   -1136.3669    6196.8382    38.389034    35.434501    26.770336 
 3988000    223.04728    -401.2846       229892   -24517.823    1585.6948   -26103.518   -1071.0872    6196.4946    38.387804    35.434693    26.772975 
 3988200    228.84983   -140.95578       229892   -24527.777    1626.9465   -26154.723   -65.741152    6195.9037     38.38726     35.43297    26.766429 
 3988400    223.39681   -260.50454       229892   -24527.721    1588.1797   -26115.901   -504.51044    6196.0308    38.383709    35.432541    26.768531 
 3988600     215.9941   -304.34682       229892   -24567.091    1535.5522   -26102.643   -711.54581    6195.8289    38.387719     35.43373    26.772693 
 3988800    225.43248   -242.28445       229892   -24552.499    1602.6518   -26155.151   -381.89702    6195.7175    38.386908    35.435713    26.768827 
 3989000    226.75908   -390.75844       229892   -24496.437    1612.0829    -26108.52   -990.80712    6196.5576     38.38716     35.43627    26.779447 
 3989200    228.78603   -404.46133       229892   -24554.727     1626.493    -26181.22     -1040.24     6198.235    38.388693    35.438045    26.781823 
 3989400    219.22676     -303.344       229892   -24570.287    1558.5339   -26128.821   -649.13601    6196.6574    38.387905    35.439542    26.769722 
 3989600     229.1769   -267.19391       229892   -24469.299    1629.2718   -26098.571   -562.80733    6196.4569    38.388365    35.441865    26.766986 
 3989800    221.58833   -283.15056       229892   -24512.105    1575.3229   -26087.427   -551.12897    6197.3774    38.389141    35.443418    26.757448 
 3990000    220.85418   -360.64344       229892   -24553.101    1570.1036   -26123.205   -908.55633         6198    38.388314    35.444909    26.762036 
 3990200    223.36434   -329.38622       229892   -24580.258    1587.9489   -26168.207   -762.76694    6195.2204    38.389971    35.446322    26.765366 
 3990400    227.07455   -233.53886       229892   -24536.748    1614.3256   -26151.074    -390.2542    6196.1367    38.389852     35.44474    26.765769 
 3990600    224.22476     -200.194       229892   -24565.845    1594.0658   -26159.911   -269.07854    6194.5947    38.390694    35.446694    26.772092 
 3990800    228.51943   -186.58294       229892   -24513.435    1624.5977   -26138.032   -212.86661    6196.5791    38.390175    35.448057    26.770577 
 3991000    222.33537   -367.61004       229892   -24525.976    1580.6337   -26106.609   -906.13777    6195.1952    38.390473    35.450415     26.76813 
 3991200    225.66917   -257.54487       229892   -24495.044    1604.3345   -26099.378   -489.28113    6196.2609      38.3911    35.453206    26.768013 
 3991400    231.76902   -214.23397       229892    -24479.21    1647.6997    -26126.91   -315.23697    6195.1987    38.392236    35.455765    26.756564 
 3991600    225.25898    -216.2878       229892   -24532.086    1601.4183   -26133.504   -347.36142    6195.4113    38.392529    35.457644    26.751511 
 3991800    219.18328    -290.7579       229892   -24597.001    1558.2248   -26155.226   -608.64692    6195.4852     38.39346    35.458235    26.754239 
 3992000    221.73691    -325.3177       229892   -24520.745    1576.3791   -26097.124   -732.60684     6193.393    38.395015     35.45873    26.760024 
 3992200     225.1304   -316.86517       229892   -24514.705    1600.5042   -26115.209    -726.9055     6194.869    38.393232    35.457626    26.762661 
 3992400    221.47861   -230.70387       229892   -24528.619    1574.5428   -26103.161   -389.17417    6194.0419    38.392865    35.456617    26.765163 
 3992600     230.4363    -227.9477       229892    -24541.95    1638.2251   -26180.175   -345.58056    6195.8557    38.392197     35.45754    26.782521 
 3992800    226.79223   -301.77456       229892   -24542.216    1612.3186   -26154.534   -657.04198    6195.1077    38.391453    35.457063    26.777702 
 3993000    220.14321    -335.4742       229892   -24642.268    1565.0492   -26207.317   -763.94536    6195.8162    38.389879    35.459356    26.770063 
 3993200    227.71831   -194.79253       229892   -24520.565    1618.9023   -26139.467   -249.94711    6193.7225    38.388088    35.459507    26.763697 
 3993400    226.21144   -241.21552       229892   -24501.301    1608.1896   -26109.491   -414.84186    6194.2344    38.387599    35.459954    26.768282 
 3993600    224.69686   -356.90055       229892   -24519.521    1597.4221   -26116.943   -829.63454     6196.301    38.388248    35.460753    26.770366 
 3993800     228.9029    -338.1008       229892   -24523.386    1627.3238    -26150.71   -795.57165    6196.1419    38.387561    35.460275    26.768325 
 3994000    225.42327    -398.8547       229892   -24532.272    1602.5863   -26134.858   -1030.7604    6196.4483    38.387266    35.460935    26.762684 
 3994200    223.81637   -224.91919       229892   -24579.167    1591.1625    -26170.33   -396.79311    6195.2346    38.386845    35.462662    26.772495 
 3994400    229.21648   -90.886909       229892   -24540.387    1629.5532    -26169.94    125.85927    6196.4607     38.38885     35.46256    26.762607 
 3994600    221.79197   -264.77516       229892   -24589.134    1576.7705   -26165.905   -543.54612    6196.3933    38.389572    35.465168    26.778206 
 3994800    229.56102   -270.16325       229892   -24536.012    1632.0025   -26168.014   -561.15082    6196.7231    38.391777     35.46188    26.785824 
 3995000    227.51194   -134.79175       229892    -24495.01    1617.4351   -26112.445    40.406249       6197.6    38.392763    35.463917    26.778811 
 3995200    218.59825   -254.72517       229892    -24586.95    1554.0656   -26141.016   -490.21632    6195.3483    38.393335    35.464747    26.765412 
 3995400    225.02506   -375.92699       229892   -24494.018    1599.7553   -26093.774   -927.26636    6196.8638    38.396417    35.466985    26.763574 
 3995600    225.99747   -246.45939       229892   -24446.924    1606.6684   -26053.592   -429.34647     6197.854    38.394978    35.467512     26.77427 
 3995800    231.09285   -209.35655       229892   -24466.427    1642.8927    -26109.32   -298.18829     6196.189    38.396146    35.468115    26.777935 
 3996000    234.79269   -274.05378       229892   -24397.012    1669.1957   -26066.208   -573.64592    6196.6322    38.396951    35.468728    26.770066 
 3996200    234.02041   -211.86645       229892   -24467.447    1663.7054   -26131.153   -323.36542    6196.2218    38.398128    35.471293    26.779592 
 3996400    222.86288   -365.50688       229892    -24548.84    1584.3839   -26133.224   -878.52039    6197.4031    38.400891    35.471371     26.76616 
 3996600    224.93706    -401.9514       229892   -24520.027    1599.1298   -26119.156    -1065.771    6196.2132    38.403114    35.472257    26.762671 
 3996800    219.52584   -199.01796       229892    -24578.93    1560.6602    -26139.59   -224.58069    6195.6087     38.40519    35.469006    26.775142 
 3997000     228.8256   -276.70284       229892   -24441.192    1626.7743   -26067.966   -561.01835    6196.4516    38.406304    35.468328    26.784195 
 3997200    231.10272   -355.00987       229892   -24519.391    1642.9629   -26162.354   -867.02813    6195.2779    38.406465    35.467103    26.795081 
 3997400    225.77038   -303.02037       229892   -24570.513     1605.054   -26175.567   -652.30692    6196.8811    38.406742    35.466753    26.786131 
 3997600    225.72002    -298.4007       229892   -24538.589     1604.696   -26143.285   -659.46174     6196.292     38.40663    35.467098     26.79538 
 3997800    221.50027   -267.98586       229892   -24647.614    1574.6968   -26222.311    -532.5353    6196.8978    38.408095    35.469011    26.786853 
 3998000    221.41785   -298.38846       229892   -24550.721    1574.1109   -26124.831   -632.88973    6197.0912    38.406903    35.470141    26.780677 
 3998200    218.86517   -209.27222       229892   -24565.648    1555.9633   -26121.612   -290.60929    6197.4936    38.404573    35.468872    26.786076 
 3998400    228.87247   -283.17348       229892   -24450.028    1627.1074   -26077.136   -566.76978    6197.6398    38.405269    35.468294    26.784042 
 3998600     222.5761   -359.10089       229892   -24563.115    1582.3451    -26145.46   -875.47737     6196.988    38.405285    35.466563    26.782379 
 3998800    224.53373   -294.65053       229892   -24519.524    1596.2624   -26115.787   -637.92435     6196.829    38.403862    35.464055    26.796332 
 3999000    230.54603   -156.56253       229892   -24470.984    1639.0052   -26109.989   -85.985558    6195.6287    38.404236    35.463218    26.778293 
 3999200    220.62283    -303.6841       229892   -24537.838    1568.4589   -26106.297    -723.6237    6199.2427    38.404629    35.462886    26.781104 
 3999400    223.90967    -355.4993       229892   -24568.441    1591.8258   -26160.266     -894.966    6199.4025    38.405588    35.461713    26.770053 
 3999600    225.98491   -356.77161       229892   -24568.921    1606.5791     -26175.5   -876.23604    6197.7705    38.405545    35.460571    26.759506 
 3999800    226.68585   -312.11267       229892   -24488.586    1611.5623   -26100.148   -726.95159    6198.7441    38.404661    35.458313    26.759745 
 4000000    229.41678    -205.3507       229892   -24460.287    1630.9771   -26091.264   -284.27064    6196.2907    38.405194    35.456824    26.754901 
Loop time of 7093.45 on 120 procs for 4000000 steps with 9010 atoms

Performance: 487.210 ns/day, 0.049 hours/ns, 563.901 timesteps/s
98.1% CPU use with 120 MPI tasks x no OpenMP threads

MPI task timing breakdown:
Section |  min time  |  avg time  |  max time  |%varavg| %total
---------------------------------------------------------------
Pair    | 0.19931    | 1678       | 5775.7     |4658.3 | 23.66
Neigh   | 0.30939    | 103.68     | 381.33     |1253.2 |  1.46
Comm    | 25.031     | 2852.9     | 6091.2     |3973.1 | 40.22
Output  | 79.738     | 79.812     | 81.277     |   1.5 |  1.13
Modify  | 211.87     | 2335.6     | 6942.5     |5463.4 | 32.93
Other   |            | 43.46      |            |       |  0.61

Nlocal:    75.0833 ave 232 max 0 min
Histogram: 54 6 27 3 0 0 0 0 4 26
Nghost:    602.05 ave 1004 max 0 min
Histogram: 10 5 5 0 10 20 27 13 19 11
Neighs:    0 ave 0 max 0 min
Histogram: 120 0 0 0 0 0 0 0 0 0
FullNghs:  7422.47 ave 29011 max 0 min
Histogram: 70 20 0 0 0 0 0 2 14 14

Total # of neighbors = 890696
Ave neighs/atom = 98.8564
Neighbor list builds = 434512
Dangerous builds = 0
write_data 		${DIR}/data.${NAME}_run
write_data 		run_16/data.${NAME}_run
write_data 		run_16/data.ibeam_cooling_16_run
Total wall time: 1:58:32
