
### Dimensions ###


### IMPORT ATOMS ###
read_data ../Box_Setup/data.Ibeam_235K
  orthogonal box = (0 0 0) to (78.752 72.9753 40.0024)
  6 by 5 by 4 MPI processor grid
  reading atoms ...
  9010 atoms
  reading velocities ...
  9010 velocities
group water type 2
2386 atoms in group water
group graphite type 1
6624 atoms in group graphite


# Define potential
#
pair_style          sw
pair_coeff * * MLC_e.sw C mW

# Add velocity/set timestep
#

fix		1 graphite setforce 0.0 0.0 0.0
velocity 	graphite set 0.0 0.0 0.0
velocity            water create ${START_TEMP} ${SEED} rot yes dist gaussian
velocity            water create 235 ${SEED} rot yes dist gaussian
velocity            water create 235 24072 rot yes dist gaussian
timestep            5.0

# Define output
#
compute 1 water msd
compute 2 water temp


thermo	            100
thermo_style custom step c_2 press vol etotal ke pe c_1[4] density

# Neighbor lists
#
neigh_modify        delay 0 every 1 check yes


# Set fixes
#
fix                 2 water momentum 10 linear 1 1 1 rescale
fix                 3 all nve
fix                 4 water temp/csvr ${START_TEMP} ${START_TEMP} 500.0 928347
fix                 4 water temp/csvr 235 ${START_TEMP} 500.0 928347
fix                 4 water temp/csvr 235 235 500.0 928347

# Run 0.05 ns equilibration
#
dump                1 all custom 100 ${DIR}/eq.${NAME}.dump id type x y z vx vy vz
dump                1 all custom 100 run_16/eq.${NAME}.dump id type x y z vx vy vz
dump                1 all custom 100 run_16/eq.ibeam_cooling_16.dump id type x y z vx vy vz
run                 10000
Neighbor list info ...
  update every 1 steps, delay 0 steps, check yes
  max neighbors/atom: 2000, page size: 100000
  master list distance cutoff = 6.67472
  ghost atom cutoff = 6.67472
  binsize = 3.33736, bins = 24 22 12
  1 neighbor lists, perpetual/occasional/extra = 1 0 0
  (1) pair sw, perpetual
      attributes: full, newton on
      pair build: full/bin/atomonly
      stencil: full/bin/3d
      bin: standard
Per MPI rank memory allocation (min/avg/max) = 0.4724 | 3.952 | 4.75 Mbytes
Step c_2 Press Volume TotEng KinEng PotEng c_1[4] Density 
       0          235   -397.42353       229892   -22660.138    1670.6695   -24330.807            0   0.88510766 
     100    233.81226     -472.072       229892   -22663.195    1662.2256   -24325.421   0.82758795   0.88510766 
     200    228.45273   -448.62911       229892    -22663.78    1624.1234   -24287.903    1.2103956   0.88510766 
     300    232.81426   -280.58079       229892   -22643.365    1655.1306   -24298.496    1.5386892   0.88510766 
     400    233.86052    -422.9792       229892   -22631.395    1662.5687   -24293.963    1.8418707   0.88510766 
     500    233.57074   -505.71552       229892    -22610.36    1660.5086   -24270.868    2.1556702   0.88510766 
     600    238.58124    -321.8118       229892   -22547.506    1696.1294   -24243.636    2.4323095   0.88510766 
     700    234.66253   -263.96169       229892   -22548.011    1668.2704   -24216.282    2.7545958   0.88510766 
     800    238.29912   -322.78057       229892   -22535.726    1694.1237    -24229.85    2.9781145   0.88510766 
     900    232.80693   -378.78945       229892    -22562.42    1655.0785   -24217.499    3.3410856   0.88510766 
    1000    234.65592   -207.37873       229892   -22594.835    1668.2234   -24263.059    3.6891976   0.88510766 
    1100     238.8064   -396.18816       229892   -22577.895    1697.7301   -24275.625    4.0620656   0.88510766 
    1200    236.22443   -405.16953       229892   -22573.297    1679.3742   -24252.671    4.5267742   0.88510766 
    1300    240.23089    -377.8948       229892   -22526.386    1707.8571   -24234.244    4.9012666   0.88510766 
    1400    232.52817   -339.34454       229892   -22546.605    1653.0967   -24199.702    5.3061483   0.88510766 
    1500    235.10047   -325.24929       229892   -22572.551    1671.3838   -24243.934    5.5298125   0.88510766 
    1600    235.88347   -427.07557       229892   -22543.203    1676.9503   -24220.153     6.031413   0.88510766 
    1700    236.76585   -407.70749       229892     -22547.4    1683.2233   -24230.623    6.3723251   0.88510766 
    1800    242.88929   -347.91613       229892   -22522.651    1726.7563   -24249.408     6.743826   0.88510766 
    1900     245.4923   -428.27061       229892   -22488.497    1745.2617   -24233.759    7.0420044   0.88510766 
    2000      244.701   -304.22474       229892   -22465.608    1739.6362   -24205.245     7.360885   0.88510766 
    2100    237.08332   -530.51155       229892   -22562.224    1685.4803   -24247.704    7.7857286   0.88510766 
    2200    238.84059   -330.84525       229892   -22542.916    1697.9732   -24240.889    8.2833147   0.88510766 
    2300    237.35624   -339.78602       229892    -22519.77    1687.4205    -24207.19    8.7945996   0.88510766 
    2400    233.55443   -283.08798       229892   -22508.852    1660.3926   -24169.244    9.2099388   0.88510766 
    2500    233.06728   -249.44688       229892   -22539.156    1656.9293   -24196.085    9.7044698   0.88510766 
    2600    235.79976   -354.54856       229892   -22537.578    1676.3552   -24213.933    10.138254   0.88510766 
    2700      233.701   -268.73821       229892   -22534.829    1661.4346   -24196.264    10.528321   0.88510766 
    2800    241.47312   -319.26934       229892   -22487.079    1716.6884   -24203.767    10.673589   0.88510766 
    2900    236.99541    -179.9738       229892   -22501.473    1684.8554   -24186.328    10.946948   0.88510766 
    3000    238.77538   -433.20286       229892   -22500.589    1697.5095   -24198.099    11.169523   0.88510766 
    3100    239.46999   -411.83236       229892   -22489.014    1702.4477   -24191.462    11.325782   0.88510766 
    3200    232.42844    -288.3346       229892   -22553.935    1652.3877   -24206.322    11.510207   0.88510766 
    3300    232.53533   -297.63827       229892   -22627.183    1653.1476   -24280.331      11.9882   0.88510766 
    3400     229.6544    -341.5566       229892   -22577.197    1632.6664   -24209.863    12.391053   0.88510766 
    3500    236.07301   -285.36901       229892    -22581.08    1678.2978   -24259.378    12.630415   0.88510766 
    3600    232.04561   -233.88009       229892   -22584.978    1649.6661   -24234.645    12.582859   0.88510766 
    3700    236.21084   -376.26243       229892   -22561.093    1679.2776   -24240.371    12.842174   0.88510766 
    3800    235.55536   -259.56038       229892   -22545.343    1674.6177   -24219.961    13.123055   0.88510766 
    3900    238.27763   -335.84752       229892   -22554.297     1693.971   -24248.268    13.839852   0.88510766 
    4000    229.56435   -433.73264       229892   -22577.607    1632.0262   -24209.633    14.278456   0.88510766 
    4100    238.05568   -401.69019       229892   -22565.144     1692.393   -24257.537    14.718899   0.88510766 
    4200    240.09874   -337.00952       229892   -22549.819    1706.9176   -24256.737    15.117278   0.88510766 
    4300    227.87322   -377.39363       229892   -22614.324    1620.0036   -24234.327    15.504525   0.88510766 
    4400    236.85065   -363.22791       229892   -22563.014    1683.8262    -24246.84    15.810125   0.88510766 
    4500    231.06894    -316.7697       229892   -22581.636    1642.7227   -24224.358    16.152803   0.88510766 
    4600    230.82676   -144.90884       229892   -22622.896     1641.001   -24263.897    16.341935   0.88510766 
    4700    234.29282   -447.88124       229892   -22545.873     1665.642   -24211.515      16.6459   0.88510766 
    4800    234.90291   -392.54341       229892    -22500.89    1669.9793    -24170.87    16.920399   0.88510766 
    4900    243.99233   -340.12905       229892   -22472.826     1734.598   -24207.424    17.139615   0.88510766 
    5000    227.35796   -326.92743       229892   -22537.025    1616.3405   -24153.365    17.469651   0.88510766 
    5100    239.83339    -484.3377       229892   -22502.457    1705.0312   -24207.488    17.673728   0.88510766 
    5200    231.55838   -394.81093       229892   -22547.387    1646.2022   -24193.589    17.878539   0.88510766 
    5300    230.26095   -502.62493       229892   -22615.057    1636.9785   -24252.036    18.141258   0.88510766 
    5400    229.05494    -374.7665       229892   -22602.073    1628.4047   -24230.478     18.46156   0.88510766 
    5500    236.20033   -286.85076       229892    -22593.79    1679.2029   -24272.993     18.86507   0.88510766 
    5600    231.78224   -308.54938       229892   -22627.549    1647.7937   -24275.343    19.253884   0.88510766 
    5700    233.57733   -344.43043       229892   -22614.075    1660.5554   -24274.631    19.798683   0.88510766 
    5800    236.70942   -433.08046       229892     -22598.3    1682.8222   -24281.122    20.273104   0.88510766 
    5900    234.96105   -300.89759       229892    -22632.97    1670.3926   -24303.363    20.518865   0.88510766 
    6000    234.29451   -347.95998       229892   -22635.627     1665.654   -24301.281    20.747526   0.88510766 
    6100     232.9072   -457.92065       229892   -22648.997    1655.7913   -24304.788    21.199772   0.88510766 
    6200    234.48404   -246.05782       229892   -22664.859    1667.0014    -24331.86    21.574952   0.88510766 
    6300    230.93566   -401.05227       229892   -22579.406    1641.7752   -24221.181    21.832216   0.88510766 
    6400    233.76876    -232.8728       229892   -22617.677    1661.9163   -24279.594    22.107336   0.88510766 
    6500    240.72335   -356.16585       229892   -22641.122    1711.3581    -24352.48    22.418647   0.88510766 
    6600    233.58323   -291.70179       229892   -22654.124    1660.5974   -24314.721    22.801421   0.88510766 
    6700    228.14772    -408.1013       229892   -22669.646     1621.955   -24291.601    23.253414   0.88510766 
    6800    237.06197   -313.21853       229892   -22660.098    1685.3286   -24345.427    23.315684   0.88510766 
    6900    232.23728   -311.16849       229892   -22622.838    1651.0287   -24273.867     23.38366   0.88510766 
    7000    238.06274   -426.04366       229892   -22619.127    1692.4433    -24311.57    23.681058   0.88510766 
    7100    235.33272   -298.66285       229892   -22639.238    1673.0349   -24312.273    23.926654   0.88510766 
    7200     232.0645   -273.31348       229892   -22700.575    1649.8004   -24350.376    23.829682   0.88510766 
    7300    229.32731    -334.1428       229892   -22731.324    1630.3411   -24361.665    24.018041   0.88510766 
    7400    234.90645   -131.64643       229892   -22701.402    1670.0045   -24371.407    24.318105   0.88510766 
    7500    235.59853   -391.64733       229892    -22668.21    1674.9246   -24343.135     24.81244   0.88510766 
    7600    238.55452   -320.57463       229892   -22620.027    1695.9394   -24315.967    25.106545   0.88510766 
    7700    236.10897   -169.74244       229892   -22639.694    1678.5534   -24318.247    25.341353   0.88510766 
    7800    232.03726   -384.63946       229892     -22704.4    1649.6067   -24354.006    25.652269   0.88510766 
    7900    233.21273   -429.48815       229892   -22661.547    1657.9634   -24319.511    26.054606   0.88510766 
    8000    230.81692    -248.7514       229892   -22587.668    1640.9311   -24228.599    26.205689   0.88510766 
    8100    243.24928   -326.10801       229892   -22564.489    1729.3155   -24293.805    26.440641   0.88510766 
    8200    237.07968   -232.87289       229892    -22578.67    1685.4544   -24264.125    26.989083   0.88510766 
    8300    240.70736   -479.57546       229892   -22544.552    1711.2444   -24255.796    27.394903   0.88510766 
    8400    242.27783   -266.98286       229892    -22548.12    1722.4093    -24270.53    27.696976   0.88510766 
    8500    238.09643   -273.30702       229892   -22590.063    1692.6828   -24282.746    27.944425   0.88510766 
    8600    235.05765    -332.1167       229892   -22607.099    1671.0793   -24278.178    28.466389   0.88510766 
    8700    234.14415   -303.44626       229892   -22637.435    1664.5851    -24302.02    28.633626   0.88510766 
    8800    236.03113   -396.96524       229892   -22636.517         1678   -24314.517    28.946955   0.88510766 
    8900    230.03673   -446.16759       229892   -22674.645    1635.3845    -24310.03    29.432232   0.88510766 
    9000    238.24624   -286.50694       229892   -22634.284    1693.7478   -24328.031    29.440886   0.88510766 
    9100     231.4228   -390.37485       229892   -22654.498    1645.2384   -24299.736    29.864707   0.88510766 
    9200     234.0808   -295.84877       229892   -22576.784    1664.1347   -24240.918    30.151093   0.88510766 
    9300    233.58415   -328.64012       229892   -22649.103    1660.6039   -24309.707    30.409759   0.88510766 
    9400    237.58187   -428.12937       229892   -22606.589    1689.0246   -24295.613    30.631075   0.88510766 
    9500    230.14981   -417.03776       229892   -22634.762    1636.1884    -24270.95    30.748613   0.88510766 
    9600    238.40454   -199.09789       229892   -22648.462    1694.8732   -24343.335    30.872063   0.88510766 
    9700     235.4767   -281.98302       229892   -22626.083    1674.0585   -24300.142    31.511915   0.88510766 
    9800    238.96255   -345.79746       229892   -22590.031    1698.8402   -24288.872     32.19547   0.88510766 
    9900    239.80785   -373.05495       229892   -22616.873    1704.8497   -24321.723    32.573124   0.88510766 
   10000    236.98352   -415.34074       229892   -22623.355    1684.7708   -24308.126    32.883235   0.88510766 
Loop time of 18.5729 on 120 procs for 10000 steps with 9010 atoms

Performance: 232.597 ns/day, 0.103 hours/ns, 538.420 timesteps/s
98.0% CPU use with 120 MPI tasks x no OpenMP threads

MPI task timing breakdown:
Section |  min time  |  avg time  |  max time  |%varavg| %total
---------------------------------------------------------------
Pair    | 0.00048637 | 4.3484     | 15.695     | 245.0 | 23.41
Neigh   | 0.00041175 | 0.13936    | 0.52579    |  45.9 |  0.75
Comm    | 0.03693    | 7.6604     | 16.92      | 214.0 | 41.25
Output  | 0.16698    | 0.16712    | 0.17392    |   0.2 |  0.90
Modify  | 0.46668    | 6.1381     | 18.24      | 288.4 | 33.05
Other   |            | 0.1195     |            |       |  0.64

Nlocal:    75.0833 ave 232 max 0 min
Histogram: 57 3 25 5 0 0 0 0 4 26
Nghost:    605.183 ave 1023 max 0 min
Histogram: 10 10 0 0 10 20 30 10 20 10
Neighs:    0 ave 0 max 0 min
Histogram: 120 0 0 0 0 0 0 0 0 0
FullNghs:  7455.63 ave 29075 max 0 min
Histogram: 70 20 0 0 0 0 0 2 13 15

Total # of neighbors = 894676
Ave neighs/atom = 99.2981
Neighbor list builds = 572
Dangerous builds = 0
write_data 	    ${DIR}/data.${NAME}_eq
write_data 	    run_16/data.${NAME}_eq
write_data 	    run_16/data.ibeam_cooling_16_eq

undump              1
unfix               4



################################################
#######         Run Simulation         #########
################################################

reset_timestep      0
timestep	    10.0
log                 ${DIR}/log.run_${NAME}
log                 run_16/log.run_${NAME}
log                 run_16/log.run_ibeam_cooling_16
