LAMMPS data file via write_data, version 7 Aug 2019, timestep = 5000000

4104 atoms
1 atom types

2.2947443344387963e-01 5.1190525566555309e+01 xlo xhi
2.2947443344387963e-01 5.1190525566555309e+01 ylo yhi
2.2947443344387963e-01 5.1190525566555309e+01 zlo zhi

Masses

1 18.15

Atoms # atomic

1284 1 2.7189360852497240e+00 9.8680978568479505e-01 1.3525728993417712e+00 0 0 0
2009 1 8.4065103335829257e+00 1.6992681162913985e+00 4.2584475581171679e+00 0 1 2
1910 1 1.0367434010156412e+01 3.2602221471244910e+00 2.7486776481214727e+00 0 0 1
3024 1 4.7114916225743153e+00 7.1714419678294430e+00 2.6394031895222148e-01 0 1 1
2779 1 1.2775823149327483e+01 1.8004918813599202e+00 2.3051587893001257e+00 0 1 1
3591 1 4.0719543147985434e+01 2.5600016905975679e+01 3.5300550993669497e+00 1 1 1
2469 1 1.9854768243362415e+01 2.1649958556869171e+00 6.3951153780179448e-01 0 0 0
3337 1 2.3239624158982267e+01 2.4045022730744425e+00 2.6084726358837806e+00 0 0 2
301 1 2.7931005732547753e+01 3.0334670891650255e+00 3.3040721270639799e+00 0 0 0
460 1 1.3893406354823002e+01 7.4056868802257467e+00 9.9715501769201742e-01 0 0 0
2426 1 3.2615987173864397e+01 3.2483063511158807e+00 1.6576417119448739e+00 0 0 1
3713 1 2.5263317581113583e+01 2.4097795688660476e+01 1.0191511762502754e+00 1 2 1
3526 1 3.6071752760770821e+01 1.2747600490892568e+00 2.0788403745641268e+00 -1 1 1
3440 1 1.7785222017224044e+01 9.0628816964548220e-01 3.2846858198663114e+00 0 1 0
350 1 3.9536438549436930e+01 1.4680936586477280e+00 2.5041273580681835e+00 -1 0 0
2352 1 1.0448206608500579e+01 8.9307163530062961e-01 5.8052598216707310e+00 0 1 2
3442 1 2.0050874959125103e+01 2.1955756488564624e+01 3.8913613231427419e-01 1 0 1
2808 1 4.5225273817908224e+01 1.6779924163951776e+00 2.3539836757190904e+00 0 2 0
1455 1 4.8013213586765929e+01 2.1876627198168008e+00 1.7301625880942622e+00 0 0 1
1797 1 2.3909674631520099e+00 3.3286627495659142e+00 2.4030653284627701e+00 -1 0 2
152 1 8.7578086511192088e-01 5.4439332469760053e+00 1.3686261577764665e+00 -1 -1 0
525 1 2.9382426206542711e+01 3.0589644426240881e-01 5.7808504522223831e+00 -1 1 0
3312 1 5.0164072134181241e+00 4.3221400788586770e+00 3.4035484170018453e+00 1 0 0
3667 1 1.1436017015041481e+01 5.1874497738415544e+00 4.2894352418222095e+00 1 1 1
1941 1 1.3666519121189788e+01 6.1730399209877289e+00 3.5141540739213446e+00 0 0 0
385 1 1.8733046736738807e+01 5.4324493464390287e+00 3.0864257143111686e+00 0 -1 0
1147 1 2.0403842154325542e+01 4.9886834298824319e+00 1.0910210950123760e+00 0 -1 0
178 1 2.2627313165644640e+01 5.1458387860746129e+00 3.0679197463218224e+00 0 0 1
47 1 2.4081618198915837e+01 6.4650650315410889e+00 1.2425737007082298e+00 0 -1 0
3274 1 2.6332739502304673e+01 5.2911109812626069e+00 1.7545987492969226e+00 0 1 1
2646 1 3.0193873466063749e+01 6.7801132797994539e+00 3.5330226667652167e+00 0 0 0
1356 1 3.9269242132276446e+01 4.8786069506719949e+00 1.0008166265753870e+01 0 0 0
3740 1 3.7282091259186970e+01 5.3703550191506189e+00 3.1356377791289045e+00 0 1 2
3087 1 3.6561777161122805e+01 3.8899113070764511e+00 7.0587731321328173e-01 0 0 1
3551 1 4.3256460644966623e+01 3.5694294741438766e+00 1.6797253954776092e+00 0 1 0
3011 1 2.1566908075436859e+00 8.1245202319453114e+00 1.7648615695844201e+00 0 1 1
2141 1 2.3594918869996224e+00 2.5088455716638038e+01 4.9437723211154374e+00 0 0 1
3948 1 6.4520863639633337e+00 8.9320702811569728e+00 1.2549812760457386e+00 1 1 1
651 1 8.9477558618362689e+00 8.0125254623997648e+00 1.4566760179042317e+00 0 0 0
2361 1 3.7121062762655114e+01 3.5052764310250240e-01 1.0236871548048118e+01 0 1 0
1565 1 3.0828065727391547e+01 2.8883464496678357e-01 1.1618232549823528e+00 1 0 1
746 1 1.5628327578000496e+01 9.3610457287019493e+00 1.2543861858910863e+00 1 -1 0
874 1 1.8977045637997218e+01 8.2215312254032487e+00 3.4017033327600479e+00 1 0 0
2760 1 1.9157283539900405e+01 2.3240604234354144e+01 9.1858447965534982e+00 0 0 0
2688 1 2.4233298188942303e+01 9.3704897112083358e+00 1.8616731026577455e+00 1 1 1
3248 1 2.7558387100786412e+01 7.2075948416667464e+00 3.2310067516444718e+00 2 1 2
33 1 2.7238553708861435e+01 9.5437175564528793e+00 1.5980592854342386e+00 0 -1 0
3214 1 3.2094218302778259e+01 8.5425594667200837e+00 3.0693685748062118e+00 0 1 1
2680 1 1.7549325495706725e+01 7.4928924162426447e-01 3.4393494684943093e-01 0 1 0
2328 1 3.6775423528175928e+01 7.8767955171289881e+00 3.0968856094643438e+00 0 0 -1
830 1 5.6434690795166649e+00 4.5526824205075824e+00 8.4400147201915565e-01 0 1 -1
3949 1 4.0831691275723806e+01 7.0439796411092441e+00 1.6828087350899152e+00 0 1 0
3504 1 4.0363848582010370e+01 9.6405079173094776e+00 2.6220592988383236e+00 -1 0 1
2824 1 4.3600682999962707e+01 6.0893492723746663e+00 2.3818110512987007e+00 -2 1 2
3675 1 2.3063754164044845e+01 2.5654633810909939e+01 5.2407762123981829e+00 -1 1 1
3372 1 4.9279598726450772e+01 6.4942294094151389e+00 2.3336976800925791e+00 0 1 2
3925 1 4.9006843341579632e+01 8.7613268394542541e+00 3.8328274852184716e+00 -1 2 1
3363 1 1.1915213640383159e+01 1.1583441762851230e+01 1.4721447815630160e+00 1 1 1
663 1 1.4487938756707734e+01 1.2000443913317335e+01 1.6509978713628475e+00 0 1 1
326 1 4.2547078634608347e+01 2.5168741533249520e+01 9.4055744402351209e+00 0 0 0
1185 1 2.2038359325523007e+01 1.0887513373502188e+01 3.5721817207116109e+00 0 -1 1
2990 1 2.4107863918568910e+01 2.4366970954663714e+01 9.0978453458817885e+00 1 1 0
3848 1 2.8882227839359476e+01 1.1338797013135380e+01 2.0847596605137966e+00 -1 0 2
1814 1 3.3196002745818802e+01 1.2062190272417762e+01 7.9373557295496466e-01 0 -1 1
1709 1 7.1573944809471142e+00 1.7152311157803442e+01 1.3303794227661396e+00 1 0 0
309 1 4.4378617503679045e+01 1.0265782243487251e+01 2.4979658050286275e+00 0 0 0
4075 1 1.5414883544473597e+01 2.5383211463813947e+01 9.3700543561203986e+00 1 0 0
93 1 2.5344517691239940e+01 1.2997520547530302e+01 1.6203210551906602e+00 1 0 0
109 1 4.8660422595513531e+01 1.0730082633685658e+01 1.9278949859489354e+00 -1 0 0
1135 1 3.4783530141499397e+00 1.2585836296616918e+01 3.0604864736459918e+00 0 1 2
2368 1 5.4215304638443094e+00 1.4612563194166848e+01 3.8351818607572010e+00 0 -1 0
3082 1 7.7360977155308088e+00 1.4095050193896940e+01 2.6736594870823849e+00 0 1 1
3231 1 9.8294624237260138e+00 1.5597993270613438e+01 2.8432050742633717e+00 2 1 1
2126 1 1.1280739984545599e+01 1.5276841060958379e+01 8.7848905212901340e-01 0 1 -1
474 1 1.5445554801886081e+01 1.5763187621111520e+01 3.4337259586562907e+00 0 -1 1
846 1 6.4108792256493068e+00 2.1498972603302207e+01 9.5439793483360482e+00 0 -1 0
2223 1 1.9993992488136293e+01 1.4322755095666555e+01 3.9909418164418984e+00 0 1 1
2043 1 1.9947509268699140e+01 1.2138260834896531e+01 2.1393296445233037e+00 1 0 1
3828 1 2.2327660118639717e+01 1.5237261058034667e+01 3.8465565212577215e+00 0 0 1
1432 1 3.5427937661451836e+01 3.6636329168259221e+00 1.0222257961644303e+01 0 0 1
677 1 3.0658464371363365e+01 1.3363393652411649e+01 6.2516016174132061e-01 0 0 0
3645 1 2.9830164940844000e+01 1.5923450378926878e+01 1.0499686517555025e+00 0 1 0
3523 1 1.6107514714436178e+01 1.9973057970092029e+01 6.2303845822934301e-01 1 1 0
1016 1 3.7169597636073561e+01 1.3518139088815435e+01 2.1014368360579057e+00 -2 0 -1
3893 1 3.9913064381554889e+01 1.3624826574054261e+01 1.2504670636699851e+00 0 0 1
2307 1 4.6461723485437027e+01 1.2214647869534767e+01 2.5323064054158211e+00 -1 1 0
807 1 4.5942497405283753e+01 1.4868766373473543e+01 1.1762814465948437e+00 -1 1 0
3217 1 5.0938976423083673e+01 1.4478997136893437e+01 1.4544865404071643e+00 0 0 1
2883 1 2.7033052823348496e+00 1.7901795517461633e+01 2.7205805623069459e+00 1 1 0
905 1 4.4992695185049199e+00 1.6027419823381816e+01 1.4734065745118159e+00 -1 0 1
1669 1 9.1449777303433848e+00 1.8357603679168200e+01 3.0651687646456183e+00 -1 -1 1
3971 1 2.9288627958546499e+01 2.4540944167922021e+00 9.5572487240570716e+00 0 1 2
2278 1 1.8037592375571940e+01 1.7917306483444033e+01 1.3989918159902506e+00 2 0 -1
412 1 1.8855535278566588e+01 1.9185830788840395e+01 4.4049301223604997e+00 0 0 0
3252 1 3.3360473506162712e+01 9.3391086469254176e+00 8.5691516657355338e-01 -1 0 1
2866 1 2.6464994914524748e+01 1.8642870184868684e+01 2.2005422420769003e+00 0 1 0
951 1 2.6294766706687671e+01 1.6065222405974790e+01 1.4019734289203025e+00 1 0 0
513 1 2.8940874299698802e+01 2.1085906293079088e+01 9.3194479478976877e-01 -1 0 1
120 1 3.4190950627687656e+01 1.7405264966171629e+01 8.1018341436413788e-01 0 -1 0
4036 1 1.9199654806129711e+01 2.8588948529343911e-01 1.0030749015749306e+01 1 1 0
3391 1 3.7972557360998252e+01 1.8195784977908371e+01 1.9644427853328057e+00 -1 1 -1
2462 1 4.0771286723144257e+01 1.7454296993204352e+01 1.4031860501642455e+00 0 1 -1
3831 1 4.3343397648971788e+01 1.7683163023350861e+01 2.1559794475559722e+00 -1 0 1
1813 1 1.9720427324353544e+01 8.8142960165689672e+00 4.9915710706765160e-01 1 1 1
2842 1 4.8849266272011079e+01 1.6096557244834596e+01 1.4156133937696753e+00 0 1 1
207 1 1.8131807521705576e+00 2.0033193730266035e+01 1.2924869306952298e+00 0 -1 0
3484 1 6.4855900421767041e+00 1.9704228719357481e+01 2.0921096721950225e+00 1 0 0
1776 1 1.1171014542989997e+01 2.0083695882006374e+01 1.9478599192671995e+00 0 -1 1
1518 1 1.5377888364885738e+01 2.0985495285908222e+01 3.2572395421390512e+00 0 1 1
949 1 3.9858960953355883e+01 2.4124923040460065e+01 9.2382278060180312e+00 0 0 0
4007 1 2.0318893233072654e+01 1.9323215238646746e+01 1.1425316703477177e+00 0 1 1
2183 1 2.2927793423360921e+01 2.2345730810320479e+01 2.9703523250322044e+00 0 0 -1
872 1 2.9101348533420786e+01 2.3805987835979718e+00 9.9610290318868355e-01 1 0 0
415 1 3.2817410987712044e+01 2.1476660194101793e+01 1.5145338725494832e+00 0 -1 0
3791 1 3.5466550187052029e+01 2.1598144083559660e+01 9.0299980372906397e-01 1 1 1
1698 1 1.0031880708649995e+01 2.4668187743359233e+01 9.6685561745069286e+00 -1 1 0
80 1 1.7559503379181451e+00 2.4812397235060121e+01 1.0420188035139210e+01 2 0 0
185 1 4.4354728752643069e+01 2.2976600661480209e+01 2.5432005918928828e+00 -1 0 0
1033 1 5.1117631853938086e+01 2.1482094831919468e+01 3.0319746929278484e+00 0 0 0
1999 1 4.8669251302628922e+01 2.1025538851957769e+01 2.4076164298721907e+00 0 0 1
3104 1 1.1214358994130307e+00 2.3693463738526315e+01 1.6303579028544599e+00 1 0 -1
213 1 4.9278381232999262e+00 2.4524398660571542e+01 1.1153557822048528e+00 2 0 1
712 1 7.8721318684874086e+00 2.2239627397046533e+01 3.3079190531708251e+00 1 -1 1
3189 1 7.0397944037103741e+00 2.4865191356396700e+01 2.9013481632167246e+00 0 1 1
2115 1 1.0412312198861322e+01 2.2479627259666270e+01 2.0708912572241895e+00 0 0 1
3463 1 1.2057583598414489e+01 2.4139522644572430e+01 3.3576697356704104e+00 1 1 1
3485 1 1.4638004558422772e+01 2.3600709159137107e+01 2.6564087018706779e+00 0 -1 1
2784 1 1.6683204159286877e+01 2.4957322568845676e+01 3.7859571620041779e+00 -1 0 0
2275 1 1.8888708032499782e+01 2.3500980948053478e+01 4.3467850391815990e+00 0 -1 1
3690 1 5.0240532005669287e+01 1.2259606463736025e+01 2.8708450783719097e-01 0 0 1
2394 1 2.0603907510400422e+01 2.3638482709681256e+01 2.3619642527368145e+00 0 0 0
1526 1 3.1886090463388911e+01 2.4094039158569892e+01 9.7280833924534829e+00 0 0 1
3152 1 2.7793510129120154e+01 2.3346576489025725e+01 1.8834375582792156e+00 0 0 1
504 1 2.9675259856703601e+01 2.5149247711734372e+01 1.3252180122860029e+00 0 0 0
2377 1 5.0163537050870708e+01 3.4840309153397535e+00 1.0300994197250004e+01 -1 1 0
1149 1 3.2311753928917568e+01 2.4171770367994593e+01 1.2305482637650522e+00 0 0 1
2060 1 1.2455877321804163e+01 1.3189814999480027e+00 1.0060505766141523e+01 1 0 0
2739 1 3.8365627697214819e+01 2.2478099072725261e+01 2.9284244250179401e+00 0 0 1
1761 1 4.1485386607837675e+01 2.4000867252665429e+01 1.2770652159029903e+00 -1 -1 1
72 1 4.7376361451195621e+01 2.3647659806470902e+01 2.7466852579315599e+00 -1 -1 -1
2226 1 4.5637815258874284e+01 2.3227296210675068e+01 7.2810224332214846e+00 0 0 0
2544 1 4.7636929080173589e+00 8.0204125798859782e-01 6.1722789826523732e+00 1 0 1
3997 1 6.2226833805740194e+00 2.7543829766872241e+00 5.2238093183441254e+00 1 0 1
1636 1 3.3654710504003837e+01 8.9334011563511737e+00 9.1916121950262291e+00 0 0 1
2924 1 1.3055936179236449e+01 2.1519939143893088e+00 6.0188775563210353e+00 -1 1 1
1545 1 1.4418053477948778e+01 3.3494876221220866e+00 3.7692929020356374e+00 0 1 0
1439 1 1.5109706026827157e+01 1.2750802495436935e+00 7.7612687693324407e+00 1 0 0
23 1 1.7117684959845981e+01 3.2458571652160351e+00 3.9750569694258622e+00 0 0 0
1288 1 1.6950033618783650e+01 2.9609043735933160e+00 6.6289580915212323e+00 -1 0 0
3453 1 2.0713417695919880e+01 9.6442954483946486e-01 3.0274016376593207e+00 1 1 2
12 1 1.9031026669152347e+01 1.2891232764968308e+00 6.3608582559387417e+00 1 0 0
983 1 2.5557431140318865e+01 2.5005482854746135e+00 4.2536080035597408e+00 -1 0 0
257 1 4.4991698266116117e+01 2.3841447403307555e+01 9.8409017774892344e+00 0 1 0
1533 1 2.9359963264926353e+01 3.4523926005370655e+00 5.4053704242227703e+00 1 0 1
945 1 4.4633174562040523e+00 1.6894186206283415e+01 1.0207605078532531e+01 -1 -1 1
2822 1 3.3861994160876009e+01 3.4622222125780202e+00 3.7892590543260245e+00 0 1 1
3008 1 3.7977421194456767e+01 9.6591241194187938e-01 4.4477881235669177e+00 1 1 0
1659 1 4.1342560668360903e+01 3.1402586403608876e+00 3.4480268644598198e+00 0 -1 2
2252 1 4.1821407529366233e+01 2.3360045522169082e+00 6.0613912357756794e+00 0 1 0
468 1 4.7077091984514283e+01 1.0687381044074222e+00 6.4728667013011139e+00 0 1 0
988 1 5.1175251510422221e+01 1.0075176024230150e+00 5.5732043501623547e+00 -1 1 0
1248 1 2.6776802927592578e+00 4.3832177857813974e+00 6.6723106959358285e+00 1 -1 0
3689 1 8.2619794970456983e-01 3.4237299181443630e+00 4.7296943889205290e+00 1 3 0
1794 1 8.3117128438845818e+00 6.3977758538147746e+00 6.3724816382101990e+00 0 0 1
2744 1 7.0949944322357057e+00 4.3634816132188279e+00 7.4119459321525651e+00 -1 1 1
1037 1 2.0966842917218401e+01 5.7859083500719874e+00 5.1463640472455170e+00 0 0 1
3922 1 2.3996135856285818e+01 6.2161665102162500e+00 6.0515568551538790e+00 0 1 1
3665 1 2.4509460539286216e+01 3.5532195586518571e+00 6.7061389375769203e+00 0 1 0
2493 1 3.1686879387148888e+01 4.8342573302881506e+00 4.7771455344080698e+00 -1 1 0
1945 1 3.6090586998485968e+01 4.7178255752419158e+00 5.1711550092518941e+00 0 0 0
362 1 4.0050268763913991e+01 5.3750241886240797e+00 3.7626568311547586e+00 -1 1 1
3929 1 4.0270720717145487e+01 6.2103636425236992e+00 6.4586902897698959e+00 0 1 1
1222 1 4.3305602875877398e+01 6.7451612385368707e+00 6.5704174464778955e+00 0 0 1
1997 1 4.7402719229901500e+01 4.9759514762412618e+00 5.1693991387094185e+00 1 -1 0
2241 1 4.5143623480105532e+01 6.2009648671985760e+00 4.7267574186003847e+00 0 1 0
1970 1 4.9390009229529930e+01 3.9977600192339753e+00 3.4583228454703718e+00 0 1 0
1295 1 2.4712105270632105e+00 8.5156191866529376e+00 4.3196545298376474e+00 1 0 1
3245 1 5.1116604531979142e+01 9.4769895024646527e+00 5.2331729271815419e+00 -1 0 1
2956 1 4.2534709429186845e+00 6.3349763469301443e+00 5.0738062211648414e+00 0 1 0
1153 1 6.2914809579559705e+00 8.1060163453253491e+00 6.1433827344787852e+00 0 0 0
1527 1 9.6412837704010474e+00 7.4989867809079591e+00 4.0928225438227486e+00 0 0 1
3376 1 6.3603352200121819e+00 9.9193373385976535e+00 3.9070353194587719e+00 0 1 1
1916 1 1.1406401655348411e+01 9.2684214111898342e+00 5.0730012577951209e+00 0 0 0
3827 1 1.4125482367745873e+01 8.1427715742685312e+00 5.3288294128813529e+00 -1 0 1
572 1 1.6424171253011878e+01 9.3162079927176151e+00 4.0156328058588020e+00 1 0 0
3849 1 1.9739043059904176e+01 8.3057214590507886e+00 6.2616404181759897e+00 1 0 2
2255 1 2.2033229143222425e+01 9.4720744479521528e+00 6.4335797129223762e+00 1 1 1
761 1 2.4993632248583577e+01 9.8301495540383428e+00 4.7726799706432210e+00 1 -1 0
1844 1 2.3275209004032984e+01 7.7702153746367317e+00 8.1675223435551665e+00 -1 0 2
1347 1 2.6586255550541260e+01 7.1245347611681584e+00 5.5112535806762297e+00 0 0 0
2738 1 2.9172005928690439e+01 7.7237656360458509e+00 6.8603814685765050e+00 -1 0 1
3564 1 3.4301432716153066e+01 8.4289241122544016e+00 4.4254274691704376e+00 0 1 0
2437 1 3.8464699110545155e+01 9.3593222029776602e+00 4.3072432736627624e+00 0 1 1
1620 1 4.3291303591248585e+01 9.6171001636304840e+00 6.4659353219407834e+00 0 1 0
620 1 4.6412692323341247e+01 8.4634514193334560e+00 4.9246930544754939e+00 0 0 1
3043 1 4.0016175367724092e+00 1.0758960038869299e+01 4.9829936574948892e+00 1 1 1
1723 1 4.7930649327825048e+00 1.1736805786415415e+01 7.4344704432125823e+00 0 0 -1
637 1 8.0475409126579169e+00 1.2181243490646184e+01 4.3960397258154753e+00 0 -1 1
2860 1 7.3839965897405868e+00 1.3081398179259189e+01 6.8986139417919397e+00 0 0 0
532 1 1.0539222993224286e+01 1.1445411224798784e+01 3.8794379026007864e+00 1 -1 1
3796 1 1.6774547022017547e+01 1.1530859730394743e+01 5.4444800626624774e+00 0 1 2
2181 1 2.6108782961436962e+01 1.1362282538479858e+01 7.0511083614013073e+00 1 1 0
69 1 3.0769462569086325e+01 1.0854009892022951e+01 4.0641973022466038e+00 -1 1 0
1931 1 3.3058129405786943e+01 1.2521645306784034e+01 3.5390058530511435e+00 1 -1 0
2070 1 3.4663838447041861e+01 1.1050472390872573e+01 5.4670758944423232e+00 0 0 0
241 1 3.7195079397268174e+01 1.1640843114392453e+01 4.2502840899331078e+00 1 1 1
2837 1 4.2397563555817875e+01 1.0631546792222526e+01 4.1230809071522350e+00 -1 1 0
3856 1 4.5543089591983872e+01 1.0958473741759949e+01 6.6542861475952062e+00 -1 1 2
506 1 5.0400535857489210e+01 1.1996914747906285e+01 5.2447376609039456e+00 1 0 0
1763 1 1.2073466362151746e+00 1.3774435637993703e+01 4.0088193774443690e+00 1 1 0
1226 1 7.6287084561946648e+00 1.5576592881957350e+01 7.5145851838283528e+00 0 -1 1
855 1 1.2751966344828901e+01 1.2898013020287717e+01 5.1262908853860383e+00 0 -1 0
2954 1 1.1473469183443381e+01 1.5346662693387985e+01 5.1257972906287330e+00 1 1 1
282 1 1.4924795762974103e+01 1.2998656324782816e+01 3.9803833427326416e+00 1 0 1
308 1 1.9212493504164925e+01 1.3130442236676856e+01 6.1481926708949146e+00 -1 0 1
2912 1 2.3801062406823906e+01 1.2849302249165870e+01 3.9375187443217965e+00 -1 0 0
667 1 2.4611667929566160e+01 1.3576472138862835e+01 6.4293377383763044e+00 0 1 0
908 1 2.7359615585479382e+01 1.2298276542899856e+01 4.1123152690875227e+00 1 0 0
4004 1 2.7025517743559227e+01 1.4862686782122372e+01 3.8185154846296858e+00 -1 1 1
3047 1 3.1955418683271319e+01 1.4979196008835011e+01 4.3755872661107125e+00 0 1 0
3040 1 3.7039911223519127e+01 1.5459233665202683e+01 6.3222011905663713e+00 0 1 0
3626 1 4.0828209875046326e+01 1.4123132736989531e+01 5.4894134106900072e+00 0 0 1
4015 1 4.1828838973715357e+01 1.3227721361014698e+01 3.2536360747344055e+00 0 1 1
1003 1 4.3892758386329774e+01 1.5059714243648930e+01 3.1502241295989766e+00 1 -1 0
2138 1 4.7953325408559024e+01 1.5112742151353482e+01 5.5162869554760361e+00 -1 0 0
2459 1 4.7529794845737634e+01 1.2527166099010524e+01 5.0592821796962966e+00 0 0 0
2008 1 4.5474748340308231e+01 1.6220034029992821e+01 5.3647124621614184e+00 0 0 0
1958 1 1.0682736605011856e+00 1.6420803339514652e+01 4.6725244382987059e+00 0 0 1
1780 1 5.2743504328872675e+00 1.6411129264848267e+01 5.8730896759981412e+00 0 -1 1
3800 1 1.0268079186275514e+01 1.4975632105640283e+01 8.1830227713762866e+00 1 0 1
26 1 7.5529529069639025e+00 1.8253784948607514e+01 5.6704929173936653e+00 1 0 0
1510 1 1.3583158925867139e+01 1.7298942940730416e+01 4.6752654067619241e+00 1 0 0
1339 1 1.7938169308291982e+01 1.6509566242671529e+01 4.0645040857840034e+00 1 0 0
2899 1 1.8121251471641074e+01 1.9586994028008441e+01 9.1360281188128418e+00 -1 1 2
2093 1 2.1754819022942243e+01 1.9618281474928050e+01 3.3089809898095264e+00 0 0 0
3071 1 2.3223451045092229e+01 1.6897504026574172e+01 5.7249413358996888e+00 0 0 0
2857 1 2.5996185819509652e+01 1.6017742644624775e+01 6.6865650165255746e+00 1 0 0
1521 1 2.4255925400994908e+01 1.8341582734160784e+01 3.4622590710887486e+00 -1 0 2
3913 1 2.9220273673968858e+01 1.6500390611049323e+01 4.0669045719647698e+00 0 0 0
1484 1 2.9087155146250460e+01 1.9419376501550762e+01 3.6390037188501116e+00 -1 1 1
1512 1 3.3961084796007462e+01 1.6636027032023211e+01 3.3655754251971177e+00 0 -1 1
2536 1 3.3869916238877749e+01 1.8853887233277160e+01 5.1525198215965080e+00 -1 2 1
3267 1 3.6845901369275445e+01 1.6089090586303442e+01 3.6454742557607460e+00 0 1 1
1926 1 4.1196095439046850e+01 1.7026960493853306e+01 5.5504203418582998e+00 0 0 1
323 1 4.1670818996107869e+01 1.9585796077295303e+01 4.9891464441437234e+00 1 -1 0
3075 1 4.6065337311289710e+01 1.8936084877295837e+01 5.4039468309284304e+00 0 -1 0
2959 1 4.9313983009279774e+01 1.6934677780221463e+01 3.7554064482880705e+00 -1 0 1
2801 1 4.8306279221373572e+01 1.9408112963145129e+01 4.3498494586378254e+00 0 1 -1
1591 1 1.6200353880355758e+00 2.2519627693814805e+01 5.2221172443874124e+00 0 -1 0
2482 1 4.8784603641126356e+00 1.9014541220065251e+01 4.3835494176433700e+00 0 0 0
1133 1 3.8938413766964528e+00 2.1123142707565449e+01 5.9686991819064206e+00 0 0 0
1282 1 9.1937022347903667e+00 2.0231213807387881e+01 6.8302425918793785e+00 0 0 1
4097 1 8.4610606010531964e+00 2.2646993208894173e+01 5.8433197577704652e+00 2 1 2
3168 1 1.2014937015868650e+01 2.1179126186183058e+01 6.2373424055944060e+00 0 0 0
4094 1 1.2961639786547638e+01 1.9865214621457337e+01 4.0147982220420158e+00 1 -1 1
2654 1 1.7383404471973673e+01 2.1203364485669518e+01 5.0500990753214632e+00 0 -1 0
529 1 1.6004222609350069e+01 2.0868779105586558e+01 7.6867134444989329e+00 2 -1 0
1596 1 2.4292605061834092e+01 2.2527456649588668e+01 5.4057567995385796e+00 0 -1 1
870 1 2.4416582052307511e+01 1.9991064590482392e+01 6.5103848655133101e+00 0 -1 0
2398 1 2.8432346904661628e+01 2.1142271306911031e+01 5.7162281115197544e+00 0 0 1
1215 1 3.1695331719209193e+01 2.0304978630316391e+01 3.8516736515494916e+00 0 0 1
196 1 3.1974147202178568e+01 2.2536661198117194e+01 5.2994995572116439e+00 0 0 0
3436 1 3.6306223173117324e+01 2.0506323207730425e+01 5.7843464035242906e+00 0 -1 0
2740 1 3.8540463371296333e+01 2.0291389138719698e+01 7.6389936061484009e+00 -1 0 -1
489 1 3.8921683261547734e+01 1.9889517882638582e+01 3.8683209987409461e+00 -1 0 0
3550 1 4.4234805022388855e+01 1.9951083249229416e+01 3.4144726867331365e+00 -1 0 1
3677 1 4.2410949979469315e+01 2.1452151210592273e+01 6.8145984326763651e+00 -1 0 -1
2945 1 4.9693675993771208e+01 2.0268500316950121e+01 6.6509600551614980e+00 -1 0 1
2068 1 2.1887691785331015e+01 1.5603052893119942e+01 1.0064464096218877e+01 0 0 0
3433 1 4.4921064918411693e+00 2.5528635495569514e+01 6.4618450845193589e+00 -1 1 0
1275 1 9.6691500064177234e+00 2.5141339342546207e+01 6.7804546172341675e+00 1 0 2
2955 1 1.2172233019828129e+01 2.3945462519341255e+01 5.8918732763972343e+00 0 0 0
2642 1 2.0140718145189286e+01 2.4390867583465148e+01 6.6714518269732910e+00 1 0 0
3538 1 2.2331963914782936e+01 2.3289237764275313e+01 7.4379146930203657e+00 1 0 0
718 1 2.6769399347992007e+01 1.9176035534059995e+01 9.7428148887780015e+00 0 0 1
3850 1 2.6775099381858819e+01 2.3251586511825941e+01 4.5065289554536694e+00 0 1 2
686 1 2.7670081508268503e+01 2.5226223927016719e+01 6.0945784170992319e+00 0 0 0
3770 1 3.0025971294980643e+01 2.3076386819147071e+01 6.9305388110795088e+00 0 0 1
3141 1 3.3029650495345528e+01 2.4452821467925062e+01 4.1707943393682347e+00 1 0 0
3654 1 3.5846446201693873e+01 2.4917749699007043e+01 4.5505645216854305e+00 -1 -1 1
892 1 3.5910935993411151e+01 2.2165596477119831e+01 3.6197597732146511e+00 0 0 0
2525 1 3.8773235109709205e+01 2.4168326979982211e+01 4.9038191461448530e+00 0 0 0
62 1 6.9440120768135287e+00 1.5760806549571660e+01 1.0238456807001047e+01 0 -1 -1
2949 1 4.3624188827405654e+01 2.3126182192754047e+01 5.3083898671761878e+00 -1 1 1
2720 1 7.1463882786313508e+00 2.4017937606949452e+01 9.9589979972154286e+00 -1 0 0
2523 1 4.8213648442915364e+01 2.3771600834822209e+01 6.5091186521955766e+00 1 0 0
2705 1 3.1310283964649122e+00 1.7049148398580933e+00 7.9720585736338920e+00 1 1 0
3187 1 2.3678071239438989e-01 1.3473929337223807e+00 8.2956290179743544e+00 0 2 0
1699 1 3.4126147401941985e+01 4.8402681197839847e-01 7.2958997979762357e+00 0 0 1
1323 1 8.0744940997801820e+00 2.6789785581348289e+00 9.1521804631555863e+00 -1 2 0
119 1 3.5824694150039186e+01 1.3384340857208370e+01 1.0043710023412915e+01 0 0 0
3016 1 3.9955282654054869e+01 2.2523710288764530e+01 7.0256801525086301e+00 -1 1 0
1326 1 2.1701459869791385e+01 1.3209884096781934e+00 9.4723491206144246e+00 -1 1 0
2663 1 2.1593019752406196e+01 2.1956323349253526e+00 6.9626887949706520e+00 1 1 0
3539 1 2.6331151004860530e+01 2.4033568782886170e+00 8.9888027395534564e+00 1 2 1
3733 1 3.6054270124591703e+01 2.4459581650324793e+01 1.0324536521078951e+01 -1 0 0
390 1 3.1652246397913373e+01 1.7408260536895606e+00 7.2246998497645700e+00 0 -1 0
1129 1 4.8649218173794083e+01 1.8865056499004744e+01 5.2320870963502120e-01 -1 0 1
2023 1 3.7755363205533669e+01 2.9700048518890840e+00 6.2261431050546774e+00 1 1 1
595 1 3.6504724750669467e+01 1.7639191209997074e+00 8.2530493410688095e+00 0 0 -1
3347 1 4.0457947859345204e+01 1.3818640833643252e+01 1.0149585860729960e+01 1 1 1
140 1 4.8158296462862310e+01 1.9456633806304897e+01 9.2740162826088319e+00 0 1 0
3632 1 4.8215763222003023e+00 4.7237785946160953e+00 8.8343060513696550e+00 0 0 0
2529 1 1.1109807963811612e+01 3.4170653199008600e+00 9.2138467651876983e+00 0 1 -1
2319 1 1.2352242275681659e+01 4.6034839375451195e+00 6.9287737624889072e+00 1 2 0
3273 1 1.6838762040757047e+01 5.2983569795063872e+00 7.8838388485752882e+00 1 1 1
3346 1 2.0250058416918073e+01 4.5639348056430071e+00 7.4522960883427434e+00 0 0 1
4089 1 2.7444517639055398e+01 4.3862907083389331e+00 7.0975634971485375e+00 -1 0 1
376 1 3.1564491020293428e+01 5.9866712648176090e+00 6.9685686933877919e+00 1 0 1
1500 1 3.4076317602558930e+01 2.4523964396396167e+01 8.3579978978951495e+00 -1 -1 0
1955 1 3.2752144386022565e+01 3.9861826705075791e+00 9.0300585467809977e+00 0 -1 0
2081 1 3.6871878761680819e+01 5.7408491752048683e+00 9.6148738627686452e+00 0 0 0
4100 1 3.0541815120976022e+01 5.2215738828838036e+00 1.0640759253144101e+00 -1 0 1
3532 1 4.0127401939312506e+01 3.7312768480628131e+00 7.6235465092877472e+00 -1 2 1
1602 1 4.3655882794767514e+01 2.7745967181360096e+00 8.3034542547245458e+00 0 1 0
3265 1 4.6162355220655684e+01 3.5568710705077216e+00 7.4570512255788186e+00 1 0 1
2309 1 4.7616545172641899e+01 4.4090897213217550e+00 9.6226394732144573e+00 -2 0 -1
1268 1 1.6334647733942205e+00 6.6442454443435830e+00 8.5281327513329170e+00 0 0 0
2781 1 4.1301302437868612e+00 7.3922752466960366e+00 9.5452973512944919e+00 0 1 1
4024 1 5.5287443469566222e+00 9.4096621189850413e+00 8.6020925557949255e+00 1 1 1
2360 1 8.0971283816513537e+00 9.2311445716026590e+00 9.7717431974240121e+00 1 1 0
2555 1 9.5819402103116005e+00 7.6142935380620997e+00 8.5753554749133141e+00 0 0 1
1188 1 1.4617146895492267e+01 6.4948560162923732e+00 7.7320608045922485e+00 0 -1 1
2928 1 1.4131244071068981e+01 8.6105542759749110e+00 9.2149322352653460e+00 1 0 0
2549 1 1.9266050061012077e+01 7.0841057948614363e+00 8.9451749976499091e+00 0 0 0
980 1 2.5377677165901282e+01 9.1651097051519788e+00 9.1876147790474558e+00 -1 1 0
2072 1 2.7751474299585063e+01 8.0047848739012935e+00 9.1243950177169886e+00 -1 0 0
599 1 3.3605268693531897e+01 7.7385112139011438e+00 6.8530033841610836e+00 1 -1 1
2563 1 5.0782516491393331e+01 2.2631896275046110e+01 7.0536669967877037e+00 1 0 0
3188 1 3.6501306040424844e+01 6.5168393744412061e+00 7.1101669057830224e+00 0 0 1
2258 1 3.8773657143896521e+01 8.1539669018991319e+00 6.8753267900418891e+00 0 0 0
1961 1 4.4068220667153270e+01 5.9414778341879897e+00 9.2521184019831448e+00 0 1 0
3700 1 4.6960196464986659e+01 6.9543175349424935e+00 9.6386983125209831e+00 -1 1 0
3493 1 4.8313873289753289e+01 7.2545984406158492e+00 7.1496876803007963e+00 -1 1 1
2350 1 5.0611233892462764e+01 8.7277300257249379e+00 7.7779268174250955e+00 0 1 -1
226 1 7.9725469219666820e+00 1.1974857346919558e+01 9.1238821303439241e+00 -1 1 -1
2832 1 1.1533225971442539e+01 9.4020321401361269e+00 8.2143379282634648e+00 0 1 0
3811 1 1.1001280408581851e+01 1.2098772659349819e+01 9.0724820848024059e+00 0 0 2
3716 1 1.5947849298290029e+01 1.2442846401720576e+01 7.9430180813789564e+00 0 1 0
2267 1 4.0408850341271126e+01 1.6522667268348631e+01 9.4575838115208803e+00 -1 1 -2
2274 1 1.8827272354111273e+01 9.9196164316916455e+00 9.4394734870522701e+00 -1 1 0
1811 1 2.0759400270633869e+01 1.1642998896414177e+01 7.6549322010170417e+00 0 -1 0
1343 1 2.2843802465271242e+01 1.3360807625922597e+01 8.7126787807071295e+00 -1 0 0
3998 1 4.5750607397333958e+01 2.0401310209409537e+01 7.6727260383849787e+00 -1 1 1
131 1 2.8528089759421295e+01 1.2528598955174337e+01 7.3911083473606718e+00 0 0 0
3399 1 3.0290962954838417e+01 1.0696423044036630e+01 6.7022858523442670e+00 0 1 1
3179 1 3.2836788675557742e+01 1.1737484321390115e+01 7.6925782123502797e+00 0 1 0
848 1 3.8208837387567890e+01 1.2600241690254526e+01 9.1277308688270100e+00 0 0 0
298 1 3.8798858676118954e+01 9.8603154067436822e+00 8.9608499559853421e+00 -1 0 0
680 1 4.1699553808910416e+01 1.0625979936798496e+01 8.3015702948819765e+00 0 0 1
3122 1 4.6800684846236088e+01 1.1058915492154460e+01 9.3830269869951159e+00 0 0 -1
851 1 4.9912813018694067e+01 1.0461142141890129e+01 9.4243944013056709e+00 0 0 -1
3196 1 5.1171009199950760e+01 1.3063590059306287e+01 7.5931098364560059e+00 -1 0 0
1674 1 2.8995551479666410e+00 1.3176018489811867e+01 8.4651464488610593e+00 1 0 1
3228 1 3.3168954772713386e+00 1.6103611947000342e+01 7.7944197359960485e+00 1 0 0
1178 1 3.5924925868761143e+01 8.4464326568453245e+00 5.9090924689565227e-01 0 0 1
632 1 1.3403771841387156e+01 1.3158189420222415e+01 8.1280583602534016e+00 1 0 -1
3952 1 1.3514116919276523e+01 1.5810102218439175e+01 8.9916667400276076e+00 0 0 0
1537 1 1.7669670123570377e+01 1.4674612051111414e+01 9.0258918430164776e+00 -1 0 1
2773 1 1.7463236065127347e+01 1.6826956715815289e+01 7.2634719318807885e+00 1 1 0
656 1 2.7181386937914183e+01 2.3972161602363084e+01 8.8048782610272394e+00 0 -1 1