LAMMPS data file via write_data, version 7 Aug 2019, timestep = 200000

4104 atoms
1 atom types

2.2947443344387963e-01 5.1190525566555309e+01 xlo xhi
2.2947443344387963e-01 5.1190525566555309e+01 ylo yhi
2.2947443344387963e-01 5.1190525566555309e+01 zlo zhi

Masses

1 18.15

Atoms # atomic

2042 1 4.4585454362798460e+00 2.5584134534939413e+00 3.3309645323908037e+00 0 0 1
2683 1 4.3051821407243310e+01 2.4419353157244608e+01 6.9731643457991490e+00 0 0 0
3355 1 1.3330618976810422e+01 2.8160647242000159e+00 3.1072967915297407e+00 0 1 0
2393 1 3.5135931410383890e+01 2.5438542888083948e+01 9.3436353621001746e+00 0 0 0
911 1 1.6367551064178379e+01 2.8937832340143035e+00 3.2530224729065935e+00 0 0 0
3726 1 4.1425057864973354e+01 2.5264693888233936e+01 1.2732648096122170e+00 -1 0 0
4009 1 1.2283846340379949e+00 2.5531665485736934e+01 8.9787398372597309e+00 0 0 1
4057 1 2.3003223555819670e+01 1.8296455497272663e+00 3.0874074037884993e+00 0 1 1
1660 1 3.7984298769122319e+01 1.7458208714821048e+01 1.0501416096877441e+00 0 0 1
1854 1 2.7220327287329429e+01 3.3197386378652043e+00 1.6009837909721560e+00 0 1 1
2722 1 3.0984875471915625e+01 3.6892433694429907e+00 1.7928336943875038e+00 -1 1 0
1394 1 3.3822784856745628e+01 4.2531110320973751e+00 1.9092469710451947e+00 0 0 1
456 1 3.8125752212493722e+01 4.0544030336593337e+00 2.4820057371657716e+00 -1 0 0
1964 1 3.8456462364924462e+01 1.3021886161852651e+01 2.0152504800498789e+00 0 0 1
2727 1 1.1415589684448058e+01 9.7143293273120861e+00 1.0099658497304320e+00 0 1 0
605 1 4.1260316543621940e+01 2.1373144921420599e+00 2.6149152965480456e+00 0 0 0
40 1 4.3804745632387451e+01 1.1296761842669678e+00 3.2762468820620683e+00 0 0 0
3791 1 4.8753434613113086e+01 5.8324237657576994e-01 2.3233093207130890e+00 0 1 0
1573 1 8.8236598343180912e+00 2.4565813118302582e+01 9.8709847166525355e-01 0 0 1
152 1 9.9899134338328510e-01 4.3090095012284593e+00 2.4683928721729727e+00 0 0 0
1908 1 1.2795701747642291e+01 5.3136875051212273e-01 5.6045047222097626e+00 0 0 1
651 1 3.9716353089427892e+00 4.8631623494993175e+00 1.3499835594705274e+00 0 0 0
1828 1 8.7839051698974338e+00 3.1661286414426821e+00 3.0174633504353672e+00 0 0 1
2012 1 2.7265172380206977e+01 2.4289376226229109e+01 8.6303799894133331e+00 0 0 1
3723 1 2.0412183597865145e+01 1.5368114983175067e+00 1.6857751656947921e+00 0 1 1
2129 1 1.2018928583222788e+01 4.0775573317820841e+00 5.3467620508572757e+00 0 1 0
37 1 1.6215287873332848e+01 5.6864426325295163e+00 4.0642420237271661e+00 0 0 0
2204 1 1.9490731876660988e+01 4.0954816069895825e+00 2.9736088583215592e+00 0 1 0
1575 1 2.1372010937591842e+01 5.7365164187470699e+00 3.5264420324003432e+00 0 0 1
2407 1 1.9701829421573066e+01 7.7647604609339540e+00 4.2441564932998830e+00 0 0 0
1227 1 2.4371474052803670e+01 6.1482897877727165e+00 2.1623371705783239e+00 0 0 1
2552 1 2.6582991281592246e+01 8.7777790367253239e+00 1.5842840930623070e+00 0 0 0
2194 1 3.3810397616167847e+01 5.9432396506968956e+00 4.2095192304007263e+00 -1 1 0
2814 1 1.6704748774925235e+01 2.5585456533206727e+01 2.2503287417813995e+00 0 1 0
51 1 3.6345636386768547e+01 5.3069016161065177e+00 1.0961245065759027e+00 0 0 0
2545 1 4.5739421904893078e+01 2.4849359398088264e+01 6.8412635292920108e+00 -1 1 0
2178 1 4.5198200500176299e+01 3.3375969941976460e+00 2.7051629634630578e+00 -1 1 0
3425 1 4.9067737541000909e+01 4.7078387712122431e+00 1.3244040153445900e+00 0 1 1
2040 1 2.5306900251327988e+00 8.9695713276560536e+00 1.2139751354087784e+00 0 0 1
869 1 9.1162009479410546e+00 1.1314980571918717e+01 1.0770049683574117e+00 0 0 1
3625 1 2.8623338088058304e+01 3.7763475789578449e-01 4.1999848140451705e+00 0 1 1
368 1 6.0682362116131445e+00 7.3850023480046403e+00 3.5367807879743718e+00 0 0 0
886 1 4.8122653498556405e+00 1.0766429226856415e+01 1.0022615514410125e+01 0 0 0
3230 1 1.6015772114550490e+01 7.4006398896885042e+00 1.6303131059318483e+00 0 1 0
76 1 1.4807372499522037e+01 9.4211764655918646e+00 3.6973426744186133e+00 0 0 0
944 1 1.8996485207813283e+01 9.1658117481396584e+00 1.1767000688738913e+00 0 0 0
1940 1 2.2140477648845742e+01 9.2376705778009391e+00 9.8705954833297183e-01 0 0 0
1815 1 2.3228164341230837e+01 9.6526122454478571e+00 3.5076268968593940e+00 0 0 1
3999 1 2.7097685417201987e+01 1.1800952890657696e+01 1.2560569680871163e+00 0 0 1
2272 1 3.4586853130422256e+01 2.2776922211005143e+01 9.7182299493651350e+00 -1 0 0
1770 1 2.5734070605695749e+01 1.7005536910701665e+01 1.0195038256422184e+00 -1 0 1
109 1 1.4007478476102102e+00 1.7393250597403316e+01 8.7420875027851996e-01 0 0 0
2020 1 3.6738154302375150e+01 7.6391815261521163e+00 2.3780677646875850e+00 0 0 1
383 1 1.2270434410682915e+01 2.4885576916701151e+01 3.3461414351609253e+00 0 0 0
2021 1 3.3203414046267412e+01 2.2104543136079602e+01 9.2418570820274282e-01 0 0 1
2795 1 4.3102795692382884e+01 6.6607140089810430e+00 3.4004417544286203e+00 0 1 0
701 1 4.8785280418501657e+01 7.5023486719099983e+00 1.3894783361154257e+00 0 0 0
1671 1 5.0220237084362154e+01 1.0144500591710264e+01 1.5258124868476568e+00 -1 0 1
732 1 4.3565256911408556e-01 2.1371250532314008e+00 8.6374239279007750e+00 1 0 0
2785 1 2.2204172789719538e+00 1.1163031447924672e+01 3.8354008985946129e+00 0 0 0
407 1 5.3277822866130720e+00 1.0922598893939528e+01 2.0984146516140028e+00 1 0 0
1678 1 7.7318156275692154e+00 9.5687027805905718e+00 4.6863123143239136e+00 0 0 1
2099 1 1.1036303232843373e+01 6.7056447547229734e+00 1.5705107651983163e+00 0 0 0
3079 1 1.5126200425051353e+01 2.4724636309287632e+01 4.5290174860194137e+00 0 0 1
2270 1 1.1726761596465783e+01 8.8726366742488008e+00 4.0515586683203804e+00 0 1 0
251 1 2.1370220920073994e+01 1.1866924263427657e+01 6.3303513956850588e-01 0 0 0
1519 1 2.3623548812316869e+01 1.3121563747588622e+01 9.3542880334033840e-01 0 0 1
2364 1 2.4276586764317894e+01 1.2109688256354829e+01 3.3918327673173962e+00 0 0 0
881 1 2.7454361704181732e+01 1.2136061373505813e+01 3.8416092251432188e+00 0 0 1
1393 1 3.1235180145052205e+01 1.1754406022442396e+01 2.8086396013717065e+00 0 0 1
334 1 3.3811885537991472e+01 1.0526444395058096e+01 2.4108159346718199e+00 0 0 0
2613 1 2.1491880635502465e+01 9.8474749666355486e+00 9.8056498396118688e+00 0 0 0
3713 1 3.7511030651915860e+01 1.0353867637777915e+01 2.8194389312042811e+00 0 1 1
3032 1 4.6127395174440039e+01 1.0261643830175766e+01 1.9226326148686981e+00 0 1 0
3738 1 4.3386026686290180e+01 1.2521237368309773e+01 4.6430586131026681e+00 -1 1 0
3694 1 2.0681606484485826e+01 2.5388029639282053e+01 4.1119343153985817e+00 1 0 1
3049 1 4.8214202509064847e+01 1.1923686794019952e+01 1.8465772969240455e+00 0 0 0
3895 1 2.2131586150077482e+00 1.3797215245824367e+01 1.4141795493327174e+00 1 0 1
1725 1 5.1299974905609727e+00 1.3735764056101406e+01 9.3108167202370129e-01 1 0 1
942 1 6.8021423935453189e+00 1.4710814903834525e+01 3.9956913906034845e+00 0 0 0
254 1 7.7467077327571348e+00 1.1731910830579778e+01 3.1325983426832309e+00 1 0 0
2950 1 1.9497221399467644e+01 2.5969072913693481e-01 9.6226494471410167e+00 0 1 0
4005 1 1.2615808331128830e+01 1.4167592347422653e+01 1.8614332691559090e+00 0 0 1
1953 1 1.7174925322599343e+01 1.3611383822538748e+01 2.6781903383698134e+00 0 0 1
1131 1 1.8911103449970543e+01 1.5958680643685025e+01 1.9418400096985311e+00 0 0 1
562 1 2.3266853005488869e+01 1.5823065757255469e+01 7.8726836116586429e-01 0 0 0
1591 1 2.8184457186530768e+01 1.4504929157494752e+01 3.7080434807524894e+00 -1 0 0
662 1 3.1817930632558188e+01 1.5555102545149412e+01 1.3065143643027730e+00 0 0 0
1809 1 3.0976115698130823e+01 1.4401625213159646e+01 3.8476590197746949e+00 0 0 1
4018 1 3.4658527474034514e+01 1.4819119520000831e+01 1.0479514982820937e+00 0 1 1
2309 1 3.5332964827912534e+01 1.4823921719382364e+01 3.7811157799095425e+00 -1 0 0
2536 1 3.7864465074508928e+01 1.4540471440292400e+01 4.1216551949869542e+00 0 1 0
1924 1 4.2116005874496054e+01 1.2108010216563464e+01 2.0956857168031231e+00 -1 0 1
110 1 4.1230509996565573e+01 1.4757800071330729e+01 2.4114305666971312e+00 0 0 0
3703 1 4.3796321968397706e+01 1.5491235248339384e+01 3.1394965631715799e+00 0 0 1
2435 1 4.5807290153445749e+01 1.4456400557668701e+01 4.9537619653666027e+00 -1 1 0
3382 1 4.2324684244886996e+01 1.6888573113302383e+00 7.2400675242910877e+00 0 1 1
708 1 2.9859886815467127e+00 1.8600488316696591e+01 4.8607676116226681e+00 1 0 0
1898 1 2.3456589805309175e+01 2.5638887311191674e+01 4.0851800212753355e+00 0 0 1
1431 1 5.7183606894616084e+00 1.6881056326807904e+01 4.1864576157078304e+00 0 0 1
447 1 2.9714403546628482e+01 1.1261016348502247e+01 4.3869130459838823e-01 0 0 0
848 1 1.0507089456272899e+01 1.7986499847021985e+01 3.3537527416245632e+00 0 0 1
2916 1 1.5280983619704939e+01 4.1717833599079102e-01 4.3163946171816363e+00 0 1 1
118 1 2.7468624255530450e+01 1.4606305516466515e+01 9.5608554302845505e-01 0 0 0
2350 1 1.7551109570128659e+01 1.8160539534251839e+01 2.8022304440691448e+00 0 1 0
839 1 2.4503212065861049e+01 2.1044181271923218e+01 2.8007357354824540e+00 1 0 0
2348 1 2.8993599390450317e+01 1.8856268317829304e+01 3.4109780880143137e+00 0 1 0
479 1 3.1508077223732030e+01 1.8383792483486094e+01 2.7330715037570710e+00 0 0 0
2446 1 3.9973875939740353e+01 1.4883554567082244e+00 5.0322567725972576e+00 0 1 0
1618 1 3.9305300257258736e+01 1.6603998331518326e+01 3.1684720823224963e+00 0 0 1
23 1 4.4149833703226605e+01 1.7881727381248307e+01 4.4562240769370547e+00 -1 0 1
1911 1 4.9644472389948248e+01 1.6907692001166051e+01 2.1202819081193374e+00 0 0 1
2426 1 3.8648087136301128e+00 2.1164924570087070e+01 1.5917490393775899e+00 0 0 0
2882 1 9.4869707704464652e+00 2.2334377870576002e+01 1.0643076643277090e+00 0 0 0
32 1 1.0035188376241097e+01 1.6892320503317805e+01 7.9659831366766942e-01 0 1 0
1033 1 3.3079035314236876e+01 1.9437801372058100e+01 1.0173346876616682e+01 0 0 0
4007 1 1.2624750209478387e+01 2.0040862160244096e+01 2.7343559102830994e+00 0 0 1
2171 1 1.0033645272251094e+01 3.9539094303905147e+00 1.0205972124944942e+01 0 1 0
297 1 2.4249652528955849e+01 2.2528622118830611e+01 3.8140967765262246e-01 1 0 0
2728 1 3.3381486937045395e+01 1.9930088707376121e+00 3.5820532880465059e+00 0 1 0
277 1 2.8578881478733653e+01 2.1799681769873043e+01 1.5421488210151912e+00 0 0 0
2853 1 3.1172035258720868e+01 2.1611508732013913e+01 3.2056412427189871e+00 0 0 0
526 1 3.5586739446985646e+01 2.4167519505583613e+01 4.2314904961356916e+00 0 0 0
1950 1 3.5398468501810044e+01 2.0858376764238336e+01 2.7452274960353154e+00 0 0 1
2631 1 4.0951789988667088e+01 1.9995608644162100e+01 7.4353236676641299e-01 0 1 0
3356 1 6.8649110867879219e+00 1.1174666609796802e+00 3.4756557868290159e+00 0 1 0
1124 1 4.9577438602167405e+01 1.4184812476108082e+00 1.0392507660858817e+01 -1 1 0
2235 1 4.4299969478050372e+01 2.1895113371940671e+01 1.6275703594860764e+00 0 0 0
337 1 1.3243120579153608e+01 1.1583213130052201e+01 1.6505055176028165e+00 0 0 0
3674 1 4.8628821921776691e+01 1.8842519423915753e+01 3.6553438265420923e+00 0 1 1
4004 1 1.1685413879774448e+01 1.4743319859171564e+00 1.2957326420174458e+00 0 1 1
2377 1 1.0222874934512355e+01 1.3977500294272717e+01 6.9926849637188582e-01 0 0 0
1289 1 1.1481082668226941e+01 2.2515053216930678e+01 2.5766776715755921e+00 0 0 1
1135 1 1.4537093381125201e+01 2.5148594193885135e+01 6.9727400322855715e-01 0 0 1
2412 1 1.7630317197794948e+01 2.4109565859130434e+01 7.9288086138880889e+00 0 0 0
3857 1 3.9341581320872351e+01 2.4968489446032837e+01 4.8651745805814643e+00 0 0 1
3672 1 7.9413616969409109e+00 1.9715007465775606e+01 4.6426672919053902e-01 1 0 1
2307 1 4.0298974444468669e+01 5.2653066451434716e-01 6.7431712483761541e-01 -1 1 0
126 1 2.5018715883012678e+01 2.5018839918259019e+01 1.6519241431391951e+00 0 0 0
1577 1 1.3388427476904955e+01 1.0299120272755246e+01 9.0547202577115211e+00 1 0 0
3557 1 1.3416144558654842e+01 5.3757461300212883e+00 1.4768934342176507e+00 0 0 1
1190 1 1.6357440719950620e+01 4.1676851062173403e+00 6.2914494104098040e-01 0 0 1
138 1 3.5935957304572710e+01 2.4210958883676181e+01 1.4618140442512266e+00 0 0 1
1945 1 4.4209385718162466e+01 1.1289301540811689e+01 7.6474620845007080e-01 0 0 1
2490 1 4.7715271407957204e+01 2.3726752203499977e+01 2.0115557843342895e+00 0 0 0
668 1 5.0149289907781750e+01 2.1643635328345283e+01 2.6775107815218600e+00 0 0 0
3850 1 5.0511637312302028e+01 1.0118771543864662e+00 6.0799095975210937e+00 -1 1 1
2327 1 8.0903107981174616e-01 1.6242733377182703e+00 3.6788173628849203e+00 0 1 0
935 1 2.8307921890165382e+00 2.0188295396331091e+00 5.5549429542407367e+00 1 0 0
2130 1 7.8938162025870806e+00 1.3122149553833091e+00 6.8670647096047537e+00 0 1 0
3990 1 1.2440774386823339e+01 2.5526206817404166e+01 7.9423663577962955e+00 0 0 1
1846 1 4.5679106449689627e+01 8.3487741242302764e+00 9.8675769241849682e+00 0 0 1
2876 1 1.7453709945737259e+01 4.1844670372445220e-01 6.1824677898297677e+00 0 1 0
1197 1 1.8788020282490610e+01 3.1648774902886485e+00 5.4348424040523744e+00 0 0 1
1874 1 2.1691727451512378e+01 1.9449006329185259e+00 5.6336450814512418e+00 0 0 1
3309 1 2.5171535180058946e+01 3.8041678551287093e+00 3.6632560592945627e+00 0 1 1
2234 1 3.0224806933724281e+01 1.9332957345654957e+00 6.1675937135548784e+00 0 1 0
1483 1 3.2768470101567402e+01 2.9584931274311428e+00 6.0363502898664416e+00 0 1 1
2179 1 3.7000684744613096e+01 4.9116516923309277e+00 6.1424986963146138e+00 0 1 0
2158 1 3.7314310111600690e+01 2.4249993944299120e+00 4.7568447944908119e+00 -1 1 0
2137 1 3.9353409067588728e+01 1.5974871313008561e+00 8.1283968556996165e+00 0 1 0
2549 1 4.4011915051501198e+00 2.5307488876656844e+01 3.5303794348005141e-01 1 0 0
83 1 4.1366882748132582e+01 3.9759822245722058e+00 5.6294422557841912e+00 0 0 0
1899 1 4.1387996015641008e+01 5.1597366572629708e+00 8.8378375753624123e+00 0 0 0
3112 1 1.5900696367698368e+01 2.3300334386266918e+01 9.8491361261967434e+00 0 0 0
2774 1 5.0261011885373250e+01 5.5286732760953603e+00 4.4005363528826269e+00 -1 1 1
1982 1 6.2661728565771169e+00 4.4445087350390349e+00 4.8640721587402664e+00 0 0 1
1851 1 1.0162768515362703e+01 1.8001008384139388e+00 5.1502154944804435e+00 0 1 1
1893 1 9.7980371258189649e+00 5.2903262913017794e+00 6.1041518287689822e+00 0 0 1
387 1 1.3226914335525086e+01 3.3591871291164468e+00 7.8566339286027258e+00 0 0 0
2016 1 1.8992277235872582e+01 5.1016135776332323e+00 7.4953066245980864e+00 0 0 1
828 1 2.2343105570750783e+01 4.4532625799771610e+00 5.8224578063888597e+00 0 0 0
1928 1 2.5160832476661472e+01 7.9344678867788963e+00 3.9827961925101669e+00 0 0 1
1723 1 2.8102962627195119e+01 4.0778994690960744e+00 5.3062940418880356e+00 0 0 0
1264 1 3.0162074530484567e+01 5.2112446348817327e+00 3.6448398100453718e+00 0 0 1
2405 1 3.9410320528337152e+01 6.1953158626892302e+00 5.4725212068832567e+00 0 1 0
4078 1 4.4028061704937869e+01 4.3954872053526808e+00 4.8547730176906780e+00 0 1 1
307 1 4.5786576318923110e+01 5.2715975082740218e+00 7.2481110013863690e+00 0 0 0
1988 1 4.3782952220733250e+01 3.9015759649714186e+00 8.3694559729377485e+00 0 0 1
2459 1 4.7809178830914561e+01 2.6459721954579773e+00 3.5059132001115905e+00 0 1 0
1979 1 1.3806011748689642e+00 7.1725425580182236e+00 4.9886551127869145e+00 1 0 0
73 1 3.1061820016903798e+00 7.0593778369811551e+00 3.1126722792230104e+00 0 0 0
35 1 3.3711460797459725e+00 5.0533139120064208e+00 6.2007785576009971e+00 0 1 0
3649 1 5.1213369476022752e+00 7.4958997269359822e+00 6.3481589812374031e+00 0 1 1
1910 1 8.8452531705546420e+00 5.9943002981265456e+00 3.5387240771788355e+00 0 0 1
1711 1 1.0175806219877412e+01 8.2100595901089424e+00 5.9160093019941256e+00 1 0 1
3922 1 1.3932948438813069e+01 7.2021815089212966e+00 7.4547308754724693e+00 0 1 1
614 1 1.3712077285438546e+01 6.4977708748644982e+00 5.0020894507225968e+00 0 0 0
1592 1 1.7698703382975367e+01 6.8534789694020652e+00 5.7921154134177506e+00 0 0 1
3924 1 2.0884272923340685e+01 9.3347506771187696e+00 6.2119309184481448e+00 0 1 1
2162 1 2.4922215304582785e+01 5.7433612870551016e+00 5.9983794258163909e+00 0 1 0
3948 1 2.6990203421034280e+01 8.9835929331041982e+00 5.8786698314343147e+00 0 1 1
1049 1 2.7071934227459209e+01 5.5848049767555947e+00 7.5606996367534753e+00 0 0 1
2236 1 2.9500726342308713e+01 7.9059734588148061e+00 2.9794113754695140e+00 0 0 0
2468 1 3.4642450127694829e+01 8.6211454777425800e+00 8.0977402165585044e-01 0 1 0
1528 1 3.2381830097970536e+01 8.0876894494526255e+00 3.3543401702938525e+00 0 0 1
129 1 4.1198158690642970e+01 8.5117926438685849e+00 1.3404131801928352e+00 0 1 0
3097 1 3.6238932048447140e+01 7.1599954451011829e+00 4.9404663540551548e+00 0 0 0
2946 1 4.0353005232567938e+01 1.0267323066486437e+01 3.9089299557264261e+00 -1 1 1
424 1 4.1961958605322693e+01 8.5287769319951146e+00 5.0129580615605560e+00 0 0 0
1936 1 4.5684835613973362e+01 8.3697987734791273e+00 3.7805697202192188e+00 0 0 1
3142 1 4.6500159491386910e+01 8.2174510603468267e+00 7.2893692237168173e+00 0 1 0
916 1 4.8310299003373515e+01 7.4975812790117331e+00 4.1460374658330110e+00 0 0 1
335 1 4.8842492224486804e+01 9.0979229462496622e+00 6.4489284988672395e+00 -1 0 0
1827 1 5.1121385892932025e+01 9.5201132571552272e+00 4.3963112042824148e+00 -1 0 1
2790 1 1.2717285523540229e+00 1.2750570351186257e+01 7.1384332604898733e+00 0 0 0
1798 1 3.8908160418964872e+00 1.0190364705363004e+01 6.1158309910447555e+00 0 0 1
782 1 8.7056571733012458e+00 1.0351265838100897e+01 7.7969316828819153e+00 1 0 0
1847 1 1.0208884098767410e+01 1.2344836484553925e+01 6.6254268987685130e+00 1 0 1
970 1 1.2565546192262609e+01 1.1751889481670432e+01 5.0348335417318850e+00 0 0 0
75 1 1.2863260780820685e+01 1.4232736910012484e+01 4.3210723122599646e+00 0 0 0
2763 1 1.8160953463689740e+01 1.0376661757799917e+01 6.4480667245920280e+00 1 1 0
645 1 1.7888518328010626e+01 1.0615547902148222e+01 3.7052600120485533e+00 0 0 0
1611 1 2.0282303317222741e+01 1.2031120653999118e+01 3.1825832603952904e+00 0 0 1
823 1 2.1918754497909184e+01 1.1594318953566349e+01 5.5370308748885133e+00 1 0 0
1737 1 2.6329630134010728e+01 1.1595910102518781e+01 6.4804950108353889e+00 0 0 1
3064 1 2.9523346283904662e+01 1.0581995243289558e+01 4.8476543027548784e+00 0 1 1
1814 1 3.5546878327325089e+01 1.1620909148163234e+01 4.4298880121322179e+00 0 0 1
180 1 3.5454664241318866e+01 1.1057921525118244e+01 6.9650088805241541e+00 0 0 0
2229 1 4.0038443361321612e+01 1.1455507153669679e+01 6.3704367013503349e+00 1 1 0
439 1 4.4241501915929263e+01 1.0016762546295476e+01 5.6964870989634209e+00 -1 0 0
1819 1 4.6009590107418774e+01 1.1584347788088561e+01 7.8813814812101590e+00 0 0 1
2462 1 4.8293707531457983e+01 1.1645523333828567e+01 6.5768626230402951e+00 -1 1 0
767 1 1.5089838272642897e+00 1.3914524831823538e+01 4.2235450862703470e+00 1 0 0
2550 1 5.5232934253809223e+00 1.2181054015545042e+01 5.5761610309874943e+00 0 1 0
3974 1 3.6660550575605759e+00 1.4464987092705512e+01 5.7419944762831365e+00 0 1 1
4077 1 8.9987984146773616e+00 1.4486148779400413e+01 5.7519279790386824e+00 0 1 1
2513 1 1.0978180816760688e+01 1.5824959079793766e+01 5.1466232339394926e+00 1 0 0
459 1 1.5492667390751722e+01 1.4481177824864581e+01 4.6319664173023565e+00 0 0 0
256 1 2.1408267703413500e+01 1.5071621261997031e+01 2.9354794469301781e+00 0 0 0
405 1 2.4887634497187644e+01 1.3818130341906501e+01 5.8947875888456656e+00 0 0 0
441 1 2.7727045378396738e+01 1.6701061478079293e+01 5.2721638965477569e+00 0 0 0
2323 1 3.2025064333271999e+01 1.5463414108532492e+01 6.0353020707557672e+00 0 1 0
629 1 3.4529943123768021e+01 1.6655218824526205e+01 5.5082472622555771e+00 0 0 0
2153 1 4.2639496080895427e+01 1.4066743017106102e+01 8.1241090497220245e+00 0 1 0
3169 1 4.1113988364470231e+01 1.4465116741014459e+01 5.7986861190001155e+00 0 1 0
2541 1 3.6216356196256712e+01 1.1029805626003852e+00 7.1707583132101060e+00 0 1 0
3539 1 4.5009019750750653e+01 1.3868741776928948e+01 7.4831909014287525e+00 0 1 1
1917 1 4.8258351900123102e+01 1.3275517474673082e+01 4.0544111763662336e+00 0 0 1
1972 1 5.0000401626074790e+01 1.5249587728727965e+01 3.9915209089063985e+00 0 0 1
224 1 3.0933787443426466e+00 1.6798565602186088e+01 6.9799992405124751e+00 0 0 0
1865 1 3.4863500471919284e+00 1.6604529953166640e+01 2.7529243176348177e+00 0 0 1
2711 1 6.9823819957757909e+00 1.9867021632900038e+01 6.1958261672457517e+00 0 0 0
2557 1 7.3910167284379664e+00 1.8915762031768995e+01 3.1005673251193859e+00 0 0 0
3823 1 1.6761152035826616e+01 1.6851647554513992e+01 5.0902717215210176e+00 1 0 1
45 1 1.4657188655203456e+01 1.8393966547491498e+01 5.6218567101213504e+00 0 0 0
1720 1 1.8551128566628570e+01 1.6539886781448786e+01 7.3108113060781807e+00 0 0 1
525 1 2.1488032073971723e+01 1.7941762237401793e+01 3.6567409539971907e+00 0 0 0
2498 1 2.0531424151088096e+01 2.0204428632918376e+01 2.1374272665633978e+00 0 0 0
513 1 2.4299688822247621e+01 1.8141259180915171e+01 3.3467665490253999e+00 0 0 0
932 1 3.3643889549314878e+01 1.8768834340688134e+01 4.3046809780027928e+00 0 0 1
3076 1 3.2792254628653652e+01 2.0873507262762633e+01 6.1589575481267449e+00 0 1 0
591 1 4.2136759345807917e+01 1.7230845167694614e+01 5.9608915749107929e+00 0 0 0
1744 1 4.2279416250197059e+01 1.9791727025146269e+01 3.4607443389799091e+00 0 0 0
576 1 4.2641117762255575e+01 1.8509998073090880e+01 8.3769544927336259e+00 0 0 0
1598 1 4.6437350510710502e+01 1.8708067419988421e+01 5.5704074477816414e+00 0 0 1
395 1 4.6801941698899725e+01 1.6435094071817602e+01 7.2417752332250753e+00 0 0 0
228 1 5.1058871958834629e+01 1.7437447473675988e+01 7.1484325394280610e+00 -1 0 0
1803 1 4.9377661841165903e+01 1.5539580426063386e+01 6.7850562229727878e+00 -1 0 1
693 1 5.0664562814779757e+01 1.9554974321376051e+01 5.4483873385205994e+00 -1 0 0
2694 1 3.9469762065306173e+00 2.1224911853690781e+01 5.4687805328836276e+00 0 0 0
1253 1 5.7858214466283648e+00 2.1473149053849010e+01 3.5045504172597925e+00 0 0 1
2027 1 9.7320824039135498e+00 1.9604778335298064e+01 5.4745198346229005e+00 0 0 1
2596 1 1.3816333957870599e+01 2.0949251406051161e+01 4.9257951667708468e+00 1 0 0
2832 1 1.7846092477931752e+01 2.1544992350132858e+01 6.6880126233001738e+00 0 0 0
435 1 1.7823571571997963e+01 2.1382633834541085e+01 3.1146444578486521e+00 0 0 1
3332 1 2.2462585768201272e+01 2.2653422738897195e+01 7.2649723978154812e+00 0 1 1
1329 1 2.5962178522190026e+01 2.1879707707718989e+01 5.0757709572458882e+00 0 0 1
421 1 2.5416959782167019e+01 1.9842261489334533e+01 6.5151054391178880e+00 0 0 0
1853 1 2.8705566920422406e+01 2.1966237951026294e+01 4.9790971921832332e+00 -1 0 1
1781 1 3.8176182348645781e+01 2.0899304267467794e+01 3.9230847485575788e+00 -1 0 1
2084 1 3.2837458540895426e+01 2.3366109295776514e+01 4.6495794619319391e+00 0 0 0
1724 1 3.9463158320579893e+01 2.1819856422845632e+01 1.7684206928787429e+00 0 0 0
1726 1 3.9930245534315318e+01 1.8867806259239430e+01 4.7812897060244710e+00 -1 0 1
3367 1 4.2825008789339265e+01 2.2096654213328367e+01 5.0419406712416421e+00 0 1 1
50 1 4.0667513158900334e+01 2.1960549568465638e+01 7.4257951636495250e+00 0 0 0
1238 1 4.5510863539050405e+01 2.1243801720000896e+01 5.8763415975708666e+00 0 0 1
2837 1 5.0839456495613405e+01 2.1984662475691547e+01 6.2227183357541866e+00 -1 0 0
489 1 1.7033316048515732e+00 2.3691256695099092e+01 4.2928310531839546e+00 0 0 0
956 1 4.0822202732631050e+00 2.4699806240940799e+01 5.0626585057216689e+00 1 0 0
3281 1 6.7378458330752338e+00 2.3921889310113027e+01 4.7153733381334391e+00 1 0 1
1750 1 8.8589286054840937e+00 2.3762948874272109e+01 6.2556375279208947e+00 0 0 1
3050 1 1.0480000939303970e+01 2.2134374551044292e+01 5.1453032705518167e+00 1 0 0
1140 1 2.7962266229577690e+01 2.1882828898900311e+01 9.5390562706326243e+00 0 0 0
3656 1 1.2619538550354887e+01 2.2861143010242927e+01 6.6927854660341550e+00 1 1 0
457 1 3.5772829861454994e+01 5.0442646965917293e-01 3.3065579119050712e+00 0 0 0
919 1 1.5935039300535363e+01 2.2338817623062738e+01 4.8967680751974410e+00 1 0 0
468 1 1.8963854885233030e+01 2.3943886395297589e+01 2.7237879408569863e+00 0 0 0
2803 1 4.2708838656460159e+01 2.4540780000255921e+01 9.7343834160747438e+00 0 0 0
563 1 2.4700301257061575e+01 2.3771131273223325e+01 6.1182302231836054e+00 0 0 0
4017 1 2.1908059400485410e+01 2.2247566810287836e+01 3.4398837249751915e+00 0 0 1
2805 1 3.1692785743480087e+01 2.4937292809094966e+01 7.0812525052263871e+00 0 0 0
1712 1 3.7100764390099755e+01 2.2514988238077233e+01 5.9152697554571096e+00 0 0 1
3862 1 4.0843731576697124e+01 2.3474408858631573e+01 3.5446782233655472e+00 -1 0 0
408 1 4.4811073679531063e+01 2.3879984663381137e+01 3.7480386321794494e+00 0 0 0
1732 1 4.8783971200151882e+01 2.5031097844112413e+01 5.8032188040654429e+00 -1 0 1
566 1 5.0381681445163522e+01 2.4789983208050931e+01 3.5029083739507247e+00 0 0 0
2850 1 1.3567526317378954e+01 2.1306569705819900e+01 9.1960848995251911e+00 1 1 0
3646 1 3.1450406986769197e+00 3.4830003707706068e+00 8.5557857624191662e+00 0 1 1
2815 1 2.3757909818531417e+01 1.5752482636762402e+00 3.4114609755545994e-01 0 1 1
329 1 4.1901124688390851e+01 4.6906019343637180e+00 1.5251232923797575e+00 -1 0 0
1633 1 1.1442735144165191e+01 1.9174325579801792e+00 9.4554247613118605e+00 0 0 0
3136 1 1.5982427236598891e+01 1.7509901489880426e+00 8.3101488069640634e+00 0 1 0
2269 1 2.1689411623765956e+01 1.2295109196344247e+00 8.3634629341400348e+00 0 1 0
621 1 2.6964089102759086e+01 1.7290044219545933e+00 9.7780857759174395e+00 0 0 0
269 1 2.9401520004056731e+01 1.2050017465260128e+00 8.9807292231934852e+00 0 0 0
3258 1 2.3618941735807382e+00 2.3509829934414373e+01 1.5800285494759199e+00 0 0 1
1068 1 3.2634657418541082e+01 1.3919415178224977e+01 8.4341848632679710e+00 0 0 0
3110 1 1.6650805042792062e+01 2.1621881924794923e+01 4.7747373205094878e-01 0 0 1
1863 1 3.1757957802285006e+01 7.2040081660627493e+00 1.0139381266812293e+01 0 0 1
3688 1 3.3607915554669262e+01 8.3221514279240927e-01 7.9772097781047382e+00 0 1 1
3193 1 4.2802558502894442e+01 1.0239608621261065e+00 1.0261213111314413e+01 -1 1 0
225 1 3.7024483784295313e+01 1.9738927280618775e+01 8.1133725568156778e-01 -1 0 0
1623 1 4.7786817298635356e+01 3.1049634109722142e+00 6.3897927121314240e+00 0 0 0
2799 1 7.8601680063464947e+00 2.3413471088354399e+01 8.6924107067509748e+00 1 0 0
1523 1 2.1918199056366504e+01 3.7188944504708545e+00 9.7984559476425179e+00 0 0 0
1683 1 3.9065446927457430e+01 2.4054974093903130e+01 7.4680670385937642e+00 -1 0 1
150 1 2.0224497702908115e+00 6.0411941022715521e+00 9.3233836660385361e+00 1 0 0
1237 1 6.1666702627166154e+00 3.2694534154874813e+00 7.4700265351713329e+00 0 0 0
1640 1 8.3576621287149582e+00 5.1764647717029755e+00 8.1533937352652046e+00 1 0 1
654 1 3.9149484014737936e+01 1.5607867845091146e+01 9.6263765550698555e+00 -1 0 0
333 1 1.4282405568556921e+01 5.3348105488704984e+00 9.2809940472346337e+00 0 0 0
3779 1 2.6312977189858447e+01 1.7083372956837675e+01 9.1639137971368019e+00 0 1 1
2439 1 1.7293537610725259e+01 4.1028455129426984e+00 9.6108431470612778e+00 0 1 0
3233 1 2.1448154164852060e+01 5.6373099267998334e+00 8.1349439993519503e+00 0 1 0
2394 1 3.4927744273222686e+01 2.1429207921993754e+01 7.3496740421936071e+00 0 0 0
2310 1 2.6729793959791007e+01 4.2143493306298083e+00 9.8187613565227974e+00 0 1 0
3439 1 3.2580120726033783e+01 5.8258141545038082e+00 6.5955616388654477e+00 0 1 0
1884 1 3.5122174302561689e+01 3.8504757114476518e+00 8.1150556051871394e+00 0 0 1
720 1 3.8672526544471939e+00 2.4504600726927656e+01 7.5310467488680626e+00 0 0 0
2580 1 3.8856327887097265e+01 4.2547099845732097e+00 8.3910811915513435e+00 1 1 0
183 1 4.1398709320101361e+01 7.6354679284632985e+00 7.7653044030035696e+00 0 0 0
470 1 1.3628841188844071e+01 2.2428560390833155e+01 7.4112144064433461e-01 1 0 0
3452 1 3.1958203717098968e+01 2.3508385113589615e+01 9.1585605525481188e+00 -1 0 0
3069 1 4.6880201323912814e+01 5.4329814660026692e+00 9.7857507878251990e+00 -1 1 0
322 1 5.0012693118954573e+01 4.5729053854765684e+00 7.0294131389352286e+00 0 0 1
1057 1 4.9003798685634180e+01 6.1809105359190459e+00 9.0358337385717551e+00 -1 0 0
1967 1 1.5236965949311025e+00 8.2233801106523785e+00 7.8256190756345818e+00 1 0 1
428 1 7.1592486680831184e+00 7.7148850053598625e+00 7.7557925104527365e+00 1 1 0
1582 1 4.7267971634770348e+01 2.5575978253759807e+01 1.0185379740190415e+01 0 0 0
2295 1 2.7642640429683066e+01 2.4581062268618322e+01 1.4192411064077379e+00 0 0 0
793 1 1.6083059390036318e+01 8.6846147313692494e+00 7.2975607952904680e+00 0 0 0
845 1 2.2540582747248187e+01 8.0045075762420197e+00 7.8587353900623915e+00 0 0 1
375 1 2.4657324264886025e+01 2.5087022153795299e+01 8.6317830698879501e+00 0 0 0
2875 1 2.5133992133486664e+01 8.2174196755408353e+00 8.1320046575000298e+00 0 1 0
3944 1 3.5191773559624707e+01 1.3712871078522431e+01 9.0157685626630268e+00 0 1 1
2873 1 3.1606553080489928e+01 8.6020102753624599e+00 5.9522460274135414e+00 0 1 0
427 1 3.3899460406753505e+01 6.2883815828807199e+00 8.7379244178229865e+00 0 0 0
107 1 3.6647763911344157e+01 8.6185233350370876e+00 7.4271287586739350e+00 0 0 0
3981 1 3.9339473213131853e+01 9.3814144814775116e+00 8.2018649808902175e+00 0 1 1
1363 1 4.2973880023138733e+01 8.8904131913831232e+00 9.9649852886166386e+00 -1 0 0
712 1 1.8090283513312212e+01 1.2350254350660496e+01 1.0119231921175151e+01 1 0 0
430 1 5.0099646459766092e+01 8.6494475099098089e+00 8.9537001662015747e+00 0 0 0
1566 1 2.3726355819502305e+00 1.0545412698630743e+01 8.5596449348811205e+00 0 0 1
2335 1 6.7132019063006361e+00 1.2119544647811125e+01 8.2515427211257357e+00 0 1 0
1107 1 1.1696547543429975e+01 7.8129390669274805e+00 8.4257649739932354e+00 0 0 0
3883 1 1.4597564520536963e+01 1.1273747905534709e+01 6.4774580512333673e+00 1 0 1
1160 1 1.5904872739746038e+01 1.3433775365133359e+01 7.1719675719041946e+00 0 0 0
795 1 1.8567524264297273e+01 1.2990702105695373e+01 7.3416801588538716e+00 0 0 0
2679 1 2.5185591714130563e+01 1.1007654955289111e+01 9.2129961403765002e+00 0 0 0
3655 1 3.9600265229580202e+01 6.3558914739690158e+00 2.8075025451972313e+00 0 1 1
3979 1 5.0223255945859890e+01 2.3372756880039141e+01 1.0225301150701908e+01 0 0 1
1042 1 1.6517737359922653e+00 1.9931380168805862e+01 2.5660732096916576e+00 0 0 1