
# Set production fixes - Nose/Hoover
#
fix                 4 water temp/csvr ${START_TEMP} ${END_TEMP} 500.0 928347
fix                 4 water temp/csvr 240 ${END_TEMP} 500.0 928347
fix                 4 water temp/csvr 240 227 500.0 928347


## divide "droplet" into core and surface
#region		core_reg cylinder z 135 135 44.6 20 INF units box
#region		surface_reg cylinder z 135 135 44.6 20 INF units box side out
#group		core dynamic all region core_reg
#group		surface dynamic all region surface_reg

## compute pressure core
#compute        peratom_core core stress/atom NULL
#compute        p_core core reduce sum c_peratom_core[1] c_peratom_core[2] c_peratom_core[3]
#variable       press_core equal -(c_p_core[1]+c_p_core[2]+c_p_core[3])/(3*1249982.5)


## compute pressure surface
#compute        peratom_surf surface stress/atom NULL
#compute        p_surf surface reduce sum c_peratom_surf[1] c_peratom_surf[2] #c_peratom_surf[3]
#variable       press_surf equal -(c_p_surf[1]+c_p_surf[2]+c_p_surf[3])/(3*42395)

## compute total pressure of drop
compute        peratom water stress/atom NULL
compute        p water reduce sum c_peratom[1] c_peratom[2] c_peratom[3]
variable       press equal -(c_p[1]+c_p[2]+c_p[3])/(3*58301)


# compute order parameter
compute        3 all orientorder/atom nnn NULL cutoff 3.5

# compute center of mass of bridge
compute 	4 water com

# Run simulation
thermo_style        custom step c_2 press vol etotal ke pe v_press c_1[4] c_4[*]
thermo              200
dump		     1 water custom 400 ${DIR}/prod.${NAME}.dump id type x y z vx vy vz c_3[*] c_peratom[*]
dump		     1 water custom 400 run_21/prod.${NAME}.dump id type x y z vx vy vz c_3[*] c_peratom[*]
dump		     1 water custom 400 run_21/prod.ibeam_cooling_21.dump id type x y z vx vy vz c_3[*] c_peratom[*]
run                 ${STEPS}
run                 5200000
Neighbor list info ...
  update every 1 steps, delay 0 steps, check yes
  max neighbors/atom: 2000, page size: 100000
  master list distance cutoff = 6.67472
  ghost atom cutoff = 6.67472
  binsize = 3.33736, bins = 48 11 12
  2 neighbor lists, perpetual/occasional/extra = 1 1 0
  (1) pair sw, perpetual
      attributes: full, newton on
      pair build: full/bin/atomonly
      stencil: full/bin/3d
      bin: standard
  (2) compute orientorder/atom, occasional, copy from (1)
      attributes: full, newton on
      pair build: copy
      stencil: none
      bin: none
Per MPI rank memory allocation (min/avg/max) = 0.8541 | 6.005 | 7.262 Mbytes
Step c_2 Press Volume TotEng KinEng PotEng v_press c_1[4] c_4[1] c_4[2] c_4[3] 
       0    247.61611   -274.71997    229018.04   -21143.488    1640.0506   -22783.538   -570.61465    30.641153    78.596026    15.898298    29.730918 
     200    239.84367   -314.33125    229018.04   -21196.293    1588.5709   -22784.864   -733.56681    31.241851    78.597334    15.899234    29.737668 
     400    231.27846   -450.72213    229018.04   -21207.514    1531.8405   -22739.355   -1262.9583    32.580361    78.598984    15.900873    29.740004 
     600     230.0144   -257.62993    229018.04   -21301.564    1523.4682   -22825.032   -498.11623    33.431061    78.600014    15.903404    29.761852 
     800    231.21852   -339.02342    229018.04   -21282.914    1531.4435   -22814.357   -864.96852    34.700375    78.598793    15.905663    29.759917 
    1000      239.483     -215.525    229018.04   -21112.766    1586.1821   -22698.948   -371.99417     35.75103    78.596418    15.907965    29.740254 
    1200    238.51401   -417.08386    229018.04    -21205.78    1579.7641   -22785.544   -1133.2906    37.143667    78.597348    15.911576    29.739931 
    1400    246.39945   -265.83723    229018.04   -21038.955    1631.9922   -22670.947   -538.81821    38.575724    78.598185    15.912423    29.735587 
    1600    246.17054   -488.77755    229018.04   -21047.165    1630.4761   -22677.641   -1420.0691    39.717231    78.598417    15.912208    29.720126 
    1800    239.03485   -329.63104    229018.04    -21108.74    1583.2138   -22691.954   -789.82729    40.584715     78.59803    15.910249    29.725197 
    2000    242.62163   -278.56453    229018.04   -20991.227    1606.9704   -22598.197   -579.31887    42.152265    78.598496    15.911804    29.737367 
    2200    242.66293   -230.16092    229018.04   -21034.741    1607.2439   -22641.985   -414.20764    42.668383    78.598811    15.912713    29.736627 
    2400    240.75703   -411.89195    229018.04   -21075.779    1594.6204     -22670.4   -1141.8204    44.091928    78.597874    15.911787    29.725852 
    2600    233.12703   -288.29689    229018.04   -21109.366    1544.0842    -22653.45   -660.19909    45.187789    78.595133    15.911461    29.717922 
    2800    244.27194   -396.84783    229018.04   -21101.671     1617.901   -22719.572   -1065.3644    46.511886    78.594309    15.911009    29.745389 
    3000    240.24286   -178.09942    229018.04   -21189.306    1591.2149   -22780.521   -234.85929    47.668098    78.594017    15.907759     29.72727 
    3200    240.95465    -408.8869    229018.04   -21192.927    1595.9294   -22788.857   -1095.9434    49.345712    78.594311    15.906659    29.710922 
    3400    236.88565   -361.44328    229018.04   -21132.384    1568.9789   -22701.363   -882.47536    50.756197    78.592967    15.905566    29.724275 
    3600    240.96524   -258.67551    229018.04   -21109.566    1595.9995   -22705.565   -524.50539    52.787352    78.592171     15.90621    29.716787 
    3800    243.33617    -472.2971    229018.04   -21163.722     1611.703   -22775.425   -1358.3723    54.293087    78.591518    15.907364    29.714329 
    4000    238.40137   -276.24811    229018.04   -21161.014    1579.0181   -22740.032   -620.49186    55.819785    78.590397     15.90854    29.720243 
    4200    237.55951   -202.24998    229018.04   -21093.729    1573.4422   -22667.172    -322.1575    57.444421    78.591839    15.907001    29.714143 
    4400    246.15931   -189.82082    229018.04   -21041.428    1630.4017    -22671.83   -263.01305    58.894783    78.591565     15.90577     29.70539 
    4600     244.2256   -366.18704    229018.04   -21134.158    1617.5941   -22751.752   -944.81882    60.790274    78.592381    15.907354    29.708193 
    4800    238.12682   -425.44762    229018.04   -21126.905    1577.1996   -22704.105   -1177.1857    63.115819    78.592076     15.90658    29.707116 
    5000    238.52026   -338.73038    229018.04   -21143.075    1579.8055   -22722.881   -802.00993    65.235023    78.590345    15.907881    29.737008 
    5200    236.61528    -227.9008    229018.04   -21131.429    1567.1882   -22698.617   -430.54051    66.922714    78.591202    15.911762    29.727121 
    5400    245.96514   -391.71198    229018.04   -21137.077    1629.1157   -22766.193   -1046.9038    68.973974     78.58852    15.913655    29.729295 
    5600    233.29206   -406.05644    229018.04   -21208.566    1545.1773   -22753.743   -1109.9648     70.17175    78.588678    15.915682    29.729118 
    5800    243.00091   -193.65283    229018.04   -21007.913    1609.4825   -22617.396   -273.04517     71.07947    78.588614     15.91641    29.722873 
    6000    229.80718    -391.6332    229018.04   -21150.718    1522.0957   -22672.814   -1054.1055    72.985582    78.588696    15.916157    29.715831 
    6200    241.45002   -290.94751    229018.04   -21078.338    1599.2104   -22677.548   -636.15433    73.929439    78.588984    15.915743    29.690492 
    6400    243.58717    -343.2958    229018.04   -21037.086    1613.3655   -22650.451   -826.30488     75.45646    78.591252    15.915429     29.70441 
    6600     236.5321   -315.51417    229018.04   -21119.815    1566.6372   -22686.452   -748.59713    76.935946    78.592154     15.91792    29.683577 
    6800     241.9117   -173.08601    229018.04   -21105.733    1602.2683   -22708.002   -194.38846    77.601445    78.591388    15.917214    29.686003 
    7000    227.41905   -269.73592    229018.04   -21185.132    1506.2782    -22691.41   -585.56108    79.584581    78.591548    15.917261    29.688687 
    7200    237.64135   -289.88734    229018.04   -21037.054    1573.9842   -22611.038   -681.92604     79.69599    78.592869    15.917137    29.685513 
    7400    240.00055   -356.57654    229018.04   -21140.907      1589.61   -22730.517   -887.95533    80.308035     78.59132    15.917531    29.675423 
    7600    236.55566   -292.05515    229018.04   -21204.925    1566.7933   -22771.718   -655.17306    80.929567    78.590965    15.916899     29.66318 
    7800    240.43823   -269.53362    229018.04   -21108.814    1592.5089   -22701.323   -555.71032    81.706744    78.590795    15.916255    29.650974 
    8000    245.95724   -400.17228    229018.04   -21096.907    1629.0633   -22725.971   -1035.1624    82.235452    78.592086    15.915744     29.67021 
    8200    234.96977   -282.18088    229018.04   -21193.809    1556.2893   -22750.098   -637.16978    83.074796    78.592083    15.917326    29.661843 
    8400     236.0217   -305.77837    229018.04    -21185.86    1563.2567   -22749.117   -758.94938    84.169776    78.591021    15.915037    29.657295 
    8600     238.5948   -243.58752    229018.04   -21098.704    1580.2993   -22679.003   -479.54187    84.961937    78.591276    15.913924     29.65356 
    8800    241.58079   -114.31883    229018.04   -21128.275    1600.0765   -22728.352    55.202533    86.840858    78.593187    15.914012    29.655206 
    9000    239.58954   -97.338015    229018.04   -21092.409    1586.8878   -22679.297    72.462651    87.574168    78.594541     15.91431    29.662581 
    9200    236.92419   -219.50849    229018.04   -21123.276    1569.2342    -22692.51   -427.19762     88.93796    78.595317    15.915704    29.671946 
    9400    235.45235   -217.26445    229018.04   -21163.756    1559.4857   -22723.241   -388.08796    89.958349    78.594182    15.916612    29.662576 
    9600    232.95444   -248.16302    229018.04   -21184.565    1542.9411   -22727.506   -489.30074     91.71221      78.5942    15.916885    29.654025 
    9800    241.16461   -314.45862    229018.04   -21135.331      1597.32   -22732.651   -736.06205    92.885866     78.59235    15.919019    29.647843 
   10000    248.27793   -314.56101    229018.04   -20999.266    1644.4341     -22643.7   -738.81986    94.658643    78.589821    15.919902    29.666754 
   10200    236.29403   -247.85898    229018.04   -21050.946    1565.0604   -22616.006   -463.83687    95.890005    78.587831    15.919433    29.674907 
   10400    237.36789   -387.35521    229018.04   -21077.686     1572.173   -22649.859   -1005.9991    96.875653     78.58532     15.91712    29.682086 
   10600    243.41033   -43.181087    229018.04   -21066.679    1612.1942   -22678.873    327.43318    98.023044    78.584374     15.91927    29.676441 
   10800    243.78331   -345.62988    229018.04   -21079.883    1614.6646   -22694.548   -844.63256    99.235306    78.584325    15.922341    29.690655 
   11000    240.82959   -382.34517    229018.04   -21088.569    1595.1011    -22683.67   -1002.0855    100.56871    78.584962    15.928649    29.667711 
   11200    240.98091   -364.42182    229018.04   -21085.428    1596.1033   -22681.531   -933.26603    101.59476    78.583993    15.931317      29.6442 
   11400    235.15615   -272.33958    229018.04   -21074.405    1557.5238   -22631.928   -568.11569     103.1908    78.582441    15.933621    29.649119 
   11600    242.39281   -484.02863    229018.04   -21044.341    1605.4548   -22649.796   -1425.1829    105.52842    78.582126    15.934867    29.636237 
   11800    239.50241   -348.36153    229018.04   -21068.317    1586.3107   -22654.627    -878.3587    107.68269    78.581417    15.936107    29.646399 
   12000    243.43717   -217.55608    229018.04   -20951.624     1612.372   -22563.996   -377.62287     108.8897    78.581081    15.940692    29.644479 
   12200     244.8987   -273.51615    229018.04   -21033.771    1622.0523   -22655.823   -590.04283    109.72811    78.579099    15.941369    29.655949 
   12400    244.94629   -48.865952    229018.04   -20975.921    1622.3675   -22598.288    268.11944    110.65491    78.579154    15.942001    29.653104 
   12600    247.04449   -359.06834    229018.04   -20968.666    1636.2645   -22604.931   -900.79276    112.05848    78.579697    15.946972    29.662816 
   12800    239.13317   -261.59048    229018.04   -21085.755     1583.865    -22669.62   -510.66171      112.952    78.578028    15.948967    29.674437 
   13000    237.16862   -254.20946    229018.04   -21105.915    1570.8531   -22676.768   -503.34229    114.06914    78.576543    15.949923    29.673203 
   13200    240.09347   -319.36202    229018.04   -21073.239    1590.2255   -22663.464   -757.65345    116.14501     78.57624    15.949821    29.667746 
   13400    247.76255   -224.85896    229018.04    -21052.32    1641.0205   -22693.341   -395.50239    118.41756    78.576467    15.951961    29.642703 
   13600    246.60511   -246.91047    229018.04   -21091.204    1633.3544   -22724.559   -469.69007    119.93474    78.577025    15.953324      29.6434 
   13800    240.78103    -430.5955    229018.04   -21156.499    1594.7794   -22751.279   -1189.4325    121.19065    78.577544    15.953372    29.619453 
   14000    238.57562   -194.13279    229018.04   -21139.038    1580.1722    -22719.21   -269.04918    122.67511    78.580105    15.954056    29.592335 
   14200    240.38717   -305.69039    229018.04   -21199.154    1592.1708   -22791.325   -725.56039     124.1241    78.580029    15.950315    29.598598 
   14400    235.99247   -150.39823    229018.04   -21233.721    1563.0631   -22796.785   -123.07477    125.13404    78.579977    15.949352    29.560872 
   14600     239.9839   -244.04885    229018.04   -21168.555    1589.4998   -22758.054   -496.76238     125.8505    78.581419    15.950279    29.541298 
   14800    238.57262   -351.90017    229018.04   -21131.856    1580.1524   -22712.008   -908.66989    127.04739    78.582047    15.948393    29.531587 
   15000    239.18179   -243.09829    229018.04   -21124.667    1584.1871   -22708.854   -469.29397    127.93124    78.581561    15.948563    29.555731 
   15200    235.39758   -61.145096    229018.04     -21188.2    1559.1229   -22747.323     275.4025    128.25278    78.581554    15.949793    29.562606 
   15400     235.9594   -360.57112    229018.04   -21120.567     1562.844   -22683.411   -951.49864       129.19    78.581855    15.948867    29.582324 
   15600    234.71746   -375.27149    229018.04   -21173.403    1554.6182   -22728.021   -966.20524    130.30385     78.58375    15.949511    29.593013 
   15800    241.59617   -193.48894    229018.04    -21072.64    1600.1784   -22672.818   -244.62223    131.80534     78.58474    15.950557    29.594979 
   16000     239.0735   -334.60799    229018.04   -21154.743    1583.4699   -22738.213   -828.43288    132.92728    78.585617    15.950034    29.582748 
   16200    243.03462   -239.35848    229018.04    -21031.06    1609.7057   -22640.766   -423.82257    134.10815    78.585001    15.950721    29.578779 
   16400    243.99577   -194.60535    229018.04   -21040.446    1616.0718   -22656.518   -278.60981    134.78568    78.585031    15.951497     29.58074 
   16600    240.30323   -222.82231    229018.04   -21070.103    1591.6148   -22661.718   -390.56236    137.23433    78.587153    15.954147    29.598358 
   16800    239.24138   -326.86309    229018.04   -21077.267    1584.5818   -22661.849    -768.1667    138.63375    78.587884     15.95427    29.576441 
   17000    241.25442     -425.604    229018.04   -21057.475    1597.9149    -22655.39   -1173.9612    140.10703    78.587275    15.954107    29.563852 
   17200    246.25146   -306.06719    229018.04   -21078.999    1631.0121   -22710.011   -724.48463    141.89158    78.587456    15.955742    29.577514 
   17400    242.07461   -337.61952    229018.04    -21052.24    1603.3473   -22655.588   -836.62929    143.01842    78.586913    15.953554    29.583657 
   17600    248.57748   -255.04364    229018.04   -21019.745    1646.4181   -22666.164   -509.40471    145.01008     78.58822    15.954328    29.594869 
   17800    244.16524   -480.56955    229018.04   -21084.136    1617.1943   -22701.331   -1393.3794    146.46257    78.589519    15.956089    29.591582 
   18000    243.52567   -150.80892    229018.04   -21099.444    1612.9582   -22712.402   -120.86742    147.15929    78.589146    15.955665    29.594377 
   18200    237.66124   -412.79918    229018.04   -21101.656     1574.116   -22675.772   -1130.3903    149.31554    78.588178    15.956568    29.611857 
   18400    241.47239   -370.21028    229018.04   -21137.784    1599.3586   -22737.143   -979.58748    149.99813    78.587096    15.956823     29.59963 
   18600    239.35241   -244.11562    229018.04   -21088.675    1585.3171   -22673.993   -509.49912    151.75925    78.587052    15.957436    29.612401 
   18800    244.18255   -206.91794    229018.04     -21080.2    1617.3089   -22697.509   -321.47965    152.95827    78.586475    15.962032      29.6176 
   19000    236.89391   -299.24707    229018.04   -21092.836    1569.0336   -22661.869   -695.85504    154.52027    78.589195    15.963035    29.637374 
   19200    238.23234   -158.53346    229018.04   -21086.309    1577.8985   -22664.208    -131.7015    156.49369     78.58956    15.958015    29.619088 
   19400    245.23295   -76.503609    229018.04   -21074.524    1624.2661   -22698.791    206.91585    157.41157    78.589956    15.957206    29.600836 
   19600    243.09726   -308.05297    229018.04    -21142.77    1610.1206   -22752.891   -751.06586    158.97538    78.589236     15.95446    29.591135 
   19800     238.3833   -144.88071    229018.04   -21099.983    1578.8984   -22678.881   -47.598097    159.95096    78.588115    15.952584    29.613476 
   20000    237.51569    -335.4188    229018.04   -21124.403    1573.1519   -22697.555   -834.44883    162.23146    78.587883    15.951532    29.637189 
   20200    240.25403   -434.04102    229018.04   -21107.464    1591.2889   -22698.753   -1197.0616    164.71276    78.589918    15.950922     29.65093 
   20400    229.71015   -316.45418    229018.04   -21198.272     1521.453   -22719.725    -760.6316    165.68461    78.590233    15.948697    29.647223 
   20600      236.838   -284.34425    229018.04    -21135.95    1568.6633   -22704.613   -610.62045     167.0254     78.59081    15.945155    29.644779 
   20800    237.61076   -367.40224    229018.04   -21109.343    1573.7816   -22683.125   -962.65103    170.47024     78.58868    15.942687     29.64791 
   21000    239.04724   -141.76823    229018.04   -21092.759    1583.2959   -22676.055   -75.560084    173.41545    78.589113    15.943304    29.653175 
   21200    245.83529   -197.58873    229018.04   -21030.151    1628.2556   -22658.406   -261.39811    176.19041    78.589441    15.943244    29.646908 
   21400     233.3463   -384.24329    229018.04   -21129.622    1545.5365   -22675.158   -1035.5291    179.28455    78.590371    15.941286    29.658196 
   21600    238.67181   -251.81278    229018.04   -21046.831    1580.8093   -22627.641   -492.31756    181.77332     78.59211    15.942065    29.654565 
   21800     240.0538   -325.47336    229018.04   -21042.051    1589.9627   -22632.014   -791.56876    183.89254    78.590945    15.940543       29.674 
   22000    240.00613   -353.53823    229018.04   -21078.489     1589.647   -22668.136   -874.03717    183.59294     78.59078    15.941257    29.690599 
   22200    244.46657   -400.90855    229018.04   -21053.634    1619.1901   -22672.825   -1074.0423    183.31613    78.590383    15.940815    29.665303 
   22400     240.1815   -226.68153    229018.04   -21138.568    1590.8085   -22729.376    -380.4706    184.34843     78.59067    15.940523    29.664154 
   22600    238.58143   -239.55565    229018.04    -21090.43    1580.2107    -22670.64   -451.05198    186.34294    78.592393    15.942638    29.670693 
   22800    248.27474   -355.54153    229018.04   -21076.442     1644.413   -22720.855   -911.54583    188.03041    78.592398    15.943952    29.656069 
   23000    237.34167   -224.52747    229018.04   -21112.847    1571.9993   -22684.847   -380.40797    189.28888    78.592061    15.945761    29.649114 
   23200     233.0246   -278.28595    229018.04   -21165.702    1543.4058   -22709.108    -615.0589    190.79488    78.592658    15.948029    29.624518 
   23400    242.77541   -346.14043    229018.04   -21091.172    1607.9889   -22699.161   -894.47495    193.28928    78.591732    15.948719    29.598952 
   23600    235.05655   -306.14595    229018.04   -21186.105    1556.8641   -22742.969   -721.49503     195.1039    78.591377    15.949777    29.607614 
   23800    237.07499   -401.40724    229018.04   -21193.694     1570.233   -22763.927   -1074.4259    195.83871    78.592724    15.949112    29.595823 
   24000     241.3803   -132.95952    229018.04   -21063.557    1598.7486   -22662.306   -34.799473    197.82562    78.591698    15.947467    29.609043 
   24200    232.19951   -356.37926    229018.04   -21119.694     1537.941   -22657.635   -935.57569    199.97108    78.591856    15.946149    29.597326 
   24400    244.20206    -361.0305    229018.04    -21084.52    1617.4382   -22701.958   -910.83418    201.05589    78.591644    15.944489    29.581706 
   24600      234.039    -186.8817    229018.04   -21168.787    1550.1245   -22718.911   -280.94591    199.93812    78.593146    15.942769     29.57795 
   24800    236.26837   -257.56397    229018.04   -21164.751    1564.8905   -22729.642   -522.54599    201.08665    78.591772    15.940799    29.548841 
   25000    240.46614   -332.71421    229018.04   -21135.132    1592.6938   -22727.826   -810.20306    203.77919    78.592555    15.942254    29.514085 
   25200    238.78285   -340.13407    229018.04   -21123.657    1581.5447   -22705.202   -878.62713    205.03363    78.592346     15.94254    29.512162 
   25400    238.25644   -237.99521    229018.04   -21157.484    1578.0582   -22735.543   -430.98082    206.73288    78.591194    15.944537    29.505295 
   25600     240.4459   -204.08351    229018.04   -21159.924    1592.5597   -22752.484   -300.88848    207.15437    78.591617    15.944013    29.508942 
   25800    239.41209   -368.65137    229018.04   -21172.269    1585.7124   -22757.982   -952.06009    207.90847    78.590931    15.945072    29.530724 
   26000    237.31312   -102.52398    229018.04   -21195.308    1571.8102   -22767.118    50.905314    208.49227    78.589806      15.9478    29.513531 
   26200    240.73807   -171.78594    229018.04   -21099.989    1594.4949   -22694.484   -185.98053    210.20856    78.590688     15.94855    29.496324 
   26400    233.98239    -332.0254    229018.04   -21169.773    1549.7496   -22719.522   -794.74639    210.43719    78.591473    15.951432    29.521012 
   26600    237.04026   -314.33811    229018.04   -21137.098     1570.003   -22707.101   -706.10612    211.31391    78.591031     15.95228    29.520097 
   26800    244.88879   -299.05924    229018.04   -21090.503    1621.9866   -22712.489   -695.02064     212.2184    78.589893    15.951109    29.511056 
   27000    236.96623    -354.4728    229018.04   -21114.197    1569.5127    -22683.71   -885.88674    211.79487    78.592715    15.950428    29.493552 
   27200    246.91772   -391.22421    229018.04   -21067.242     1635.425   -22702.667   -1040.8239    212.33344    78.593108    15.950319    29.518209 
   27400     241.9015   -345.02475    229018.04   -21129.656    1602.2007   -22731.856   -847.19404    213.49119    78.591804    15.947187    29.493914 
   27600     243.3651   -344.59551    229018.04   -21140.926    1611.8946    -22752.82   -864.84914    215.97625    78.593185    15.946946    29.499221 
   27800      235.357   -202.48329    229018.04   -21216.551    1558.8541   -22775.406   -301.43084    217.95093    78.592106    15.946408    29.490843 
   28000     240.5682   -164.95286    229018.04   -21133.002    1593.3698   -22726.372   -128.64482    219.51434    78.591952    15.944284    29.507417 
   28200    244.14578   -296.65279    229018.04   -21056.689    1617.0654   -22673.755    -662.9161    220.03237    78.591297    15.941758    29.510913 
   28400    242.62452   -192.52455    229018.04   -21006.947    1606.9895   -22613.937   -293.94728    222.61285    78.591402    15.941053    29.518038 
   28600    235.17386   -255.46783    229018.04   -20989.228    1557.6411   -22546.869   -538.91563    224.73253    78.590177    15.943751    29.518312 
   28800    241.64906   -181.93244    229018.04   -21052.023    1600.5287   -22652.552   -265.52476      226.707    78.590972    15.947889    29.525999 
   29000    244.18762   -199.61782    229018.04   -21037.367    1617.3425    -22654.71   -298.69689    227.85035    78.591995    15.949625    29.529464 
   29200    235.48863   -417.49273    229018.04   -21080.782     1559.726   -22640.508    -1140.015    228.42429    78.591854    15.950757    29.528425 
   29400    247.88941   -73.580652    229018.04   -21031.296    1641.8608   -22673.157    191.54055    229.53602    78.591019    15.950218    29.546603 
   29600    239.13329   -351.84807    229018.04   -21070.259    1583.8659   -22654.125   -871.34989    231.75068    78.592011    15.949597    29.564981 
   29800    240.45995   -210.27718    229018.04   -21051.009    1592.6528   -22643.662     -330.517    231.70453    78.591552    15.950586    29.563376 
   30000    236.19178   -167.36639    229018.04    -21087.98    1564.3832   -22652.363   -153.66423     232.8817    78.591209    15.951166    29.560621 
   30200     231.8502   -355.79762    229018.04   -21121.727    1535.6273   -22657.354   -900.07228    234.91877    78.591017    15.947455    29.549568 
   30400    238.32225   -349.25531    229018.04   -21142.482    1578.4941   -22720.976    -865.1478      238.467    78.588553    15.946251    29.546282 
   30600    227.58058   -269.29739    229018.04   -21217.907    1507.3481   -22725.255   -576.95088    240.81937      78.5886    15.944922    29.559351 
   30800    238.17769    -397.1438    229018.04   -21156.055    1577.5366   -22733.592   -1072.0734    242.03405    78.589843    15.946447     29.56184 
   31000    237.56577    -398.2608    229018.04   -21110.994    1573.4836   -22684.477   -1064.9963    242.92561    78.590827    15.948913    29.562917 
   31200    243.37242   -291.30076    229018.04   -21055.399    1611.9431   -22667.342   -666.26596    243.97286    78.590506    15.949954    29.572851 
   31400    243.87267   -155.47339    229018.04   -21072.484    1615.2565    -22687.74   -117.08686    244.91985    78.589149    15.948099    29.577031 
   31600    238.93404   -468.29239    229018.04   -21043.269    1582.5462   -22625.815    -1358.004    246.67292    78.587061    15.945919     29.57371 
   31800    244.56938   -242.88447    229018.04   -21142.153     1619.871   -22762.024   -467.20343    246.21142    78.588992    15.944546    29.598714 
   32000    237.68221   -257.80792    229018.04       -21111    1574.2549   -22685.255   -563.79201    246.82607    78.590031     15.94312    29.614743 
   32200     229.6653   -392.98479    229018.04   -21223.086    1521.1559   -22744.242   -992.63838    248.97864    78.589649    15.942696    29.619448 
   32400    240.30122   -195.22427    229018.04   -21205.425    1591.6014   -22797.027   -285.79214    249.47807    78.589471     15.94253    29.618447 
   32600    231.54431    -328.2897    229018.04   -21189.656    1533.6013   -22723.257   -811.91263    250.78993    78.589627     15.94139    29.618314 
   32800     235.8895   -164.45432    229018.04   -21195.831    1562.3811   -22758.212   -120.23607    252.53498    78.590053    15.943118    29.620823 
   33000    236.32657    -372.0249    229018.04   -21160.719    1565.2759   -22725.994   -966.55526     256.4058    78.590922    15.941022    29.623606 
   33200    239.87172   -247.45366    229018.04   -21170.497    1588.7567   -22759.254   -541.61112     256.6461     78.59192    15.941796    29.618085 
   33400    244.15998   -277.28998    229018.04   -21160.697    1617.1594   -22777.857   -597.90879    259.09656    78.592602    15.940914     29.61248 
   33600    231.91419   -347.98391    229018.04   -21234.474    1536.0512   -22770.525   -903.57303    261.90483    78.595205    15.939515    29.607903 
   33800    240.40814   -218.41664    229018.04   -21117.717    1592.3096   -22710.026   -368.85179    263.19292    78.595843    15.939391    29.600815 
   34000    236.83767   -342.10343    229018.04   -21148.315    1568.6611   -22716.976   -857.18815    264.67264    78.596457    15.936237    29.616933 
   34200    238.19387   -308.11301    229018.04   -21145.532    1577.6438   -22723.176   -764.87334    266.27398    78.596821    15.932995    29.613489 
   34400    237.90167   -193.11151    229018.04   -21163.582    1575.7084   -22739.291   -259.43331    268.08006    78.597808    15.929927    29.620032 
   34600    238.30229   -358.81902    229018.04   -21120.215    1578.3619   -22698.577   -914.47552    271.44649    78.594665    15.928942    29.634649 
   34800     241.7513   -298.03048    229018.04   -21100.708    1601.2058   -22701.914   -720.62351    271.88641    78.594842    15.927523    29.640659 
   35000    237.61192   -231.83152    229018.04   -21055.826    1573.7893   -22629.615   -438.79908    274.17359    78.594706    15.931017    29.637334 
   35200    243.39038   -329.85413    229018.04   -21057.601    1612.0621   -22669.663   -768.84712    276.44884    78.594537    15.930939    29.625585 
   35400    242.76614   -348.44664    229018.04    -21032.57    1607.9276   -22640.498   -840.85267    277.43719    78.594399    15.931601    29.639825 
   35600    238.59172   -275.50769    229018.04   -21123.321    1580.2788   -22703.599    -563.4904    279.56183    78.595356    15.933135    29.632303 
   35800    240.89572   -406.18583    229018.04   -21089.701    1595.5391    -22685.24   -1113.4909    280.71572    78.595711    15.931878    29.617353 
   36000    237.12108   -216.08639    229018.04   -21178.721    1570.5383    -22749.26   -355.03041     283.7884    78.596184    15.931718    29.631587 
   36200    230.70071   -315.55623    229018.04   -21148.399    1528.0139   -22676.413   -713.86211    285.79005     78.59639    15.929988    29.668489 
   36400    239.49842   -322.20658    229018.04    -21087.93    1586.2842   -22674.214   -804.70303    288.25965     78.59665    15.929642    29.667449 
   36600    233.75552   -307.03454    229018.04    -21150.64     1548.247   -22698.887    -704.0012    288.31405    78.597632    15.928129    29.667882 
   36800    239.27101   -335.70806    229018.04   -21147.745     1584.778   -22732.523   -804.06912    291.08246    78.597533    15.930115     29.68522 
   37000    238.15791   -428.92057    229018.04   -21068.179    1577.4056   -22645.585   -1200.8152    292.48435    78.597798    15.931475    29.687136 
   37200    233.42225   -371.89423    229018.04   -21185.988    1546.0395   -22732.027   -943.59598    295.18249    78.599109    15.931601    29.688672 
   37400    235.39681   -358.35056    229018.04   -21141.082    1559.1178     -22700.2   -889.22812    298.81664     78.59958    15.932027    29.681274 
   37600    237.85622   -417.11072    229018.04   -21072.529    1575.4073   -22647.936   -1165.8757     301.5126    78.602151    15.933238    29.681515 
   37800    236.56197   -391.93427    229018.04    -21152.62    1566.8351   -22719.455   -1040.4057     302.8029    78.600311    15.933885    29.678318 
   38000    242.08659   -331.02595    229018.04   -21115.544    1603.4266    -22718.97   -798.51965    304.49268    78.599325    15.935369    29.676046 
   38200    242.38109   -203.39785    229018.04   -21094.347    1605.3772   -22699.725   -263.77618    304.94956    78.597756    15.935547    29.657996 
   38400    240.08443    -310.8665    229018.04   -21098.668    1590.1656   -22688.833   -731.08967    305.23037     78.59719    15.933582    29.656406 
   38600     238.8854   -455.44921    229018.04   -21111.971     1582.224   -22694.195   -1268.0446    305.36104    78.598294    15.934297    29.637617 
   38800    243.82221   -250.15954    229018.04   -21106.378    1614.9222     -22721.3   -467.44611      304.876    78.599515    15.937134    29.647705 
   39000    247.60582   -277.98682    229018.04   -21107.089    1639.9825   -22747.071   -568.41297    306.43172    78.600128    15.939973    29.635484 
   39200    240.22423   -217.34422    229018.04   -21228.141    1591.0915   -22819.233   -359.81279     308.1703    78.600467    15.939944    29.619999 
   39400    239.62521   -266.77837    229018.04   -21183.621     1587.124   -22770.745   -556.49471    310.50851    78.602518    15.938919    29.612762 
   39600    233.65632   -189.00597    229018.04   -21162.879    1547.5899   -22710.469   -232.63459    311.37136    78.604213    15.938727     29.58054 
   39800    243.95059   -259.77481    229018.04   -21008.537    1615.7726   -22624.309   -534.96704    310.73732    78.603792    15.937915     29.56317 
   40000    241.65854   -310.91601    229018.04   -21133.199    1600.5915    -22733.79   -701.40313     310.0982    78.603704    15.937749    29.564808 
   40200    235.55362   -132.21065    229018.04    -21242.12    1560.1564   -22802.276    -20.53215    309.89496    78.603416    15.937537    29.557409 
   40400    240.83602   -414.47866    229018.04   -21107.805    1595.1437   -22702.948   -1108.7603    310.53281    78.603875    15.936469    29.547447 
   40600    237.58255   -374.67216    229018.04   -21214.309    1573.5948   -22787.904   -1004.9941    311.45359    78.602602    15.937591    29.548508 
   40800    233.78577   -329.23777    229018.04   -21178.181    1548.4473   -22726.629   -829.61534    313.04064    78.600382    15.940998    29.551987 
   41000    243.72866   -226.66109    229018.04   -21128.774    1614.3026   -22743.077   -383.99536    314.77188    78.600718    15.942029    29.574313 
   41200    239.11036   -315.78968    229018.04   -21078.967     1583.714   -22662.681    -761.8228    315.35852     78.60221    15.942513    29.563229 
   41400    240.74298   -406.74563    229018.04   -21136.995    1594.5274   -22731.523   -1125.8265     314.5581    78.604579    15.945475    29.557361 
   41600    244.76832   -263.02435    229018.04    -21030.78    1621.1887   -22651.969   -529.48308    315.50217    78.607422    15.947281    29.553329 
   41800    243.95712   -476.42071    229018.04   -21080.293    1615.8158   -22696.109   -1368.0574    316.23858     78.61044    15.947035    29.533064 
   42000    238.97716   -271.60413    229018.04   -21115.627    1582.8317   -22698.459   -577.58626    317.82747    78.608618    15.949497    29.552335 
   42200    240.78777   -314.13897    229018.04   -21083.722    1594.8241   -22678.546   -724.41241    319.86081    78.609592    15.948236    29.538023 
   42400    250.56988   -306.35968    229018.04   -21098.929    1659.6145   -22758.544     -748.611    319.50558    78.609453    15.949245    29.542508 
   42600    240.42129   -149.88369    229018.04   -21141.666    1592.3967   -22734.062   -121.14497    324.29173    78.608808    15.950519    29.519349 
   42800    245.76347   -253.63921    229018.04   -21033.777    1627.7799   -22661.557   -500.54954    325.49151    78.612595    15.948312    29.483111 
   43000    249.55807   -266.12154    229018.04   -21012.763    1652.9129   -22665.676   -572.44844    328.57681    78.616857    15.947303    29.487845 
   43200     242.9271   -230.97176    229018.04   -21079.598    1608.9936   -22688.591   -426.76439    328.45343    78.618817     15.94716    29.498365 
   43400    246.38598   -284.93805    229018.04   -21119.101     1631.903   -22751.004   -654.13734    328.96601    78.617232    15.948072    29.495173 
   43600    236.25149   -288.05222    229018.04   -21169.425    1564.7787   -22734.204   -608.44486    328.28956    78.617218    15.946904    29.493485 
   43800    242.72036   -205.23709    229018.04   -21157.459    1607.6243   -22765.084   -311.32311    328.16067    78.618124    15.947321    29.490221 
   44000    234.93254   -354.12352    229018.04   -21225.783    1556.0428   -22781.826   -936.56064    329.73417    78.620455    15.942828    29.491993 
   44200    240.59668   -120.99093    229018.04   -21158.751    1593.5584    -22752.31    35.243487     329.9392    78.621889    15.944538     29.48847 
   44400    246.50613   -295.92579    229018.04   -21115.547    1632.6988   -22748.246   -676.90888    329.99826    78.623324    15.947335    29.479403 
   44600    248.94473   -360.14443    229018.04   -21115.939    1648.8506   -22764.789   -961.24312    331.14798    78.625669     15.94667    29.476398 
   44800    249.45577   -171.96667    229018.04   -21164.636    1652.2353   -22816.871   -227.21754    332.70149    78.629231     15.94522    29.489436 
   45000    233.01227   -402.14891    229018.04   -21167.961    1543.3241   -22711.285   -1116.6567    334.01735    78.629897    15.941811    29.486457 
   45200    239.42969   -193.80226    229018.04    -21015.23     1585.829   -22601.059   -328.67503     337.0285    78.631466    15.941513    29.500157 
   45400    247.47001   -395.61274    229018.04   -20966.725     1639.083   -22605.808   -1101.7168    337.76975     78.63138    15.942233    29.509292 
   45600    242.61403   -278.75691    229018.04   -20961.172    1606.9201   -22568.092   -592.41297    339.94028    78.633157    15.941721    29.510131 
   45800    239.41943    -219.0474    229018.04   -21051.126    1585.7611   -22636.887   -394.33239    343.53538    78.634221    15.940192    29.528894 
   46000    238.91862   -374.73949    229018.04   -21069.142     1582.444   -22651.586   -1006.1547    345.84594    78.634647    15.942627    29.533897 
   46200      241.879   -154.33318    229018.04   -21054.539    1602.0517   -22656.591   -139.74165     343.8513    78.636999    15.944223    29.533986 
   46400    241.04266   -277.86078    229018.04   -21019.041    1596.5123   -22615.553   -627.13438    345.56234    78.637573    15.942294    29.546573 
   46600    240.01221   -379.41686    229018.04   -21063.215    1589.6873   -22652.902   -1019.8927    347.56035    78.635668    15.943767    29.550891 
   46800    246.44172   -332.32689    229018.04   -21041.812    1632.2722   -22674.084   -805.85953    349.51321    78.634778    15.948213    29.565108 
   47000    245.69993   -456.32376    229018.04   -21027.267    1627.3591   -22654.626    -1287.608    352.44151    78.633854     15.95057    29.558351 
   47200    244.75989    -449.6506    229018.04   -21088.861    1621.1328   -22709.994   -1243.4028    352.45802    78.635887    15.950681    29.552206 
   47400    242.05099   -221.57012    229018.04   -21115.818    1603.1908   -22719.009   -391.24936    352.86522    78.637482    15.949918    29.561294 
   47600    244.68889   -159.77917    229018.04   -21059.992    1620.6626   -22680.654   -149.42658    353.21302    78.637267    15.947175    29.556391 
   47800    241.43807   -265.10209    229018.04   -21068.252    1599.1312   -22667.383   -542.24769    352.72297    78.635359    15.944466    29.552976 
   48000    244.74366   -391.05058    229018.04   -21093.914    1621.0254    -22714.94   -1054.6487    354.27092    78.635521    15.942475    29.572566 
   48200    230.77819   -346.76663    229018.04   -21104.627     1528.527   -22633.154   -869.24227    355.25466    78.635048    15.940363    29.588585 
   48400    237.74344   -349.77212    229018.04   -21116.255    1574.6604   -22690.916    -907.9161    356.32514    78.635479     15.94005    29.579481 
   48600    237.13349   -358.70872    229018.04   -21106.207    1570.6205   -22676.828   -924.30712    359.27918      78.6327     15.93535      29.5668 
   48800     238.7372   -253.49423    229018.04   -21084.055    1581.2424   -22665.297   -505.44636    361.42798    78.629042    15.932912    29.579079 
   49000    238.70387   -255.52781    229018.04   -21132.625    1581.0217   -22713.647      -540.79    361.04024    78.630752    15.932821    29.579608 
   49200    237.59031   -505.82064    229018.04   -21118.093    1573.6462   -22691.739   -1497.1032    361.17207    78.629624    15.934945     29.57453 
   49400    238.53374    -349.7327    229018.04   -21125.145    1579.8948    -22705.04   -878.21447    361.72021    78.629571    15.933781    29.556982 
   49600    242.04944   -248.44167    229018.04   -21127.299    1603.1805    -22730.48   -471.96227    362.17056    78.628232    15.932563    29.543592 
   49800    238.74355   -235.61949    229018.04   -21137.669    1581.2845   -22718.953   -448.71978    362.64419    78.627699    15.929133    29.537128 
   50000    245.70097   -287.31124    229018.04   -21088.619    1627.3659   -22715.985   -612.92497    363.50829    78.627632    15.929551    29.540926 
   50200    243.68644   -198.84991    229018.04   -21091.547     1614.023    -22705.57   -290.48085     362.7572    78.629972    15.929179    29.516166 
   50400    242.95026   -297.45773    229018.04   -21079.871     1609.147   -22689.018   -667.10456    364.09177    78.630873    15.930472    29.516871 
   50600     236.4775   -339.33769    229018.04   -21122.085    1566.2756   -22688.361   -866.22584    365.59473    78.629937    15.930798    29.499306 
   50800    237.25856   -290.34931    229018.04   -21158.269    1571.4488   -22729.718   -657.59174    365.91943    78.631795    15.930128    29.488518 
   51000    242.01066     -209.798    229018.04   -21117.598    1602.9237   -22720.522   -347.93394     366.5144    78.630967    15.931999    29.457383 
   51200     236.2054   -388.98105    229018.04   -21110.996    1564.4734    -22675.47   -1047.1811    368.73883    78.630738    15.931213    29.454707 
   51400    239.40938   -229.48585    229018.04   -21151.987    1585.6945   -22737.682   -406.33363      369.743    78.629528    15.931093     29.47603 
   51600    240.58905   -336.53216    229018.04   -21109.947    1593.5079   -22703.455   -843.41431    373.42849    78.630699    15.930967    29.462192 
   51800    234.99754   -275.82254    229018.04   -21091.505    1556.4733   -22647.978   -581.37371    376.77968     78.63056    15.931648    29.460706 
   52000    239.52398   -119.15406    229018.04   -21074.179    1586.4536   -22660.633    12.885661    381.74465    78.628326    15.932371    29.465868 
   52200     236.2238   -276.33516    229018.04   -21060.612    1564.5952   -22625.207   -613.50465    384.15685    78.628709     15.93213    29.460497 
   52400    240.15798   -244.91068    229018.04   -21061.089    1590.6527   -22651.741   -428.77857    384.41103     78.62767    15.931696    29.481729 
   52600    237.91466    -250.6114    229018.04   -21081.671    1575.7945   -22657.465   -514.22292    383.22519    78.627484    15.933099    29.484161 
   52800    231.87857   -465.64261    229018.04    -21190.19    1535.8153   -22726.006   -1356.1725    383.58455    78.627611    15.933136    29.485148 
   53000    236.05103   -440.47165    229018.04   -21161.151    1563.4509   -22724.602   -1238.8452    384.61103    78.627264     15.93313    29.486708 
   53200    237.43432   -301.68987    229018.04   -21128.056     1572.613   -22700.669   -713.37313    385.68312    78.626585    15.931501    29.498767 
   53400    232.37903    -165.1052    229018.04    -21114.42      1539.13    -22653.55   -146.58826    389.25728    78.622985    15.929571    29.504842 
   53600    234.92295   -330.82208    229018.04   -21124.626    1555.9792   -22680.605   -838.55548    389.35273    78.623481    15.929893    29.492131 
   53800    239.11262    -395.2041    229018.04   -21156.537    1583.7289   -22740.266   -1037.0393     391.0407    78.624368    15.929718    29.493773 
   54000    241.88627   -74.365551    229018.04   -21023.158    1602.0999   -22625.257    195.75292    391.72667    78.625986      15.9263    29.499234 
   54200     241.3023   -351.27012    229018.04   -21129.224     1598.232   -22727.456   -925.01272    392.37757    78.627763    15.923897    29.511341 
   54400     235.0049   -290.84176    229018.04   -21155.214    1556.5221   -22711.737   -641.22467    392.54269     78.62719    15.921929    29.514931 
   54600    244.84714    -420.4722    229018.04   -21100.395    1621.7107   -22722.106   -1132.3462     392.6282    78.626848    15.923948    29.516221 
   54800    243.29919   -256.73465    229018.04   -21054.201    1611.4581   -22665.659    -498.9992    392.77052    78.627099    15.924401    29.524566 
   55000    244.61394   -292.48738    229018.04   -21061.275    1620.1662   -22681.441   -673.68042    394.52935    78.625804    15.922619    29.529906 
   55200     245.0031   -255.50189    229018.04   -21013.145    1622.7437   -22635.888    -535.9906     394.4845    78.624702    15.920662    29.558684 
   55400    238.51676   -312.45506    229018.04   -21048.389    1579.7824   -22628.171   -730.37564    395.06211    78.625987     15.92034    29.564499 
   55600    243.12211   -298.38902    229018.04   -21057.034    1610.2852   -22667.319   -639.73715    396.72708    78.624981    15.915787    29.567841 
   55800     237.5636   -433.61286    229018.04   -21131.835    1573.4692   -22705.305   -1218.0279    401.19467    78.626979    15.914033    29.552836 
   56000    235.62545   -344.93108    229018.04   -21145.601    1560.6321   -22706.233    -842.0747    401.85458    78.627516     15.91378    29.542965 
   56200    249.67204   -196.50614    229018.04   -21090.294    1653.6678   -22743.962   -264.04751    403.35299     78.62835    15.913975    29.530213 
   56400    240.71733   -354.73264    229018.04   -21100.084    1594.3575   -22694.442   -921.94417    404.45454    78.629992     15.91539     29.54349 
   56600    229.17501   -368.42486    229018.04   -21190.074    1517.9085   -22707.982   -926.68375    405.28331     78.63116    15.914217    29.526367 
   56800    236.48754   -301.55637    229018.04   -21168.054    1566.3421   -22734.396   -691.00668    407.60097    78.629787    15.914985    29.514855 
   57000    232.99956   -178.64388    229018.04   -21197.907      1543.24   -22741.147   -242.94017    408.22535    78.629733    15.913693     29.51381 
   57200    235.33972   -335.64599    229018.04   -21198.197    1558.7397   -22756.937   -820.37708    408.39818    78.627046    15.913592     29.52345 
   57400    233.49366   -286.78395    229018.04   -21216.302    1546.5125   -22762.814   -617.62593    405.80643    78.625719    15.910478    29.535881 
   57600    238.81181   -346.92477    229018.04   -21112.289    1581.7365   -22694.026   -829.17107    404.74972     78.62489    15.909169    29.530519 
   57800    240.63122   -194.67703    229018.04   -21121.901    1593.7872   -22715.688   -267.28169     405.3902     78.62231    15.908586    29.513078 
   58000    241.39451   -341.92745    229018.04   -21066.587    1598.8427    -22665.43   -819.26885    404.63751     78.62218    15.909205    29.487801 
   58200    239.92427   -175.28244    229018.04   -21053.897    1589.1048   -22643.002   -194.93676    407.29692    78.621168    15.912093    29.491296 
   58400     234.7483   -345.24277    229018.04   -21169.258    1554.8225    -22724.08   -860.44122     410.3595    78.618337    15.912043    29.468914 
   58600    238.75701   -399.44981    229018.04   -21114.675    1581.3736   -22696.049   -1088.9045    414.20878    78.616609    15.911586    29.489504 
   58800    237.38864    -271.3139    229018.04   -21152.477    1572.3104   -22724.787    -567.6022    413.24088    78.616763    15.910596    29.491057 
   59000    239.96305   -379.68993    229018.04   -21163.822    1589.3617   -22753.184   -989.99999    414.14524     78.61609    15.911714    29.486413 
   59200    234.31558   -287.77579    229018.04   -21200.014    1551.9564    -22751.97   -628.77476     417.6535    78.616479    15.913074    29.488277 
   59400    236.91895   -326.00401    229018.04   -21143.515    1569.1995   -22712.714   -765.73787    419.29348    78.616307    15.917242     29.50174 
   59600    242.66855   -225.16926    229018.04   -21041.508    1607.2812   -22648.789   -387.59147    418.68559    78.615731    15.915408     29.50013 
   59800    243.19524    -340.0345    229018.04   -21018.697    1610.7696   -22629.466    -834.5655    419.62307    78.617277    15.914535    29.501689 
   60000     236.2423   -206.88507    229018.04   -21125.071    1564.7178   -22689.788   -288.32624    421.36562    78.617942     15.91177    29.489526 
   60200      241.265   -416.66092    229018.04   -21039.942    1597.9849   -22637.927   -1150.4352    423.63298    78.617509    15.913085     29.47639 
   60400    241.36725   -302.25321    229018.04   -21124.069    1598.6622   -22722.731   -670.57463    424.10944    78.618336    15.916936     29.47681 
   60600    238.71465   -301.87605    229018.04   -21133.046     1581.093   -22714.139   -666.41871    427.32912    78.618967    15.916031    29.490829 
   60800    238.89002   -280.87139    229018.04   -21175.628    1582.2546   -22757.882   -641.42635    427.02321    78.619709    15.915959    29.480155 
   61000    234.12132   -369.90849    229018.04   -21144.786    1550.6698   -22695.455   -947.39503    427.28749    78.618743    15.915049    29.462874 
   61200    230.95113   -251.44665    229018.04   -21210.828    1529.6725     -22740.5   -510.64452    429.14425    78.618187    15.916178    29.478723 
   61400    235.33199   -265.77515    229018.04   -21108.799    1558.6885   -22667.487   -510.15835    428.26727    78.618803    15.915775    29.466791 
   61600    239.10089   -274.63334    229018.04   -21075.339    1583.6513    -22658.99   -545.74953    427.29293    78.617476    15.914893    29.446348 
   61800    246.56818   -181.01395    229018.04   -21019.799    1633.1098   -22652.909   -237.71771    428.13144    78.618173    15.913378    29.458502 
   62000    240.34677   -329.91762    229018.04   -21122.562    1591.9031   -22714.465   -761.18029     430.0244     78.62085    15.911102    29.473661 
   62200    243.97748   -228.58717    229018.04   -21072.976    1615.9507   -22688.927   -383.44754    430.58175    78.620881    15.911487    29.472633 
   62400    240.09544    -419.7349    229018.04    -21006.44    1590.2385   -22596.679   -1141.3396    433.09796    78.621736    15.911083     29.47315 
   62600    239.00739   -382.81329    229018.04   -21038.085     1583.032   -22621.117   -1009.6265    433.82747     78.62151    15.908869    29.450604 
   62800    237.42628   -329.26441    229018.04   -21063.061    1572.5597    -22635.62   -787.38871    434.93318    78.622093    15.906461     29.45046 
   63000    237.58814   -226.88946    229018.04    -21132.48    1573.6317   -22706.111    -435.5868     435.8137    78.623519    15.906784     29.44491 
   63200    235.17388   -416.89157    229018.04   -21204.799    1557.6412    -22762.44   -1130.2199    438.09873    78.624437    15.907677    29.423352 
   63400    241.55373   -201.12195    229018.04   -21077.252    1599.8973   -22677.149   -276.69606    439.97335    78.624502    15.906223    29.433391 
   63600    244.45796    -393.0198    229018.04   -21067.952     1619.133   -22687.085   -1083.7923    442.14644    78.625223    15.906215    29.430107 
   63800    243.89288   -140.80682    229018.04   -21026.155    1615.3903   -22641.545   -54.051878    445.32904    78.627541    15.906867    29.447737 
   64000    235.34355   -305.35885    229018.04   -21070.568     1558.765   -22629.334   -669.37209    446.75003    78.627049     15.90739    29.443082 
   64200    246.35839   -306.33474    229018.04   -21027.414    1631.7203   -22659.135   -702.73941    448.36752    78.625656      15.9079    29.448814 
   64400    247.16723   -163.17912    229018.04    -21017.46    1637.0775   -22654.538   -158.26438    450.49539     78.62574     15.90701    29.457341 
   64600    238.52145   -328.50168    229018.04   -21078.168    1579.8134   -22657.981   -823.16931    451.29103    78.627144    15.907152    29.456273 
   64800    239.88936   -292.58419    229018.04   -21013.256    1588.8735    -22602.13   -664.63538    453.37597    78.628481    15.905104    29.491733 
   65000     242.1876   -197.95117    229018.04   -21068.994    1604.0957    -22673.09   -302.61862    455.93931    78.628298    15.904855    29.499418 
   65200    239.95596   -344.89032    229018.04   -21059.692    1589.3147   -22649.007   -870.10333    459.86603    78.627692    15.907458    29.495552 
   65400    247.87496   -155.24749    229018.04   -20987.005    1641.7651    -22628.77     -123.578    464.51052    78.626502    15.909693     29.49541 
   65600     241.8931   -462.33061    229018.04   -21012.298    1602.1451   -22614.443   -1336.3958    468.14351    78.624945    15.912369    29.498398 
   65800    241.73292    -266.6235    229018.04   -21090.308    1601.0842   -22691.392   -552.74386    463.43657    78.625399    15.912125    29.501704 
   66000    234.10206   -288.44173    229018.04   -21123.309    1550.5422   -22673.851   -638.75113    462.23733    78.625803    15.912149    29.495253 
   66200    236.04816   -356.34373    229018.04   -21067.692    1563.4319   -22631.124   -958.29176    462.97097    78.626063    15.911929     29.49186 
   66400    229.87853   -286.70857    229018.04    -21120.61    1522.5682   -22643.178   -644.81013    464.66524    78.625692    15.911283    29.481763 
   66600    235.33707   -408.30557    229018.04   -21080.889    1558.7221   -22639.611   -1126.9064    464.62169    78.626427    15.910932     29.46699 
   66800    235.67314   -225.93662    229018.04   -21163.085    1560.9481   -22724.033   -417.48267    463.60969    78.624769    15.913456    29.469061 
   67000     238.4306   -344.52291    229018.04   -21122.499    1579.2116   -22701.711   -867.61172    461.81703    78.625826      15.9166    29.477706 
   67200    233.11605   -258.87463    229018.04   -21163.424    1544.0115   -22707.436   -498.28915    462.81162    78.626394    15.916761    29.470082 
   67400     236.4509   -347.08842    229018.04    -21105.11    1566.0994   -22671.209   -858.60761    464.08176    78.627089    15.920215     29.46408 
   67600    240.64448   -264.43246    229018.04   -21111.333     1593.875   -22705.208   -597.29428    464.93813    78.627611    15.920361    29.463988 
   67800    234.20595   -301.53276    229018.04    -21091.33    1551.2303   -22642.561   -672.81818    466.72065    78.628482    15.919554    29.466029 
   68000    245.10033   -369.97051    229018.04   -21121.848    1623.3877   -22745.235   -996.17862    466.41078    78.628429    15.917672    29.450284 
   68200    240.02968   -232.51362    229018.04   -21152.155     1589.803   -22741.958   -445.41876    471.42514    78.628136    15.916191    29.429801 
   68400    247.97012   -209.94062    229018.04   -21038.445    1642.3954    -22680.84   -299.75874    475.31739    78.629631    15.914179     29.43731 
   68600    245.23833   -167.64395    229018.04   -21076.267    1624.3017   -22700.569    -175.2075     476.0796    78.630954    15.912718    29.455647 
   68800    238.95938     -221.355    229018.04   -21043.663     1582.714   -22626.377   -373.32525    475.50995    78.630845    15.912837    29.456057 
   69000    243.00756   -292.93599    229018.04   -21024.706    1609.5265   -22634.233   -687.11643    476.84128    78.630037    15.912337     29.44675 
   69200    243.23199   -262.49064    229018.04   -21078.689     1611.013   -22689.702   -520.11341    476.99649    78.628644    15.909209     29.45149 
   69400    235.96185   -439.36913    229018.04   -21085.762    1562.8603   -22648.623   -1230.8157    478.99736    78.628089    15.908456    29.458937 
   69600    236.92168   -319.79713    229018.04   -21090.752    1569.2176    -22659.97   -799.81557    482.42506    78.629407    15.909175    29.473863 
   69800    239.97055   -197.08454    229018.04   -21083.719    1589.4113    -22673.13   -284.86512    487.09501    78.627761    15.907312     29.51411 
   70000    238.78563   -211.72765    229018.04   -21128.944    1581.5632   -22710.507   -338.06062    491.20352    78.626576     15.90779    29.509944 
   70200    236.20212    -179.6721    229018.04   -21164.232    1564.4516   -22728.683    -217.5504    491.82395    78.627703    15.905702    29.512234 
   70400    232.82297   -250.72897    229018.04   -21147.999    1542.0704   -22690.069   -501.92145    494.65422    78.626217    15.903091     29.49537 
   70600    240.43774   -143.37938    229018.04   -21134.751    1592.5057   -22727.256   -85.101629    494.56077    78.625539    15.901984    29.487367 
   70800    233.29633   -186.97955    229018.04   -21169.335    1545.2056   -22714.541   -225.63925    495.97819    78.622907      15.9002    29.479719 
   71000    241.41735    -298.7694    229018.04   -21124.972     1598.994   -22723.966   -708.32707    500.42688    78.622865    15.896848    29.471872 
   71200    251.56682   -234.19737    229018.04   -21032.978    1666.2176   -22699.196   -404.54087    504.17522    78.621615     15.89905    29.487571 
   71400    247.05766   -284.04172    229018.04   -21078.509    1636.3518    -22714.86   -626.69416    508.20767    78.623964    15.901163    29.458593 
   71600    236.11641   -226.10837    229018.04    -21072.12     1563.884   -22636.004   -391.91426    511.08176    78.624039    15.901145    29.488543 
   71800    244.71377   -218.95097    229018.04    -21115.25    1620.8274   -22736.078   -375.09137    514.76608    78.626153    15.901546    29.479455 
   72000     243.8424   -383.71166    229018.04   -21139.211     1615.056   -22754.267   -995.18227    517.71941    78.626547    15.901222    29.473609 
   72200    241.76124   -320.08951    229018.04   -21141.344    1601.2717   -22742.616    -783.1611    519.07878    78.629614    15.899268    29.475433 
   72400    248.21958   -401.22071    229018.04   -21067.451    1644.0476   -22711.499   -1073.7482    522.24474    78.629396     15.89819    29.484332 
   72600    240.98224   -275.42975    229018.04   -21096.899    1596.1121   -22693.011   -564.42189    522.97436    78.629717    15.900264    29.491273 
   72800    236.91265   -225.77119    229018.04   -21145.033    1569.1577    -22714.19   -409.53971    520.13424    78.631201    15.899707    29.485706 
   73000    235.13969   -255.87403    229018.04   -21159.317    1557.4148   -22716.731   -516.38719    518.52659    78.632325    15.903711    29.484437 
   73200    248.85273   -341.74695    229018.04   -21057.028    1648.2412   -22705.269   -861.55082     522.4383    78.631252    15.904008     29.51278 
   73400    241.55635   -197.16045    229018.04   -21055.399    1599.9146   -22655.313   -293.64808    527.49366    78.631322     15.90531    29.528351 
   73600    238.52732   -282.37764    229018.04   -21108.698    1579.8523    -22688.55   -616.75391     533.4864    78.633486    15.905197    29.544325 
   73800    239.32067   -329.84232    229018.04   -21053.605    1585.1069   -22638.712   -786.92958     538.2964    78.634704    15.906089     29.55166 
   74000    239.86714   -374.39917    229018.04   -20975.731    1588.7264   -22564.457   -1020.5362     539.7546    78.633268     15.90558    29.556823 
   74200    239.33029    -460.4792    229018.04   -21044.868    1585.1707   -22630.038   -1323.7217    541.56328    78.634497    15.907471    29.558111 
   74400    242.35624   -282.59968    229018.04   -21083.251    1605.2126   -22688.464   -638.88979    543.04873    78.637074    15.904641    29.566826 
   74600    237.86387   -437.86229    229018.04   -21122.741     1575.458   -22698.199   -1264.3787    544.16171     78.63981    15.906185    29.553194 
   74800    238.36513   -68.724387    229018.04   -21069.781    1578.7781   -22648.559    157.26094    545.50124    78.641756    15.905763    29.534595 
   75000    239.42279   -376.74624    229018.04   -21086.178    1585.7833   -22671.961    -995.7815    547.50186    78.641655    15.905474    29.527736 
   75200    242.90124    -426.4723    229018.04   -21082.245    1608.8223   -22691.067   -1170.7821    548.80714    78.643751     15.90731    29.502673 
   75400    242.19236   -243.10259    229018.04   -21025.289    1604.1271   -22629.416   -519.52804    548.91258    78.644566    15.907054     29.49526 
   75600    240.85649   -264.13534    229018.04   -21056.237    1595.2792   -22651.516   -547.84046    548.97328    78.643965    15.908752    29.483502 
   75800    238.59074   -347.38078    229018.04   -21097.482    1580.2724   -22677.755   -874.55156    550.03308    78.644883    15.906066    29.488834 
   76000    239.11274   -352.11163    229018.04   -21141.617    1583.7297   -22725.346   -874.47106    553.49701    78.645166    15.902995     29.50745 
   76200    233.72722   -280.88495    229018.04   -21150.528    1548.0595   -22698.588   -603.20788    557.36916    78.646681    15.902908    29.504695 
   76400    232.66818   -235.72903    229018.04    -21204.11    1541.0451   -22745.155   -447.23525    561.33553    78.646675    15.901307    29.506287 
   76600    239.36744   -186.56118    229018.04   -21139.982    1585.4167   -22725.398    -241.1868    562.18233    78.648033    15.901508    29.497677 
   76800    245.68519   -286.93866    229018.04   -21037.007    1627.2614   -22664.269   -632.86897    564.92494     78.64765    15.900747    29.492585 
   77000    235.56935   -298.37095    229018.04    -21171.42    1560.2606    -22731.68   -654.69719    567.58021     78.64658    15.899295    29.481756 
   77200    236.23808   -416.41278    229018.04   -21187.622    1564.6898   -22752.312   -1140.4411    569.36779    78.646103    15.898578    29.478476 
   77400    236.28945   -255.09811    229018.04    -21140.71    1565.0301    -22705.74   -508.65658    568.39399     78.64673    15.900132    29.461743 
   77600    234.11564   -177.81608    229018.04   -21102.599    1550.6322   -22653.231   -200.99354    566.28786    78.646382    15.902305    29.472254 
   77800     241.4953   -365.44008    229018.04   -21159.672    1599.5103   -22759.182   -911.82074    564.87365    78.644088    15.904001    29.477201 
   78000    236.98329   -229.16847    229018.04   -21189.892    1569.6256   -22759.518   -420.52081    562.23882    78.643513    15.906855      29.5055 
   78200    242.50066   -401.68092    229018.04   -21121.279    1606.1691   -22727.448   -1052.5638    565.69101    78.643469    15.908669    29.513152 
   78400    234.24578   -342.67378    229018.04   -21123.135    1551.4941    -22674.63   -844.21222    568.87363    78.641085    15.907515     29.52256 
   78600    237.32414   -216.99393    229018.04   -21171.279    1571.8832   -22743.163   -332.16171    572.77322    78.640504    15.908416    29.524256 
   78800    233.66996   -280.53237    229018.04   -21107.308    1547.6803   -22654.988   -606.52166    575.74473    78.641947     15.90831    29.531142 
   79000    243.89674   -343.88531    229018.04   -21082.346    1615.4159   -22697.762   -885.48909    577.66947    78.642524    15.908724    29.525649 
   79200    236.30292   -286.23194    229018.04   -21111.074    1565.1193   -22676.194   -642.44656    580.14094    78.642122    15.909573    29.511331 
   79400    236.47162   -255.42399    229018.04   -21155.044    1566.2366   -22721.281   -487.79279    581.00232    78.640403    15.906085    29.502566 
   79600       241.26   -227.81869    229018.04   -21139.516    1597.9518   -22737.468    -366.0873    583.03197    78.639381    15.907096    29.485034 
   79800    239.12117   -284.93847    229018.04   -21148.333    1583.7856   -22732.119   -642.66877    581.72753    78.640427    15.904878    29.488957 
   80000    235.65616    -218.9989    229018.04   -21167.787    1560.8356   -22728.622   -366.31938    581.97882    78.640999    15.903157    29.514224 
   80200     236.9338    -388.7079    229018.04   -21129.389    1569.2978   -22698.687    -1045.891    581.35564    78.643374    15.900111    29.509543 
   80400    232.18794   -495.34211    229018.04   -21193.057    1537.8643   -22730.921   -1451.2492     582.4064    78.645396    15.899771    29.528613 
   80600    245.01526   -230.03342    229018.04    -21011.68    1622.8243   -22634.505   -422.20762    581.78647    78.648021    15.900129    29.526555 
   80800    238.49902   -449.28553    229018.04   -21089.649    1579.6648   -22669.314   -1285.4901    580.76616    78.648809    15.902073    29.523274 
   81000    241.01966   -212.02768    229018.04   -21040.715      1596.36   -22637.075   -340.03155    580.73831     78.64771    15.905655    29.499381 
   81200    242.13659   -337.79075    229018.04   -21052.579    1603.7578   -22656.336   -804.38811    585.39535    78.646783    15.906362    29.500545 
   81400    236.48256   -379.88978    229018.04   -21120.489    1566.3091   -22686.799   -981.08046    587.24261    78.646023      15.9067    29.488193 
   81600    244.81456   -260.76281    229018.04   -21010.151     1621.495   -22631.645   -514.33271    584.71897    78.644616    15.902766    29.485053 
   81800    243.64888   -297.06164    229018.04   -21030.506    1613.7742    -22644.28   -684.46667    581.39215     78.64658    15.901755    29.483077 
   82000    248.43207   -366.91213    229018.04   -21012.353     1645.455   -22657.808   -928.35424    581.47071    78.644646    15.902749    29.479292 
   82200    244.39471   -404.93962    229018.04   -21138.745    1618.7141   -22757.459   -1101.9988    583.27488     78.64661    15.901224    29.472179 
   82400    237.38279   -294.50389    229018.04   -21173.536    1572.2717   -22745.808   -693.09068    585.85719    78.646239     15.90355    29.467926 
   82600    245.48149   -298.34417    229018.04   -21148.148    1625.9123    -22774.06   -697.83079    587.65513    78.644538    15.904878    29.459622 
   82800    245.53827   -161.33142    229018.04    -21139.64    1626.2884   -22765.929   -134.07246    582.61607    78.644354    15.905688    29.435051 
   83000    243.38874   -395.05668    229018.04   -21156.944    1612.0513   -22768.995   -1073.6267    578.48384     78.64532     15.90425    29.448577 
   83200    242.03083   -391.12683    229018.04    -21157.86    1603.0573   -22760.918   -1055.1334    579.17245    78.645146     15.90527    29.453022 
   83400    233.63559   -307.09141    229018.04   -21150.955    1547.4526   -22698.407   -693.01971    579.96272     78.64412    15.907512    29.447703 
   83600    238.40642   -368.38241    229018.04   -21107.767    1579.0515   -22686.819   -959.20577    578.61831    78.643411    15.908366    29.450585 
   83800     237.0863   -291.56353    229018.04   -21145.698    1570.3079   -22716.006   -631.02422    576.72977    78.642418    15.909408    29.467267 
   84000     241.4123   -217.26936    229018.04   -21164.155    1598.9605   -22763.115   -360.67891    577.24145    78.643547    15.908543    29.480682 
   84200    232.86873   -218.31824    229018.04   -21159.959    1542.3734   -22702.333   -385.92959    579.81507    78.644639    15.907321     29.51182 
   84400    231.74497   -157.16283    229018.04   -21066.848    1534.9304   -22601.778   -153.30701    581.84106    78.646832     15.90829    29.527319 
   84600    237.39553   -344.39791    229018.04    -21091.81     1572.356   -22664.166   -868.22349    581.69164    78.648149    15.909232    29.516825 
   84800    240.24264   -186.20207    229018.04   -21194.876    1591.2135   -22786.089   -212.91586    581.05093     78.64696    15.911348    29.503345 
   85000    235.68389   -325.24902    229018.04   -21138.967    1561.0192   -22699.986   -797.20458    582.20741    78.645733    15.911557    29.520788 
   85200     240.4898   -356.14192    229018.04   -21065.416    1592.8505   -22658.266    -896.9777    581.53798     78.64592    15.911979    29.504513 
   85400    239.75826   -207.05495    229018.04   -21101.476    1588.0053   -22689.481   -314.71231    585.27117    78.646957    15.914191    29.512705 
   85600    237.72664   -374.36113    229018.04   -21062.739    1574.5491   -22637.288   -989.22418    586.50769    78.646615    15.916934    29.516452 
   85800     240.1562   -358.03139    229018.04   -21118.205    1590.6409   -22708.846   -917.48193    585.49444    78.646087    15.916847    29.538035 
   86000    246.06851   -216.50284    229018.04   -21074.013    1629.8003   -22703.813   -362.86483    588.45354     78.64743    15.918495    29.560601 
   86200    239.85512   -282.95799    229018.04   -21131.908    1588.6468   -22720.555   -637.26434    591.80478    78.646715    15.916243    29.558211 
   86400    241.49206   -368.67915    229018.04   -21122.175    1599.4888   -22721.664   -941.49788    595.38992    78.645694    15.914993    29.542291 
   86600    239.55354   -272.21928    229018.04   -21087.893    1586.6493   -22674.542    -586.3616    594.90879    78.647718    15.912867     29.53148 
   86800    237.20348   -360.79461    229018.04   -21146.353     1571.084   -22717.437   -931.97313    595.98105     78.64541    15.913794    29.569034 
   87000    233.91983   -215.00985    229018.04   -21175.672    1549.3352   -22725.008   -366.88043    596.49549    78.644447    15.916882     29.57986 
   87200    235.29588   -365.66922    229018.04   -21107.452    1558.4493   -22665.901    -963.4062    598.90167    78.643557    15.917659    29.567557 
   87400    241.24558   -208.66635    229018.04   -21105.414    1597.8563    -22703.27   -315.98663    599.09648    78.641653    15.917366    29.580135 
   87600    244.77359   -339.13983    229018.04   -21073.483    1621.2236   -22694.707   -821.23051    596.75122    78.641566    15.919068     29.58446 
   87800    235.38067   -301.41374    229018.04   -21229.535    1559.0109   -22788.546   -719.54274    595.62859     78.64232    15.919627    29.595641 
   88000    244.32445   -221.30446    229018.04   -21048.957    1618.2488   -22667.206   -364.62946    596.47549    78.643182    15.919514    29.582285 
   88200    245.98382   -362.71519    229018.04   -21062.511    1629.2394    -22691.75   -941.62552    596.52443    78.643788     15.91958    29.592508 
   88400     240.0346   -93.548696    229018.04   -21120.429    1589.8355   -22710.264    126.38987    598.48353    78.643125    15.919114    29.583476 
   88600    240.42572   -400.97374    229018.04   -21199.939    1592.4261   -22792.365   -1104.1054    596.93007    78.643604    15.921606    29.581059 
   88800     235.3108   -258.21392    229018.04   -21228.138    1558.5481   -22786.686   -486.54684    597.17107    78.643678    15.919878    29.573924 
   89000    235.62445   -190.06857    229018.04    -21253.71    1560.6255   -22814.336   -242.48261    601.23986    78.643306    15.918539    29.553894 
   89200     236.6331   -382.83161    229018.04   -21175.038    1567.3062   -22742.344   -1021.8901    601.77124    78.641175    15.915453    29.536373 
   89400    242.73158   -398.42521    229018.04   -21145.391    1607.6986    -22753.09   -1100.8251    600.99525    78.642023    15.916234     29.52432 
   89600    227.49637   -258.32594    229018.04   -21275.406    1506.7903   -22782.196   -509.97902    598.88605      78.6427    15.915878    29.520022 
   89800    240.18702   -394.10172    229018.04   -21168.486    1590.8451   -22759.331   -1075.5711     599.2243    78.643279    15.911186    29.513906 
   90000    238.78691   -309.28006    229018.04   -21142.451    1581.5717   -22724.023   -713.59011    598.77948    78.642829    15.908498    29.508974 
   90200    242.50768   -178.08372    229018.04   -21197.381    1606.2157   -22803.597   -170.75536        599.8     78.64126    15.906756     29.49781 
   90400    235.00777   -419.00341    229018.04   -21228.995     1556.541   -22785.536   -1136.0519    604.28762     78.64135    15.903542    29.515812 
   90600    239.04967   -247.97878    229018.04   -21226.098     1583.312    -22809.41   -454.63701    602.85595    78.638107    15.902644    29.498567 
   90800    240.55852   -349.39368    229018.04   -21088.177    1593.3056   -22681.482   -890.74412    602.99205    78.636086    15.901831    29.515049 
   91000    237.59818   -353.11361    229018.04   -21153.819    1573.6983   -22727.517   -900.58049     602.4485    78.636121    15.899994    29.497577 
   91200    232.49693    -607.5699    229018.04    -21152.52    1539.9108   -22692.431   -1882.5711    607.98317    78.636063    15.900402    29.488383 
   91400    237.13457   -378.33297    229018.04   -21117.765    1570.6276   -22688.392   -947.38459    605.71699    78.634771    15.898429    29.463816 
   91600    241.78683   -300.34918    229018.04   -21094.731    1601.4412   -22696.172   -688.91571    607.94034    78.634679    15.897865    29.478615 
   91800    245.52567   -302.50336    229018.04   -21101.662    1626.2049   -22727.867   -685.50679    606.97418    78.635806     15.89849    29.485668 
   92000    238.94092   -273.09205    229018.04   -21137.033    1582.5917   -22719.625   -595.04739    607.03911    78.634555    15.899656    29.501292 
   92200    238.93703   -237.64091    229018.04     -21107.6     1582.566   -22690.166   -471.56459    604.82011    78.634315    15.898461    29.505211 
   92400    249.61015     -237.702    229018.04   -21087.986    1653.2578   -22741.244   -419.82128    610.25142    78.633378    15.899115    29.503622 
   92600    243.72925   -336.41693    229018.04   -21105.433    1614.3066    -22719.74   -858.16941    614.08398    78.632923    15.902061    29.531207 
   92800    236.61677   -286.21144    229018.04   -21217.118     1567.198   -22784.316   -642.78994    618.72771    78.635363     15.90416    29.538965 
   93000    230.72578     -429.266    229018.04   -21205.159    1528.1799   -22733.339   -1149.3283    622.74277    78.635337     15.90188    29.545567 
   93200    248.60034   -275.57154    229018.04   -21118.048    1646.5695   -22764.618   -589.20046    623.47324    78.635842    15.903001    29.552089 
   93400    230.89172   -260.62318    229018.04   -21204.927     1529.279   -22734.206   -547.09819    622.75318    78.636393    15.905171    29.555493 
   93600    238.64337   -194.38365    229018.04   -21222.837    1580.6209   -22803.458   -303.18962    621.37128    78.636088    15.904384     29.54725 
   93800    242.22946   -561.17226    229018.04   -21129.581    1604.3729   -22733.954   -1690.3859    626.89367    78.635337    15.903198    29.547282 
   94000    244.17786   -268.85504    229018.04   -21160.686    1617.2779   -22777.964    -540.2259    624.73961    78.634443    15.902497    29.548567 
   94200    240.24894   -210.61433    229018.04   -21173.364    1591.2552   -22764.619   -328.40291    627.11209    78.635401    15.900104    29.535464 
   94400    240.22633   -233.05259    229018.04   -21078.146    1591.1055   -22669.251   -450.55836    626.77687    78.637006     15.89904    29.537474 
   94600    236.02475   -252.41944    229018.04   -21127.264    1563.2769   -22690.541   -512.90388    624.17688    78.637311    15.895279    29.522181 
   94800    247.12669   -328.12027    229018.04    -21045.78     1636.809   -22682.589   -814.54341    627.23842     78.63658    15.894302    29.522196 
   95000    246.34812    -369.4212    229018.04   -21086.646    1631.6522   -22718.298   -976.73085    631.07515    78.635621    15.895659    29.515398 
   95200    239.61908   -213.78361    229018.04     -21170.7    1587.0834   -22757.784   -349.69403    632.20321    78.635931    15.895642    29.507117 
   95400    236.21226   -310.40747    229018.04   -21164.776    1564.5188   -22729.295   -728.91824    636.01325    78.636017    15.900055    29.508362 
   95600    242.42839   -239.08263    229018.04   -21147.003    1605.6905   -22752.693   -428.87376    636.50684    78.633967    15.901704    29.522286 
   95800    241.38188   -363.46622    229018.04   -21108.604    1598.7591   -22707.363   -916.26611    636.82088    78.632857    15.903261     29.52797 
   96000    238.18142   -330.75414    229018.04   -21180.469    1577.5613    -22758.03   -804.75893    635.44552    78.633723    15.904435    29.531884 
   96200    233.27472   -289.17529    229018.04   -21225.051    1545.0624   -22770.113   -648.48447     634.2008    78.636314     15.90783    29.535126 
   96400    246.09232   -360.91236    229018.04   -21117.932     1629.958    -22747.89    -919.0419     635.0041    78.638055    15.908753    29.538897 
   96600    238.20757   -205.78196    229018.04   -21198.964    1577.7345   -22776.699     -339.071    635.74085    78.637572    15.908298    29.534336 
   96800    235.38391   -427.91386    229018.04   -21141.577    1559.0324   -22700.609   -1208.7419    636.59674    78.637969    15.905568    29.532762 
   97000     237.4967    -208.0069    229018.04   -21101.281    1573.0262   -22674.307   -306.32785    637.56457    78.639537    15.905812    29.567902 
   97200    247.15664   -530.97273    229018.04   -21060.451    1637.0074   -22697.458   -1598.5322    638.15576    78.637852    15.906262    29.581259 
   97400    243.73505   -220.16107    229018.04   -21090.778     1614.345   -22705.123   -367.10108    637.92547    78.638351    15.903741    29.571601 
   97600    240.29844   -227.21737    229018.04   -21143.801     1591.583   -22735.384   -406.68386    642.25763    78.639709    15.903648    29.539102 
   97800    234.38153   -196.24534    229018.04   -21227.042    1552.3932   -22779.435   -293.23933    644.05746    78.639045    15.902573    29.528658 
   98000    224.20201   -320.65159    229018.04   -21321.917    1484.9706   -22806.887   -773.66467    642.10454    78.637388    15.903959    29.540284 
   98200    234.39817   -261.21508    229018.04   -21277.432    1552.5034   -22829.936   -527.92316    645.15891    78.638515    15.905496    29.543899 
   98400     239.4451   -260.57961    229018.04   -21223.023    1585.9311   -22808.954   -532.20064    648.75748     78.63797    15.907375    29.543179 
   98600    237.27139   -185.27465    229018.04   -21146.115    1571.5338   -22717.649   -220.23152    653.42922     78.63716    15.911293    29.554595 
   98800    246.50891   -206.60864    229018.04   -21051.906    1632.7173   -22684.623   -309.81612    656.97607    78.636518    15.909567    29.553784 
   99000    248.70152   -296.74576    229018.04   -21026.151    1647.2397   -22673.391   -647.58474    659.73453    78.635201    15.911588    29.548256 
   99200    240.15591   -219.09061    229018.04   -21085.125     1590.639   -22675.764   -380.48628    662.56729    78.635811    15.909775    29.546398 
   99400    239.54514   -251.04522    229018.04   -21135.636    1586.5937   -22722.229   -507.39244    660.40998    78.636906    15.907729    29.539162 
   99600    238.19846   -490.83924    229018.04   -21070.811    1577.6742   -22648.485   -1392.1125    659.44043    78.637976    15.907711    29.539238 
   99800    243.73785   -377.60451    229018.04   -21083.067    1614.3635   -22697.431   -1008.0913    658.52773    78.639001    15.908461    29.535634 
  100000    235.22286   -238.36829    229018.04   -21104.499    1557.9656   -22662.464   -476.88982    659.34625    78.639545    15.908751    29.529769 
  100200    245.19659   -62.344627    229018.04   -21048.143    1624.0253   -22672.169    257.74066    656.74984    78.637627    15.909246    29.516678 
  100400    248.08233    -342.7504    229018.04   -21044.272    1643.1386   -22687.411   -849.86323    659.17449    78.637338    15.907502    29.513993 
  100600    242.79962   -311.53959    229018.04   -21146.311    1608.1493    -22754.46   -750.98525    658.34642    78.637603    15.905218     29.52551 
  100800    242.91761   -164.69024    229018.04   -21101.907    1608.9308   -22710.837   -207.30141    656.63098     78.63846    15.905957    29.551825 
[...]
 5175800    231.65917   -358.65455    229018.04   -23291.476    1534.3621   -24825.838    -912.0001    7277.5768    79.078812    17.105271    29.813765 
 5176000    220.62843   -262.44429    229018.04   -23421.813    1461.3015   -24883.115   -563.72613    7275.6871    79.078911    17.106738    29.807558 
 5176200    219.47744   -324.74496    229018.04   -23410.919    1453.6781   -24864.597   -783.64309    7277.5421    79.078633    17.107424    29.826214 
 5176400    217.74863   -350.05813    229018.04   -23363.984    1442.2276   -24806.211   -885.28726     7276.564    79.078667    17.109154    29.812299 
 5176600    228.30138   -283.02022    229018.04   -23318.233    1512.1222   -24830.356   -644.45332    7277.7261    79.078158    17.110134    29.816328 
 5176800    227.27328   -273.99116    229018.04   -23379.188    1505.3128   -24884.501   -582.81918     7274.432    79.078782    17.111266    29.810427 
 5177000    228.39175   -336.54965    229018.04   -23279.821    1512.7208   -24792.542   -872.96755    7275.5433    79.077531    17.111312    29.836589 
 5177200    225.43703    -357.6119    229018.04   -23273.565    1493.1506   -24766.716   -937.86624    7277.3729     79.07902      17.1117    29.844037 
 5177400    228.33561   -263.07682    229018.04   -23321.747     1512.349   -24834.096   -537.36983    7277.8008    79.079307    17.110554    29.849025 
 5177600    228.26362    -294.1898    229018.04   -23317.834    1511.8721   -24829.707   -698.45719    7276.8262    79.079312    17.110552    29.845355 
 5177800    226.60514    -316.6062    229018.04    -23287.89    1500.8874   -24788.777   -772.25999    7276.8306    79.080074    17.110181    29.857355 
 5178000    224.81856   -208.66626    229018.04   -23380.914    1489.0543   -24869.969   -356.81294    7276.0003    79.081178    17.108979    29.857133 
 5178200    222.13497   -346.81777    229018.04    -23376.14    1471.2798    -24847.42    -875.2626    7276.7227    79.081021    17.108702    29.858369 
 5178400    228.75454   -378.39371    229018.04   -23279.674    1515.1237   -24794.797   -969.17424    7275.5149    79.079073    17.109254      29.8589 
 5178600    229.88901    -343.0745    229018.04   -23334.487    1522.6376   -24857.124   -888.73281    7278.7774    79.079444    17.108395    29.850253 
 5178800    222.65826    -366.9747    229018.04   -23300.322    1474.7458   -24775.068   -954.20169    7275.7972    79.080464     17.10761    29.839457 
 5179000    237.13578   -244.63068    229018.04   -23272.002    1570.6356   -24842.637   -496.22996    7273.0881    79.080235    17.107285    29.846448 
 5179200    230.02152   -359.10306    229018.04   -23329.379    1523.5153   -24852.894   -921.22256    7276.8556    79.080127    17.108542     29.84818 
 5179400    223.34252   -361.80074    229018.04   -23345.193    1479.2779   -24824.471   -931.76428    7278.1839    79.081098    17.107598    29.836637 
 5179600    231.81668   -285.30319    229018.04   -23323.802    1535.4053   -24859.208   -656.01314    7273.5462    79.080086    17.107252     29.84399 
 5179800    226.18781   -407.95085    229018.04    -23295.19    1498.1233   -24793.314    -1101.823    7277.6935    79.079911    17.107468    29.834341 
 5180000    223.58863   -224.63699    229018.04   -23343.071     1480.908   -24823.979   -363.47117    7274.9269    79.080537    17.108049     29.81857 
 5180200    222.49526   -301.94309    229018.04   -23358.253    1473.6662   -24831.919   -749.59323     7275.563    79.081525    17.107759    29.815912 
 5180400    224.77888   -387.83984    229018.04   -23338.154    1488.7914   -24826.946   -1044.5782     7278.229    79.084002    17.108645    29.826178 
 5180600    229.86184   -248.91611    229018.04   -23360.885    1522.4577   -24883.343   -540.58615      7275.34     79.08499    17.108358    29.849907 
 5180800    220.42129   -287.42137    229018.04   -23372.599    1459.9296   -24832.529     -664.112    7275.5424    79.084556    17.109202    29.845127 
 5181000    224.59366   -437.74249    229018.04   -23321.739    1487.5646   -24809.304   -1218.7301    7278.0429    79.086354    17.107574    29.854037 
 5181200    232.22711   -309.27836    229018.04   -23287.912    1538.1237   -24826.036   -743.26044    7274.2812    79.088643    17.106548      29.8521 
 5181400    228.27372   -338.44237    229018.04   -23283.637     1511.939   -24795.576   -897.36489    7275.6996    79.089814    17.105982    29.846582 
 5181600     224.0238   -365.67044    229018.04   -23279.855    1483.7902   -24763.645   -903.47228    7276.9531    79.091313    17.104946    29.848954 
 5181800    226.70011   -309.20162    229018.04   -23381.393    1501.5164   -24882.909   -745.72928    7274.7563    79.089412    17.105059    29.858704 
 5182000    222.98265   -225.43485    229018.04   -23372.378    1476.8944   -24849.273   -392.87365    7276.6159    79.089617     17.10465    29.858389 
 5182200    226.38533   -313.99604    229018.04   -23290.585    1499.4316   -24790.016   -725.37475    7275.5629     79.08972    17.103877    29.855004 
 5182400    226.55463   -338.70061    229018.04   -23293.704    1500.5528   -24794.257   -851.17577    7276.6314    79.091001    17.104715    29.847887 
 5182600    230.01248    -247.2148    229018.04   -23266.797    1523.4554   -24790.253   -486.13331    7276.1934    79.090868     17.10431     29.83765 
 5182800    225.65228   -351.55785    229018.04   -23265.418    1494.5762   -24759.995   -891.80965    7278.9938     79.09219    17.104243    29.826592 
 5183000    229.63142   -280.38759    229018.04   -23272.934    1520.9315   -24793.866   -619.86778    7275.7239    79.092658    17.103662    29.838652 
 5183200    231.23075   -195.30936    229018.04   -23276.627    1531.5245   -24808.151   -298.83623    7275.0127    79.094259    17.102895    29.847437 
 5183400    232.04808   -398.40345    229018.04   -23303.065     1536.938   -24840.003   -1088.1554    7277.5649    79.096942     17.10038    29.838663 
 5183600     229.2147   -282.87912    229018.04   -23284.466    1518.1715   -24802.637   -659.73795    7275.1471    79.098054    17.100022    29.843352 
 5183800    225.75836   -320.51761    229018.04   -23349.262    1495.2789   -24844.541   -748.58292    7275.5476    79.098921    17.100554    29.838336 
 5184000    224.45412   -414.95658    229018.04   -23309.519    1486.6404   -24796.159   -1158.5305    7280.4612    79.101124    17.099348    29.832761 
 5184200    227.49874   -321.32301    229018.04    -23319.94     1506.806   -24826.746   -771.23291    7275.7645    79.102533    17.095391    29.837974 
 5184400     229.8012   -298.03916    229018.04   -23289.265     1522.056   -24811.321   -717.12652    7277.3029    79.101317    17.094985    29.843898 
 5184600    227.51809   -354.30493    229018.04   -23291.762    1506.9342   -24798.697    -906.3555    7278.8229    79.102188     17.09444    29.845343 
 5184800    227.99769    -364.1336    229018.04   -23269.107    1510.1107   -24779.218   -952.14191    7278.5842    79.101356     17.09357     29.83773 
 5185000    226.46043   -285.17266    229018.04   -23272.175    1499.9289   -24772.104   -627.70269    7276.3851     79.10328    17.093947    29.842624 
 5185200    228.70393   -292.77403    229018.04   -23297.306    1514.7884   -24812.094    -669.0464    7276.8401    79.104685    17.093528    29.845011 
 5185400    217.92161   -304.32934    229018.04   -23324.301    1443.3733   -24767.674   -712.27375    7277.3065    79.106722    17.092367    29.836653 
 5185600    223.90852   -234.00164    229018.04   -23284.435    1483.0267   -24767.461   -456.84833    7276.1774    79.107398    17.095295    29.827077 
 5185800    227.87047   -382.93359    229018.04   -23190.588    1509.2681   -24699.856   -1014.4151    7279.3438    79.108277    17.097073    29.824588 
 5186000    228.37308   -347.71876    229018.04   -23239.347    1512.5971   -24751.944   -903.76609     7277.338    79.108988    17.096904    29.826119 
 5186200     221.6543   -361.54823    229018.04   -23304.277    1468.0962   -24772.374   -955.44824    7276.9842    79.109106    17.097217    29.833602 
 5186400    227.36525   -333.92124    229018.04   -23329.692    1505.9219   -24835.613   -814.42187    7276.2291    79.111898    17.097135    29.840602 
 5186600    227.15349   -346.58365    229018.04   -23258.789    1504.5193   -24763.308     -895.546    7279.5773    79.112952    17.095565    29.848232 
 5186800    228.44826   -370.27938    229018.04   -23276.499     1513.095   -24789.594   -980.69317     7278.979    79.114128     17.09355    29.834813 
 5187000     230.6793   -197.63904    229018.04   -23273.836     1527.872   -24801.708   -271.58807    7273.0906    79.115637    17.092583    29.835724 
 5187200    228.37311    -360.3956    229018.04   -23286.948    1512.5973   -24799.545   -925.04755    7278.4305     79.11709    17.092203    29.832111 
 5187400    223.26221   -369.29684    229018.04   -23259.446     1478.746   -24738.192   -1005.6393    7278.9809      79.1166    17.091089    29.827597 
 5187600    227.38122   -171.01337    229018.04   -23289.544    1506.0277   -24795.572    -188.4589      7271.32     79.11513    17.091694     29.82731 
 5187800    224.99679   -417.61807    229018.04   -23270.895    1490.2348   -24761.129   -1145.5955    7278.7262    79.115336    17.092117    29.827322 
 5188000    227.35321   -278.65018    229018.04   -23283.126    1505.8422   -24788.968   -579.69236    7276.6446      79.1148    17.092694    29.824489 
 5188200    228.11154   -228.18237    229018.04   -23264.303    1510.8648   -24775.168   -429.80542    7274.5886    79.114675    17.092757    29.825521 
 5188400    224.93558   -400.82823    229018.04   -23302.625    1489.8293   -24792.454   -1075.7138    7276.0159    79.115439    17.093159    29.828003 
 5188600    232.06651   -385.00007    229018.04   -23237.613      1537.06   -24774.673   -1017.3301    7277.7242    79.115066    17.093838    29.827369 
 5188800    228.48574   -196.95135    229018.04   -23278.585    1513.3433   -24791.929   -296.23881    7275.0866    79.115271    17.095032    29.830554 
 5189000    225.76882   -308.93421    229018.04   -23270.009    1495.3481   -24765.357   -741.57506     7276.444    79.116804    17.094708    29.838204 
 5189200    230.76896   -348.65435    229018.04   -23285.416    1528.4659   -24813.882   -851.15714    7276.7243    79.118595     17.09545    29.830246 
 5189400    228.57435   -366.04635    229018.04    -23251.54    1513.9302    -24765.47   -987.84494    7277.0987    79.121295    17.095191    29.822104 
 5189600     223.9135   -376.46349    229018.04   -23242.455    1483.0597   -24725.515   -987.22303    7275.2912    79.123023    17.095112    29.818678 
 5189800    228.76776   -364.73089    229018.04   -23297.502    1515.2112   -24812.713   -945.00679    7277.3291    79.122612    17.096226     29.81025 
 5190000    229.30034   -337.82847    229018.04   -23269.106    1518.7387   -24787.845   -826.07367    7277.8161    79.123725    17.096285    29.816931 
 5190200    229.59007   -363.27051    229018.04   -23259.836    1520.6577   -24780.494   -925.94294    7275.3633    79.124279    17.097316    29.814462 
 5190400    225.77248   -274.23738    229018.04   -23289.683    1495.3724   -24785.055   -597.15251    7273.9798    79.124708    17.098659    29.826978 
 5190600    231.06188   -279.39606    229018.04   -23266.363     1530.406   -24796.769   -595.20113    7277.1316    79.124442    17.097945    29.824233 
 5190800    230.28065   -290.09577    229018.04    -23269.95    1525.2316   -24795.182   -633.64807    7277.4803     79.12369    17.095994    29.823151 
 5191000    218.91209   -347.34961    229018.04   -23376.052    1449.9335   -24825.986    -884.3087    7273.9408    79.124582    17.096829    29.814445 
 5191200    225.15116    -269.5632    229018.04   -23298.377    1491.2572   -24789.634   -556.89118    7276.7314    79.124253    17.096686     29.82583 
 5191400    224.61991   -342.67257    229018.04   -23261.737    1487.7385   -24749.475   -879.05306    7275.6555    79.124588    17.097212    29.821705 
 5191600    219.18302   -403.85794    229018.04   -23272.239     1451.728   -24723.967   -1121.8007    7275.3446    79.125748    17.098493    29.802796 
 5191800    229.05601   -232.60886    229018.04   -23236.552    1517.1204   -24753.672   -424.27496    7273.8682    79.127567    17.098181    29.799974 
 5192000    233.10098    -348.9774    229018.04   -23231.163    1543.9117   -24775.074   -923.70467    7277.1272    79.128671    17.098683    29.789913 
 5192200    225.16722   -385.32026    229018.04   -23269.717    1491.3635    -24761.08   -983.92331    7278.3856    79.130627    17.097555    29.786949 
 5192400    222.75827   -304.35506    229018.04   -23327.548    1475.4082   -24802.957   -745.04985    7274.7076    79.132144    17.098709    29.797505 
 5192600    223.13947   -347.59635    229018.04   -23327.092     1477.933   -24805.026   -873.33752    7276.3515    79.133942    17.097736    29.806077 
 5192800    229.16899   -305.85361    229018.04   -23250.091    1517.8687    -24767.96   -701.84989    7275.0703    79.137125    17.094411    29.800428 
 5193000    227.15045   -282.54314    229018.04    -23284.69    1504.4992   -24789.189   -630.39501    7274.1364    79.138202    17.093394    29.804977 
 5193200     225.1979   -247.81105    229018.04   -23285.057    1491.5667   -24776.624   -502.20987    7272.6295    79.137914    17.093023    29.803567 
 5193400     225.4969   -316.16925    229018.04   -23247.932    1493.5472   -24741.479   -756.36999    7274.5273    79.141008    17.092158    29.796865 
 5193600    223.20711   -371.87952    229018.04   -23295.659     1478.381    -24774.04   -961.46418    7275.3394    79.142352    17.091259    29.779763 
 5193800    227.07741   -209.17251    229018.04    -23308.32    1504.0154   -24812.335   -319.90708    7273.5927    79.145302    17.090476    29.783042 
 5194000    227.37297   -361.69753    229018.04   -23291.455     1505.973   -24797.428   -946.79654    7275.7443    79.146626    17.090113    29.797611 
 5194200    225.20722    -339.6572    229018.04   -23270.775    1491.6285   -24762.403   -811.15171    7274.2796    79.147262    17.089907    29.809525 
 5194400    220.04989   -292.18896    229018.04   -23279.656    1457.4696   -24737.125   -689.66429    7272.9511    79.150495    17.090533     29.80307 
 5194600    224.15364   -463.58816    229018.04   -23311.399    1484.6502    -24796.05   -1333.7328    7274.4653     79.15092     17.09022    29.799396 
 5194800    223.69932   -326.48987    229018.04   -23331.034    1481.6411   -24812.675   -814.77324    7276.6849    79.152346    17.090472    29.781533 
 5195000    232.10671   -365.59377    229018.04   -23242.712    1537.3263   -24780.038    -963.7686     7273.025    79.154007    17.090038    29.785337 
 5195200    220.86656   -447.36635    229018.04   -23291.716    1462.8787   -24754.594   -1256.2536    7275.8718    79.154829    17.089169     29.78981 
 5195400    227.19902   -239.36257    229018.04   -23221.785    1504.8209   -24726.606   -445.24178    7272.5367    79.157268    17.088894    29.787003 
 5195600    231.22989    -315.6979    229018.04   -23273.613    1531.5188   -24805.131   -743.39957    7274.7709    79.158212    17.090824    29.784942 
 5195800    227.62204   -430.69535    229018.04   -23231.608    1507.6227    -24739.23   -1152.0613    7277.1189    79.157242    17.091393    29.785853 
 5196000    225.71626   -199.07742    229018.04    -23235.21    1495.0001    -24730.21   -295.67413    7271.6736    79.159929    17.090078    29.779133 
 5196200      232.677     -301.945    229018.04   -23204.928    1541.1035   -24746.032   -691.46586    7278.0076    79.160443    17.088823    29.789354 
 5196400     226.0432   -423.29596    229018.04   -23257.546    1497.1654   -24754.712   -1176.2073    7275.3126     79.16222    17.087333    29.788462 
 5196600    221.14862   -225.66661    229018.04   -23381.285    1464.7469   -24846.032   -409.65787    7271.7059    79.161872    17.085705    29.792213 
 5196800    224.15857    -419.1828    229018.04   -23278.747    1484.6829    -24763.43   -1146.8191    7278.1409    79.164444    17.083609    29.793631 
 5197000    225.69887   -495.24457    229018.04   -23311.802    1494.8849   -24806.687   -1455.2961    7277.0912    79.164674     17.08304    29.797614 
 5197200    228.57099   -212.62587    229018.04   -23211.074     1513.908   -24724.982   -353.63918    7270.6939      79.1657    17.082176     29.79992 
 5197400    224.10706   -417.18117    229018.04   -23301.303    1484.3417   -24785.645   -1176.3556    7276.6864    79.168044    17.083568    29.795272 
 5197600    230.46673   -455.14169    229018.04   -23292.906    1526.4641    -24819.37   -1332.1898    7278.3119    79.169687    17.084561    29.791267 
 5197800    233.37094   -125.87767    229018.04   -23188.675    1545.6998   -24734.375   -5.2935974    7273.8483    79.171528     17.08174    29.815443 
 5198000       231.66   -388.93545    229018.04   -23200.728    1534.3675   -24735.095   -1012.6284    7277.8797    79.173388    17.080125    29.821499 
 5198200    230.42944   -318.88326    229018.04   -23272.312    1526.2171   -24798.529   -786.54035    7277.2083    79.174436    17.080139    29.818522 
 5198400    225.05489   -197.05141    229018.04   -23285.629    1490.6196   -24776.249   -265.11825    7272.2002    79.176493    17.080409    29.818651 
 5198600    222.72995   -421.02176    229018.04   -23328.452    1475.2207   -24803.673   -1112.9462    7276.7269    79.179141    17.079354    29.815192 
 5198800    227.22706   -390.44433    229018.04   -23326.667    1505.0066   -24831.673   -1050.1196    7275.4514    79.180157    17.079201    29.806621 
 5199000    232.70647   -241.33281    229018.04   -23261.226    1541.2987   -24802.525   -474.77364    7270.2924    79.180639    17.081549     29.80528 
 5199200    229.70311   -433.41513    229018.04   -23283.487    1521.4064   -24804.893   -1179.8726    7276.0097    79.181134    17.081048    29.810075 
 5199400    225.23194   -323.69139    229018.04   -23312.278    1491.7922    -24804.07   -740.90737     7273.994    79.180943    17.080908      29.8011 
 5199600    232.93636   -270.72755    229018.04   -23273.317    1542.8214   -24816.139   -594.62669    7273.1519    79.179409    17.081599    29.785527 
 5199800    224.71978   -426.24871    229018.04   -23327.277       1488.4   -24815.677   -1184.2665    7276.1438    79.178272    17.082413    29.788448 
 5200000    226.92721   -282.92255    229018.04    -23265.14    1503.0206   -24768.161   -648.91437    7274.0845    79.175302    17.083103    29.787071 
Loop time of 7170.92 on 160 procs for 5200000 steps with 8943 atoms

Performance: 626.530 ns/day, 0.038 hours/ns, 725.151 timesteps/s
97.8% CPU use with 160 MPI tasks x no OpenMP threads

MPI task timing breakdown:
Section |  min time  |  avg time  |  max time  |%varavg| %total
---------------------------------------------------------------
Pair    | 0.24236    | 1473.6     | 5815.4     |5137.7 | 20.55
Neigh   | 0.34748    | 96.932     | 407.55     |1234.4 |  1.35
Comm    | 11.425     | 1983.2     | 5842.4     |4635.7 | 27.66
Output  | 89.389     | 89.462     | 91.466     |   1.7 |  1.25
Modify  | 218.16     | 3431.6     | 6979.3     |4902.9 | 47.85
Other   |            | 96.18      |            |       |  1.34

Nlocal:    55.8937 ave 177 max 0 min
Histogram: 72 0 47 1 0 0 0 0 4 36
Nghost:    539.112 ave 929 max 0 min
Histogram: 16 8 0 8 8 38 30 13 22 17
Neighs:    0 ave 0 max 0 min
Histogram: 160 0 0 0 0 0 0 0 0 0
FullNghs:  5604.86 ave 22237 max 0 min
Histogram: 93 27 0 0 0 0 0 2 19 19

Total # of neighbors = 896778
Ave neighs/atom = 100.277
Neighbor list builds = 550584
Dangerous builds = 0
write_data 		${DIR}/data.${NAME}_run
write_data 		run_21/data.${NAME}_run
write_data 		run_21/data.ibeam_cooling_21_run
Total wall time: 1:59:45
