
### Dimensions ###


### IMPORT ATOMS ###
read_data ../Box_Setup/data.Ibeam_240K
  orthogonal box = (0 0 0) to (157.504 36.4877 39.8503)
  10 by 4 by 4 MPI processor grid
  reading atoms ...
  8943 atoms
  reading velocities ...
  8943 velocities
group water type 2
2223 atoms in group water
group graphite type 1
6720 atoms in group graphite


# Define potential
#
pair_style          sw
pair_coeff * * MLC_e.sw C mW

# Add velocity/set timestep
#

fix		1 graphite setforce 0.0 0.0 0.0
velocity 	graphite set 0.0 0.0 0.0
velocity            water create ${START_TEMP} ${SEED} rot yes dist gaussian
velocity            water create 240 ${SEED} rot yes dist gaussian
velocity            water create 240 19938 rot yes dist gaussian
timestep            5.0

# Define output
#
compute 1 water msd
compute 2 water temp


thermo	            100
thermo_style custom step c_2 press vol etotal ke pe c_1[4] density

# Neighbor lists
#
neigh_modify        delay 0 every 1 check yes


# Set fixes
#
fix                 2 water momentum 10 linear 1 1 1 rescale
fix                 3 all nve
fix                 4 water temp/csvr ${START_TEMP} ${START_TEMP} 500.0 928347
fix                 4 water temp/csvr 240 ${START_TEMP} 500.0 928347
fix                 4 water temp/csvr 240 240 500.0 928347

# Run 0.05 ns equilibration
#
dump                1 all custom 100 ${DIR}/eq.${NAME}.dump id type x y z vx vy vz
dump                1 all custom 100 run_21/eq.${NAME}.dump id type x y z vx vy vz
dump                1 all custom 100 run_21/eq.ibeam_cooling_21.dump id type x y z vx vy vz
run                 10000
Neighbor list info ...
  update every 1 steps, delay 0 steps, check yes
  max neighbors/atom: 2000, page size: 100000
  master list distance cutoff = 6.67472
  ghost atom cutoff = 6.67472
  binsize = 3.33736, bins = 48 11 12
  1 neighbor lists, perpetual/occasional/extra = 1 0 0
  (1) pair sw, perpetual
      attributes: full, newton on
      pair build: full/bin/atomonly
      stencil: full/bin/3d
      bin: standard
Per MPI rank memory allocation (min/avg/max) = 0.463 | 3.758 | 4.742 Mbytes
Step c_2 Press Volume TotEng KinEng PotEng c_1[4] Density 
       0          240   -163.35224    229018.04   -21211.582    1589.6064   -22801.188            0   0.87555383 
     100    243.60749   -185.77818    229018.04   -21174.556    1613.5001   -22788.056   0.84496019   0.87555383 
     200    237.05154   -291.11533    229018.04   -21204.839    1570.0777   -22774.917    1.2345901   0.87555383 
     300    236.78039   -309.64767    229018.04   -21181.322    1568.2818   -22749.604     1.536638   0.87555383 
     400    238.08469    -261.2439    229018.04   -21177.804    1576.9206   -22754.725    1.9688175   0.87555383 
     500    232.82002   -314.22432    229018.04   -21175.973    1542.0508   -22718.024    2.4030258   0.87555383 
     600    231.35645    -311.3714    229018.04   -21276.312     1532.357   -22808.669    2.7327769   0.87555383 
     700    238.67511   -385.02307    229018.04   -21254.311    1580.8312   -22835.142    3.1434935   0.87555383 
     800     241.9738   -334.69436    229018.04   -21315.759    1602.6796   -22918.438    3.5359788   0.87555383 
     900    237.32808   -262.61238    229018.04   -21282.048    1571.9093   -22853.957    3.8228364   0.87555383 
    1000    237.00448   -342.35346    229018.04   -21214.893     1569.766   -22784.659    4.1266742   0.87555383 
    1100    238.97048   -419.09864    229018.04   -21229.552    1582.7875    -22812.34    4.5759367   0.87555383 
    1200    238.01898   -241.34911    229018.04   -21275.242    1576.4854   -22851.728    5.0386053   0.87555383 
    1300    238.49667    -228.7609    229018.04   -21228.631    1579.6493    -22808.28    5.1889752   0.87555383 
    1400    244.96492     -209.752    229018.04   -21167.775    1622.4908   -22790.266    5.4699853   0.87555383 
    1500    243.31523   -280.14236    229018.04   -21171.226    1611.5643   -22782.791    5.9092674   0.87555383 
    1600    240.24165   -321.44765    229018.04   -21151.972    1591.2069   -22743.179    6.1190783   0.87555383 
    1700    234.07298   -351.08365    229018.04   -21180.847    1550.3496   -22731.196    6.4140545   0.87555383 
    1800    248.11637   -361.52016    229018.04   -21196.489     1643.364   -22839.853    6.8224061   0.87555383 
    1900    244.57485   -179.71029    229018.04   -21114.834    1619.9073   -22734.741    7.1197935   0.87555383 
    2000    248.37225   -309.84569    229018.04   -21090.008    1645.0588   -22735.067     7.533878   0.87555383 
    2100    239.57625    -266.5747    229018.04   -21105.243    1586.7998   -22692.042    7.9558982   0.87555383 
    2200    245.01654   -201.03417    229018.04   -21104.771    1622.8327   -22727.603    8.0875456   0.87555383 
    2300    241.35796   -261.49383    229018.04    -21149.61    1598.6007   -22748.211    8.4165197   0.87555383 
    2400    239.64386   -345.45113    229018.04   -21154.127    1587.2475   -22741.375    8.7048891   0.87555383 
    2500    239.11589   -281.86794    229018.04    -21135.26    1583.7506    -22719.01    9.0340999   0.87555383 
    2600    241.30981   -331.39031    229018.04   -21177.339    1598.2817   -22775.621    9.2839742   0.87555383 
    2700     238.3079   -282.10242    229018.04   -21156.188     1578.399   -22734.587    9.6745704   0.87555383 
    2800    247.08132   -294.67474    229018.04   -21161.029    1636.5085   -22797.538    9.9550509   0.87555383 
    2900    240.48845   -291.39465    229018.04    -21226.49    1592.8415   -22819.331    10.219798   0.87555383 
    3000    233.84166   -223.30282    229018.04   -21243.547    1548.8175   -22792.364    10.363788   0.87555383 
    3100    238.05375   -303.19446    229018.04   -21246.443    1576.7157   -22823.159    10.491471   0.87555383 
    3200    239.13484   -378.16279    229018.04   -21268.231    1583.8761   -22852.107    10.791972   0.87555383 
    3300    236.60293   -475.95729    229018.04   -21226.266    1567.1064   -22793.373    11.056271   0.87555383 
    3400    234.76081   -390.02181    229018.04   -21225.124    1554.9054    -22780.03    11.404478   0.87555383 
    3500    235.59129   -285.86415    229018.04   -21224.078    1560.4059   -22784.484    11.726222   0.87555383 
    3600    239.96438   -239.01526    229018.04   -21219.394    1589.3705   -22808.765    12.015638   0.87555383 
    3700      233.048   -213.50165    229018.04   -21251.698    1543.5608   -22795.259    12.382164   0.87555383 
    3800    240.72383   -323.74191    229018.04    -21247.74    1594.4006    -22842.14    12.676552   0.87555383 
    3900    236.53702   -296.10997    229018.04   -21238.593    1566.6698   -22805.263    13.127442   0.87555383 
    4000     233.5643   -248.13415    229018.04   -21258.228    1546.9804   -22805.208    13.269548   0.87555383 
    4100    240.60646   -186.96708    229018.04   -21209.157    1593.6232    -22802.78    13.707867   0.87555383 
    4200    246.28764   -277.27883    229018.04   -21178.007    1631.2517   -22809.259    13.976994   0.87555383 
    4300    246.89995   -236.99013    229018.04   -21091.729    1635.3073   -22727.037    14.294219   0.87555383 
    4400    240.66926   -316.68139    229018.04   -21102.439    1594.0391   -22696.478    14.694983   0.87555383 
    4500    238.93093   -385.68974    229018.04   -21147.959    1582.5255   -22730.484     15.19874   0.87555383 
    4600    242.08126   -476.34101    229018.04   -21181.143    1603.3913   -22784.535    15.485234   0.87555383 
    4700     232.5914   -352.37257    229018.04   -21225.945    1540.5365   -22766.481    15.685751   0.87555383 
    4800    242.74572   -397.66454    229018.04   -21193.715    1607.7923   -22801.508     16.03498   0.87555383 
    4900    240.39405    -267.2729    229018.04   -21217.406    1592.2163   -22809.622    16.129019   0.87555383 
    5000    233.29551   -209.28057    229018.04   -21259.021    1545.2002   -22804.221    16.536369   0.87555383 
    5100    233.48843   -260.41337    229018.04   -21276.477    1546.4779   -22822.955    16.936539   0.87555383 
    5200    238.07077   -193.22562    229018.04   -21239.891    1576.8284   -22816.719    17.433248   0.87555383 
    5300    236.15574   -291.51896    229018.04   -21279.225    1564.1444   -22843.369    17.863996   0.87555383 
    5400    242.00111   -393.00875    229018.04   -21248.011    1602.8604   -22850.871    18.217774   0.87555383 
    5500    236.72559   -352.29141    229018.04   -21292.013    1567.9188   -22859.932    18.650463   0.87555383 
    5600    228.50496   -349.30663    229018.04    -21315.65    1513.4706   -22829.121    18.933442   0.87555383 
    5700    241.90892   -119.30075    229018.04   -21284.973    1602.2498   -22887.223     19.08419   0.87555383 
    5800    241.35357   -307.72775    229018.04     -21201.7    1598.5716   -22800.272    19.325429   0.87555383 
    5900    245.34048   -244.70678    229018.04   -21236.229    1624.9783   -22861.207    19.519981   0.87555383 
    6000    230.71252   -381.90919    229018.04   -21325.083    1528.0921   -22853.175    20.015406   0.87555383 
    6100    238.68704   -416.35585    229018.04   -21291.631    1580.9102   -22872.541    20.533822   0.87555383 
    6200    244.01229   -301.29558    229018.04   -21265.721    1616.1812   -22881.903    20.798064   0.87555383 
    6300    246.81988   -39.105673    229018.04   -21236.878    1634.7769   -22871.655    21.332468   0.87555383 
    6400    241.57021   -364.96222    229018.04     -21239.6    1600.0065   -22839.606    21.539564   0.87555383 
    6500    241.11818   -444.30088    229018.04   -21249.818    1597.0125   -22846.831    21.743934   0.87555383 
    6600    238.13622   -371.64445    229018.04    -21294.58    1577.2619   -22871.842    21.916971   0.87555383 
    6700    235.15521   -140.95275    229018.04   -21348.651    1557.5176   -22906.169    22.101971   0.87555383 
    6800    237.96178   -217.57924    229018.04   -21325.586    1576.1065   -22901.693    22.433768   0.87555383 
    6900    235.39542   -264.34107    229018.04   -21368.906    1559.1086   -22928.014    22.724938   0.87555383 
    7000     230.4407   -161.20044    229018.04   -21395.723    1526.2917   -22922.015    22.964829   0.87555383 
    7100     241.0734   -359.94542    229018.04   -21307.982    1596.7159   -22904.698    23.212808   0.87555383 
    7200    237.86017   -348.50174    229018.04   -21306.527    1575.4335   -22881.961    23.607665   0.87555383 
    7300    232.82611   -326.23483    229018.04   -21365.574    1542.0911   -22907.665    24.008927   0.87555383 
    7400     229.8167   -328.00595    229018.04   -21359.641    1522.1587   -22881.799    24.328166   0.87555383 
    7500    230.86663   -483.06749    229018.04   -21358.056    1529.1128   -22887.168    24.376769   0.87555383 
    7600    237.18009   -238.71426    229018.04   -21370.669    1570.9291   -22941.598    24.615954   0.87555383 
    7700    241.76849    -151.2339    229018.04   -21339.613    1601.3197   -22940.933    24.569258   0.87555383 
    7800    236.46955   -325.84604    229018.04   -21288.472    1566.2229   -22854.695     24.62219   0.87555383 
    7900    239.07488   -320.35007    229018.04   -21265.499     1583.479   -22848.978    24.994166   0.87555383 
    8000    240.54288    -432.3069    229018.04   -21257.093    1593.2021   -22850.295    25.255565   0.87555383 
    8100    239.58248   -327.36796    229018.04    -21293.21     1586.841   -22880.051    25.803357   0.87555383 
    8200    238.83672   -287.17013    229018.04   -21328.442    1581.9016   -22910.343    25.686641   0.87555383 
    8300    232.51638   -252.27866    229018.04   -21330.988    1540.0397   -22871.028    25.862531   0.87555383 
    8400    230.38359   -146.88214    229018.04   -21324.782    1525.9134   -22850.696    26.023815   0.87555383 
    8500     240.4497   -320.05509    229018.04    -21311.74    1592.5849   -22904.325    26.487813   0.87555383 
    8600    238.48356   -298.33408    229018.04   -21248.551    1579.5624   -22828.114    26.988894   0.87555383 
    8700    234.70826   -292.29039    229018.04   -21306.931    1554.5573   -22861.488    27.383457   0.87555383 
    8800    241.18434   -218.38995    229018.04   -21239.244    1597.4507   -22836.695    27.586571   0.87555383 
    8900    235.57132   -155.14109    229018.04   -21256.804    1560.2737   -22817.077    27.620561   0.87555383 
    9000    237.80224   -245.97778    229018.04   -21203.494    1575.0498   -22778.544    27.864852   0.87555383 
    9100    240.41724   -391.22541    229018.04   -21181.973    1592.3699   -22774.343    28.206541   0.87555383 
    9200     233.8082   -241.17662    229018.04   -21214.744    1548.5959    -22763.34    28.539864   0.87555383 
    9300     233.6869   -298.96993    229018.04   -21244.246    1547.7925   -22792.039    28.530895   0.87555383 
    9400    231.12561    -366.7045    229018.04   -21287.572    1530.8281     -22818.4    28.815471   0.87555383 
    9500    240.68148   -254.73281    229018.04   -21236.412    1594.1201   -22830.532    29.056725   0.87555383 
    9600    231.86121   -253.77038    229018.04   -21296.087    1535.7003   -22831.787     29.24587   0.87555383 
    9700    236.50973   -256.04708    229018.04   -21249.519    1566.4891   -22816.008    29.622128   0.87555383 
    9800    235.80248   -362.15382    229018.04   -21262.884    1561.8047   -22824.688     30.07443   0.87555383 
    9900    241.10401   -389.38197    229018.04   -21218.754    1596.9186   -22815.673    30.523737   0.87555383 
   10000    247.61611   -274.71997    229018.04   -21143.488    1640.0506   -22783.538    30.641153   0.87555383 
Loop time of 14.6046 on 160 procs for 10000 steps with 8943 atoms

Performance: 295.797 ns/day, 0.081 hours/ns, 684.716 timesteps/s
97.8% CPU use with 160 MPI tasks x no OpenMP threads

MPI task timing breakdown:
Section |  min time  |  avg time  |  max time  |%varavg| %total
---------------------------------------------------------------
Pair    | 0.00044084 | 3.0519     | 11.91      | 237.6 | 20.90
Neigh   | 0.00038195 | 0.10145    | 0.42243    |  39.6 |  0.69
Comm    | 0.014166   | 4.0114     | 11.736     | 218.1 | 27.47
Output  | 0.17769    | 0.17787    | 0.1848     |   0.1 |  1.22
Modify  | 0.35412    | 7.1225     | 14.275     | 228.5 | 48.77
Other   |            | 0.1394     |            |       |  0.95

Nlocal:    55.8937 ave 177 max 0 min
Histogram: 72 6 42 0 0 0 0 0 4 36
Nghost:    540.212 ave 952 max 0 min
Histogram: 23 1 0 8 5 50 22 18 19 14
Neighs:    0 ave 0 max 0 min
Histogram: 160 0 0 0 0 0 0 0 0 0
FullNghs:  5628.24 ave 22109 max 0 min
Histogram: 90 30 0 0 0 0 0 2 18 20

Total # of neighbors = 900518
Ave neighs/atom = 100.695
Neighbor list builds = 570
Dangerous builds = 0
write_data 	    ${DIR}/data.${NAME}_eq
write_data 	    run_21/data.${NAME}_eq
write_data 	    run_21/data.ibeam_cooling_21_eq

undump              1
unfix               4



################################################
#######         Run Simulation         #########
################################################

reset_timestep      0
timestep	    10.0
log                 ${DIR}/log.run_${NAME}
log                 run_21/log.run_${NAME}
log                 run_21/log.run_ibeam_cooling_21
