
# Set production fixes - Nose/Hoover
#
fix                 4 water temp/csvr ${START_TEMP} ${END_TEMP} 500.0 928347
fix                 4 water temp/csvr 235 ${END_TEMP} 500.0 928347
fix                 4 water temp/csvr 235 225 500.0 928347


## divide "droplet" into core and surface
#region		core_reg cylinder z 135 135 44.6 20 INF units box
#region		surface_reg cylinder z 135 135 44.6 20 INF units box side out
#group		core dynamic all region core_reg
#group		surface dynamic all region surface_reg

## compute pressure core
#compute        peratom_core core stress/atom NULL
#compute        p_core core reduce sum c_peratom_core[1] c_peratom_core[2] c_peratom_core[3]
#variable       press_core equal -(c_p_core[1]+c_p_core[2]+c_p_core[3])/(3*1249982.5)


## compute pressure surface
#compute        peratom_surf surface stress/atom NULL
#compute        p_surf surface reduce sum c_peratom_surf[1] c_peratom_surf[2] #c_peratom_surf[3]
#variable       press_surf equal -(c_p_surf[1]+c_p_surf[2]+c_p_surf[3])/(3*42395)

## compute total pressure of drop
compute        peratom water stress/atom NULL
compute        p water reduce sum c_peratom[1] c_peratom[2] c_peratom[3]
variable       press equal -(c_p[1]+c_p[2]+c_p[3])/(3*58301)


# compute order parameter
compute        3 all orientorder/atom nnn NULL cutoff 3.5

# compute center of mass of bridge
compute 	4 water com

# Run simulation
thermo_style        custom step c_2 press vol etotal ke pe v_press c_1[4] c_4[*]
thermo              200
dump		     1 water custom 400 ${DIR}/prod.${NAME}.dump id type x y z vx vy vz c_3[*] c_peratom[*]
dump		     1 water custom 400 run_9/prod.${NAME}.dump id type x y z vx vy vz c_3[*] c_peratom[*]
dump		     1 water custom 400 run_9/prod.ibeam_cooling_9.dump id type x y z vx vy vz c_3[*] c_peratom[*]
run                 ${STEPS}
run                 4000000
Neighbor list info ...
  update every 1 steps, delay 0 steps, check yes
  max neighbors/atom: 2000, page size: 100000
  master list distance cutoff = 6.67472
  ghost atom cutoff = 6.67472
  binsize = 3.33736, bins = 48 11 12
  2 neighbor lists, perpetual/occasional/extra = 1 1 0
  (1) pair sw, perpetual
      attributes: full, newton on
      pair build: full/bin/atomonly
      stencil: full/bin/3d
      bin: standard
  (2) compute orientorder/atom, occasional, copy from (1)
      attributes: full, newton on
      pair build: copy
      stencil: none
      bin: none
Per MPI rank memory allocation (min/avg/max) = 6.146 | 6.721 | 7.319 Mbytes
Step c_2 Press Volume TotEng KinEng PotEng v_press c_1[4] c_4[1] c_4[2] c_4[3] 
       0    246.07704   -300.09081    229018.04   -21248.713    1629.8568   -22878.569   -680.11747    27.505993     78.59799    15.911414    29.586596 
     200    233.49144    -169.3982    229018.04    -21310.21    1546.4978   -22856.708    -174.9405    28.851344    78.601074    15.911607    29.580675 
     400    230.23675   -396.80815    229018.04   -21327.343    1524.9409   -22852.283   -1055.4382    29.596556    78.602685    15.912702     29.58594 
     600    222.43188   -224.03141    229018.04    -21388.58    1473.2464   -22861.827   -382.43254    30.018022    78.604862    15.915181    29.591713 
     800       227.27   -389.29144    229018.04   -21373.691     1505.291   -22878.982   -1003.2767    30.902419    78.605627    15.917104    29.593138 
    1000    234.06568   -340.49007    229018.04   -21265.188    1550.3013   -22815.489   -830.34415    31.963271     78.60496    15.916892     29.60394 
    1200    228.04663   -195.48308    229018.04   -21345.342    1510.4349   -22855.777   -251.87788    32.816228    78.605941    15.915452    29.615538 
    1400    246.29951   -232.41048    229018.04   -21192.539    1631.3303   -22823.869   -443.38614    34.099947    78.606484    15.914092    29.615673 
    1600    245.32793   -280.10513    229018.04   -21220.119    1624.8952   -22845.014   -588.82793    34.602938    78.608657    15.912437    29.640306 
    1800     236.8214   -173.26183    229018.04   -21288.655    1568.5534   -22857.208   -175.24765     36.05699    78.608728    15.911086    29.632685 
    2000    240.71616    -230.7301    229018.04   -21175.195    1594.3498   -22769.544   -404.35143    37.617338    78.610713    15.906949    29.624046 
    2200    238.83298   -338.42267    229018.04   -21220.984    1581.8768    -22802.86   -813.84759    39.606572    78.610782    15.906694       29.609 
    2400    232.93984   -245.22799    229018.04   -21252.634    1542.8444   -22795.478   -425.05726    41.369526    78.609447    15.908506    29.591048 
    2600     235.4737   -265.77308    229018.04   -21294.171     1559.627   -22853.798    -521.0486    41.393442     78.60828    15.910685    29.605648 
    2800    237.39111   -247.86681    229018.04   -21237.299    1572.3267   -22809.626   -477.18378    42.778014    78.607848    15.911866    29.606591 
    3000    239.37852   -242.47956    229018.04   -21344.738    1585.4901   -22930.228   -460.20001    43.905318    78.609005    15.912277    29.613429 
    3200    228.63255   -473.75758    229018.04   -21351.171    1514.3157   -22865.486   -1368.1098    44.731435    78.609289     15.91125    29.590023 
    3400    235.19351   -216.79887    229018.04   -21310.234    1557.7712   -22868.006   -359.41036    45.486442    78.611326    15.909477    29.609525 
    3600     233.4599   -246.99976    229018.04   -21281.764    1546.2889   -22828.053   -443.12018    46.535216    78.613349    15.909508    29.613855 
    3800    228.32639   -305.02586    229018.04    -21275.84    1512.2878   -22788.128   -693.67189    47.955898    78.612219    15.908475    29.618839 
    4000    236.02607    -337.4507    229018.04   -21296.788    1563.2856   -22860.074   -855.95421    49.843665    78.611256    15.908044    29.631715 
    4200    233.43375   -251.21266    229018.04   -21211.508    1546.1157   -22757.624   -478.43015    50.998498    78.611457     15.90845    29.651445 
    4400    238.92925   -427.08659    229018.04   -21157.248    1582.5144   -22739.763   -1170.2982    52.178083    78.610834    15.907966    29.643396 
    4600     236.3297    -226.8288    229018.04   -21259.773    1565.2967    -22825.07   -427.85223     53.52053    78.610014    15.907614    29.650418 
    4800    238.00764   -296.72869    229018.04   -21229.116    1576.4103   -22805.526   -650.82257    54.072614    78.610151    15.908628    29.658229 
    5000    226.95566   -240.37034    229018.04   -21294.853    1503.2091   -22798.062   -403.69583    54.996607    78.611434    15.907219    29.661282 
    5200    229.28407   -133.84556    229018.04   -21221.624    1518.6309   -22740.255   -53.247731    56.826246    78.610693     15.90921    29.657234 
    5400    238.44318   -139.89861    229018.04   -21221.793     1579.295   -22801.088   -60.187116    59.557894     78.61375    15.908298    29.663971 
    5600    226.80678   -360.90726    229018.04   -21300.264    1502.2229   -22802.487   -906.23786    61.304358    78.614165    15.909149    29.680405 
    5800    237.09964   -207.81675    229018.04   -21143.452    1570.3962   -22713.848   -389.51428    62.805775    78.614545    15.910776    29.682512 
    6000    228.36729   -314.29927    229018.04   -21292.225    1512.5588   -22804.783   -755.20338    63.145217    78.614401    15.908607    29.671603 
    6200    238.52368   -404.33373    229018.04    -21238.72    1579.8282   -22818.548   -1084.5406    63.862615    78.615111    15.907804    29.668117 
    6400    242.53568   -240.14499    229018.04   -21211.248    1606.4011   -22817.649   -447.53685    64.905368     78.61468    15.908347     29.66388 
    6600    240.56127   -141.16516    229018.04   -21304.782    1593.3239   -22898.106   -68.422566    65.663902    78.614205    15.909275    29.660026 
    6800    233.63272   -304.20032    229018.04   -21286.522    1547.4336   -22833.955   -727.84016     66.93212    78.612961    15.908815    29.630809 
    7000    226.67301   -194.05819    229018.04   -21330.415    1501.3369   -22831.752   -240.26821    69.047942     78.61194    15.907861    29.621335 
    7200    236.44475   -244.78486    229018.04   -21219.682    1566.0587    -22785.74    -447.5473    70.873881    78.611552     15.90479    29.616296 
    7400    232.59327    -172.5871    229018.04   -21294.363    1540.5489   -22834.912   -229.81249    71.618182    78.610731    15.906115    29.619031 
    7600     222.1281   -219.66428    229018.04   -21285.514    1471.2344   -22756.748   -404.41104     72.38243    78.610529     15.90499    29.623372 
    7800    235.15596   -347.15963    229018.04   -21176.704    1557.5226   -22734.226    -883.6068    74.211174    78.609594    15.902958    29.649788 
    8000     230.7569   -364.98575    229018.04   -21171.164     1528.386    -22699.55   -947.78783     75.22343    78.610337     15.90033    29.654448 
    8200    236.76445   -318.92542    229018.04   -21285.483    1568.1762   -22853.659    -707.5733    77.209305    78.611372     15.89971    29.652952 
    8400    232.75065   -267.39728    229018.04   -21261.822    1541.5913   -22803.414   -526.36204    78.914543    78.614746    15.897102    29.648235 
    8600    236.43287   -209.12038    229018.04   -21176.784      1565.98   -22742.764   -337.68575    79.851825    78.613817    15.894712    29.644865 
    8800    231.17476   -357.28353    229018.04   -21204.133    1531.1536   -22735.287   -879.13328    80.548386    78.614522    15.893844    29.625504 
    9000    233.78566   -104.58469    229018.04   -21200.106    1548.4466   -22748.552    107.37876    81.300219    78.616665    15.891027    29.619084 
    9200    229.81446   -534.32692    229018.04   -21242.081    1522.1439   -22764.224   -1611.6269    82.722982    78.618998    15.893793    29.621069 
    9400     232.8321       -351.4    229018.04   -21289.932    1542.1308   -22832.063   -888.55126    84.697437    78.620488    15.897015    29.608274 
    9600    227.92941   -271.07575    229018.04   -21315.408    1509.6585   -22825.066   -589.49719    86.061035    78.622425    15.899059     29.58578 
    9800    228.91888   -238.82045    229018.04   -21262.074    1516.2121   -22778.286   -465.55129    87.019983     78.62319    15.900695    29.569491 
   10000    240.94538   -345.38026    229018.04   -21151.057    1595.8679   -22746.925   -870.75125    88.497555    78.623233    15.900584    29.567393 
   10200     239.9547   -245.04602    229018.04   -21199.779    1589.3063   -22789.085    -474.4531    89.220052    78.624047    15.902256    29.576845 
   10400    234.26801   -359.17975    229018.04   -21199.388    1551.6413   -22751.029   -904.35288    90.574444    78.625731    15.904021    29.591206 
   10600    238.15041   -299.09545    229018.04   -21162.184    1577.3559    -22739.54    -648.9611    91.461235    78.628121    15.904864    29.593106 
   10800    241.98388   -346.65126    229018.04   -21194.249    1602.7463   -22796.996   -839.39971    92.674065    78.627629    15.905914    29.594747 
   11000    234.92087   -304.65568    229018.04   -21212.602    1555.9655   -22768.567   -727.24375     93.43691    78.628301    15.909164    29.578342 
   11200     231.6937   -259.50056    229018.04   -21223.697    1534.5907   -22758.287   -542.05233    94.583003    78.628604    15.910077    29.581015 
   11400    235.71745   -347.58798    229018.04   -21262.921    1561.2415   -22824.163   -867.35655    95.581012    78.628468    15.907932    29.567772 
   11600    235.72559   -472.08529    229018.04   -21202.159    1561.2954   -22763.455   -1368.3198    96.767509    78.629475    15.909888     29.57609 
   11800    232.26715    -314.5025    229018.04   -21201.561     1538.389    -22739.95   -736.74598    98.661885    78.628626    15.910264    29.572066 
   12000    236.09194   -188.41073    229018.04   -21122.038    1563.7219    -22685.76   -224.75275    100.54061    78.624971     15.91292    29.582232 
   12200    235.28336   -156.41116    229018.04   -21208.254    1558.3664   -22766.621   -142.04112    101.13146    78.624279    15.913809    29.578402 
   12400    239.69697   -302.71471    229018.04   -21159.899    1587.5993   -22747.499   -717.63065    101.78964      78.6245    15.915006    29.580769 
   12600      240.248   -209.57166    229018.04   -21154.442     1591.249   -22745.691   -317.76181    103.54381    78.624724    15.915513     29.57564 
   12800    234.64554   -279.61101    229018.04   -21245.018    1554.1419    -22799.16   -622.53333    104.96874    78.624175    15.914878    29.548866 
   13000    231.38917   -299.32154    229018.04   -21287.717    1532.5737   -22820.291   -673.65792    106.60129    78.625003    15.914361    29.536013 
   13200    237.23031   -198.98888    229018.04   -21208.806    1571.2617   -22780.067    -260.4195    107.86686    78.625232    15.915837    29.516081 
   13400    236.29168   -258.80448    229018.04   -21161.028    1565.0448   -22726.073   -538.75591    109.48403    78.625126    15.917713    29.508422 
   13600    236.20767   -271.59485    229018.04   -21173.773    1564.4884   -22738.261   -564.77561    111.38156    78.624544    15.917482    29.489951 
   13800     229.3041   -294.66345    229018.04   -21225.277    1518.7636   -22744.041   -680.75673    113.61641    78.626579    15.918127    29.466159 
   14000    229.82671   -340.14773    229018.04   -21184.895     1522.225    -22707.12   -850.30645    115.93866    78.626418    15.919646     29.47808 
   14200    230.57788   -201.35505    229018.04   -21251.776    1527.2003   -22778.976   -340.27154    116.16366    78.627467    15.918912    29.482477 
   14400    229.16505   -332.71249    229018.04   -21308.978    1517.8426    -22826.82   -801.71291     118.3425    78.630216    15.918983    29.503393 
   14600    236.01023   -263.00207    229018.04   -21311.846    1563.1807   -22875.027   -551.82277    120.31339    78.632105    15.920976    29.514147 
   14800    236.99993   -375.38375    229018.04   -21302.548    1569.7358   -22872.284   -973.67398    121.70239    78.632995    15.921308    29.520704 
   15000    237.29643   -270.60853    229018.04    -21249.98    1571.6996    -22821.68   -560.47047    121.98969    78.633901    15.920505    29.531663 
   15200    229.97725   -210.12151    229018.04   -21359.656    1523.2221   -22882.878   -335.13176     123.8986    78.634561     15.92027    29.508674 
   15400    232.81633   -236.65266    229018.04   -21313.129    1542.0263   -22855.155   -440.78274    125.13626     78.63531    15.920455     29.51367 
   15600    226.66322   -361.61846    229018.04   -21318.896    1501.2721   -22820.168   -916.16301    125.92784     78.63684    15.923801    29.522442 
   15800    236.02027   -279.93163    229018.04   -21179.985    1563.2472   -22743.232   -585.30582    125.81366    78.634522    15.923599    29.509424 
   16000    231.55368   -328.72448    229018.04   -21272.592    1533.6634   -22806.256    -763.4054    127.94188    78.632166    15.924072    29.522508 
   16200     234.5544   -416.74009    229018.04   -21230.322    1553.5382    -22783.86     -1151.55    130.98727    78.629426    15.923214    29.542322 
   16400     234.7039    -282.0311    229018.04   -21222.231    1554.5284    -22776.76   -604.50575    131.82103    78.630835     15.92122    29.552668 
   16600    239.90995   -333.02167    229018.04    -21252.12      1589.01    -22841.13   -829.95281    132.85306    78.630153    15.922495    29.561762 
   16800    234.74198   -394.22962    229018.04   -21213.672    1554.7806   -22768.453   -1037.7873    133.26728    78.629234    15.923021    29.582139 
   17000    236.83195   -268.46714    229018.04   -21213.061    1568.6232   -22781.684   -582.05917    135.24001    78.629977    15.921361    29.583389 
   17200    234.74395   -177.89445    229018.04   -21221.388    1554.7937   -22776.182   -194.40884    136.45135    78.630621    15.922051    29.560982 
   17400    236.30003   -183.08151    229018.04   -21197.244    1565.1001   -22762.344   -228.06156    136.62534    78.630585      15.9229    29.548858 
   17600    242.72222   -361.47902    229018.04    -21146.74    1607.6366   -22754.376   -945.70229    138.70017     78.63075    15.920928    29.548975 
   17800    234.89864   -229.67195    229018.04   -21197.919    1555.8182   -22753.737   -386.44036    140.37846    78.627791    15.918392    29.545022 
   18000    234.36211   -370.90373    229018.04   -21207.423    1552.2646   -22759.687   -958.18147    139.95514    78.628035    15.916854    29.558373 
   18200    234.52601   -342.99897    229018.04   -21219.437    1553.3502   -22772.787   -849.19697     140.0069    78.627633    15.917781     29.56506 
   18400    233.69109   -281.29342    229018.04   -21223.769    1547.8202   -22771.589   -616.95132    139.83488    78.627348     15.91623    29.567477 
   18600    234.69488   -292.93173    229018.04   -21159.162    1554.4687    -22713.63   -618.44917    140.99827    78.628753    15.916467    29.596321 
   18800    234.92774    -385.3232    229018.04   -21169.238    1556.0109   -22725.249   -1044.5188    141.73788    78.629298    15.917836    29.598923 
   19000    228.31347   -220.25016    229018.04   -21193.003    1512.2023   -22705.206   -368.57917    144.34056    78.628432    15.920817    29.599189 
   19200    232.09327   -337.43462    229018.04   -21175.523    1537.2373    -22712.76   -834.56575    145.14093    78.628757    15.923753    29.622111 
   19400    234.27446   -345.41529    229018.04    -21139.49    1551.6841   -22691.174   -909.99142    147.94401     78.62674    15.922626    29.641013 
   19600    238.01831   -260.44239    229018.04   -21208.873    1576.4809   -22785.354    -559.3497    150.83943    78.624532    15.923347     29.63188 
   19800    232.94237    -356.5903    229018.04    -21227.82    1542.8612   -22770.681   -888.16589     153.4226    78.623758     15.92404    29.625525 
   20000    230.76472   -237.89628    229018.04   -21260.342    1528.4378    -22788.78    -403.7689    153.74516    78.622375    15.923128    29.612678 
   20200    237.04365   -443.12537    229018.04   -21249.707    1570.0254   -22819.732   -1251.2116    154.51592    78.623341    15.923496    29.626273 
   20400    233.28659   -230.02367    229018.04   -21350.386    1545.1411   -22895.527   -427.39741    156.38893    78.623191    15.925315    29.622903 
   20600    231.19339   -375.82477    229018.04    -21292.61    1531.2771   -22823.887   -981.20417    158.66309    78.622659     15.92514    29.613027 
   20800    232.43831   -506.40674    229018.04   -21251.642    1539.5226   -22791.165   -1489.0297    161.24183    78.622242     15.92353    29.616715 
   21000    235.01554   -323.43621    229018.04   -21260.221    1556.5925   -22816.813   -793.48049    161.23246    78.622631    15.924459    29.616547 
   21200    234.06984   -309.90896    229018.04   -21188.726    1550.3288   -22739.055   -751.37187    162.02188    78.623496    15.926122    29.612615 
   21400    232.04068   -198.08712    229018.04   -21307.054     1536.889   -22843.942   -329.30128    161.67246    78.624046    15.926834    29.636435 
   21600    240.47923   -366.67637    229018.04   -21233.167    1592.7805   -22825.947   -959.78696    162.40433     78.62181    15.928125    29.654029 
   21800    236.89426   -379.62236    229018.04   -21234.987     1569.036   -22804.023   -970.21876    162.63094    78.621561    15.930126    29.652512 
   22000    239.68659   -376.58176    229018.04   -21281.263    1587.5306   -22868.793   -996.40291    163.09333    78.622648    15.927847    29.659201 
   22200    233.14598   -283.56625    229018.04   -21238.713    1544.2098   -22782.923   -629.13035    164.19178    78.622775    15.924302     29.65184 
   22400    233.51305   -449.78495    229018.04   -21287.508     1546.641   -22834.149   -1233.7922     166.0594    78.619653    15.922873    29.636714 
   22600    230.02758   -217.95915    229018.04    -21247.25    1523.5555   -22770.805   -356.54946    167.43262    78.619854    15.920797    29.652625 
   22800    230.12128   -371.06354    229018.04   -21185.108    1524.1761   -22709.284   -989.91141    168.54361     78.62023    15.920943    29.652201 
   23000    233.76748   -209.33955    229018.04   -21245.989    1548.3261   -22794.315   -300.08337    169.23147    78.619968    15.922957    29.657141 
   23200    232.88327     -98.6696    229018.04   -21281.013    1542.4697   -22823.483    104.11795    170.32489    78.620655    15.924933    29.654532 
   23400    240.95622   -223.72129    229018.04   -21199.603    1595.9398   -22795.543   -403.31715    173.39453    78.618792    15.925304    29.677228 
   23600    232.02889   -236.32665    229018.04   -21334.296    1536.8108   -22871.107     -427.504    174.13017    78.618687    15.926521     29.68058 
   23800    230.15406   -317.53045    229018.04   -21319.293    1524.3932   -22843.686   -797.56103    176.00282    78.616665    15.929678    29.689463 
   24000    240.81034   -276.54962    229018.04   -21217.064    1594.9735   -22812.037   -582.03483    176.98476    78.614453    15.930392    29.661689 
   24200    236.90978    -337.8067    229018.04   -21291.766    1569.1387   -22860.905   -818.23473    176.47309    78.613762    15.934008    29.653042 
   24400    233.70799   -302.82514    229018.04   -21243.746    1547.9321   -22791.678   -688.08677    176.24753    78.613007    15.936099    29.635848 
   24600    231.12477    -311.0555    229018.04   -21271.086    1530.8225   -22801.909   -774.16966    179.61401    78.613395    15.938756    29.599922 
   24800    236.96863   -380.38493    229018.04   -21249.823    1569.5285   -22819.352   -1022.2891    180.61281    78.613228     15.93717    29.567731 
   25000    240.51866   -330.31582    229018.04   -21245.152    1593.0416   -22838.194     -805.667    180.62174    78.611292    15.935504    29.570357 
   25200     231.7119   -203.01954    229018.04   -21241.205    1534.7113   -22775.916   -294.90068    183.06467    78.611232    15.936369    29.562783 
   25400    237.94303   -256.13395    229018.04   -21294.969    1575.9823   -22870.952   -568.52216    184.19599    78.613935    15.931982    29.563269 
   25600     241.0679   -410.90505    229018.04   -21261.958    1596.6795   -22858.637   -1109.4178    187.52127    78.612815    15.930324    29.543016 
   25800    233.86558   -109.06051    229018.04   -21307.363    1548.9759   -22856.339    28.496906    187.65332    78.614216     15.92909    29.538089 
   26000     231.9129   -327.26803    229018.04   -21359.526    1536.0426   -22895.569   -804.61836    189.11204    78.614722    15.929317    29.528244 
   26200    233.16869   -280.03166    229018.04   -21257.026    1544.3601   -22801.386   -632.39272    190.30828    78.615066    15.931597    29.526942 
   26400    229.62021   -326.48906    229018.04   -21337.771    1520.8573   -22858.628   -792.95138    191.01321    78.613444     15.93126     29.54255 
   26600    241.37985   -122.17868    229018.04   -21289.247    1598.7456   -22887.993    28.586931    190.26213    78.612211    15.928995    29.537406 
   26800    236.43926   -206.90808    229018.04   -21220.475    1566.0223   -22786.497   -302.78701    191.49748    78.614472    15.928853    29.555128 
   27000     239.7233   -333.11483    229018.04   -21262.053    1587.7737   -22849.827    -799.9024    192.60077    78.613877    15.932659    29.561232 
   27200    233.26167   -265.09836    229018.04   -21161.015     1544.976   -22705.991   -495.34883    193.18566    78.611294    15.933414    29.558536 
   27400    237.59281   -258.79028    229018.04   -21225.479    1573.6627   -22799.141   -558.74367    192.46746    78.610589    15.934384    29.575161 
   27600    237.23194   -270.42181    229018.04   -21254.687    1571.2725    -22825.96   -596.70375    194.00873    78.610401    15.938086    29.572145 
   27800    232.24078    -196.4484    229018.04   -21353.092    1538.2143   -22891.307   -281.26248    194.37359    78.611595    15.938813    29.573659 
   28000    231.23842   -312.02154    229018.04   -21275.408    1531.5753   -22806.984    -740.1494      195.227    78.613292    15.939793     29.60139 
   28200    239.92507   -295.33571    229018.04   -21200.896    1589.1101   -22790.006   -657.12638    195.91644    78.615332     15.94485    29.605585 
   28400    242.44011   -150.00588    229018.04   -21160.444    1605.7681   -22766.212    -128.4874    198.41951    78.614805    15.948677    29.603353 
   28600    233.81989   -225.49746    229018.04   -21178.763    1548.6733   -22727.436   -388.14142    200.20244     78.61496    15.951037    29.578995 
   28800    235.10155   -460.95414    229018.04   -21265.037    1557.1622   -22822.199   -1274.0087     202.7115    78.617043     15.95176    29.563377 
   29000    240.61841   -266.72903    229018.04   -21235.784    1593.7024   -22829.486   -569.90355    203.92267    78.618186    15.952915    29.574733 
   29200    232.40564   -249.12453    229018.04   -21244.286    1539.3062   -22783.592   -494.94872    205.43912    78.617014    15.953073    29.561312 
   29400    237.05609   -249.13696    229018.04   -21189.812    1570.1078    -22759.92   -509.84402    205.24502    78.617188     15.95219    29.572663 
   29600    235.18735   -276.82488    229018.04   -21218.838    1557.7305   -22776.569   -610.42015    205.99396    78.617616     15.95238    29.579937 
   29800    236.75461   -218.12565    229018.04    -21198.36     1568.111   -22766.471   -356.90783     208.3544    78.616679    15.952443    29.586819 
   30000     237.0082   -274.27016    229018.04   -21240.551    1569.7906   -22810.341   -576.35924     208.9017    78.616606    15.950413     29.60271 
   30200    230.68347   -231.05549    229018.04   -21274.458    1527.8996   -22802.358    -424.8788    211.21018     78.61586    15.950337    29.603351 
   30400    230.86289   -306.02418    229018.04   -21292.971     1529.088   -22822.059   -679.90656    210.99696     78.61378    15.950116    29.608985 
   30600    226.06811   -237.17714    229018.04   -21346.836    1497.3305   -22844.167   -453.90528    212.22827    78.611914    15.948553    29.599241 
   30800    231.41572   -420.76538    229018.04    -21252.84    1532.7496    -22785.59   -1194.4924    213.13364    78.611914    15.948511    29.589805 
   31000    238.63967   -220.18151    229018.04    -21228.92    1580.5964   -22809.517   -368.23577    213.04767    78.611743    15.944272    29.580623 
   31200    234.29444   -416.03224    229018.04   -21140.052    1551.8164   -22691.869   -1141.7337    215.42909    78.613327    15.940591    29.593548 
   31400    234.60867   -95.834401    229018.04   -21127.103    1553.8977   -22681.001     118.9401    216.50996     78.61462    15.939445    29.580273 
   31600    242.34395   -342.97449    229018.04   -21106.827    1605.1312   -22711.959   -851.66768    218.36045    78.616106    15.937628    29.588701 
   31800    232.96106   -275.47454    229018.04   -21210.498    1542.9849   -22753.483   -603.94536    219.30053    78.615612    15.939337    29.592766 
   32000    239.55047   -449.59821    229018.04   -21214.948     1586.629   -22801.577   -1312.7916    221.26281    78.614329    15.938288    29.604066 
   32200    230.86042    -294.8743    229018.04   -21305.051    1529.0717   -22834.123    -687.7355    223.73311    78.615446    15.937898    29.626007 
   32400    226.85365   -229.95703    229018.04   -21293.207    1502.5334   -22795.741   -443.09718    221.78136    78.615912     15.93898    29.637325 
   32600    228.21354   -314.53278    229018.04   -21254.654    1511.5404   -22766.195   -729.79651    224.39239    78.615941    15.939278    29.638166 
   32800    230.28528   -332.64952    229018.04   -21231.747    1525.2623   -22757.009   -848.39233    224.77941    78.615222    15.938865    29.639696 
   33000    236.42323   -345.02484    229018.04   -21243.303    1565.9161   -22809.219    -868.7675    226.30451    78.615905    15.940004    29.655006 
   33200    227.07463   -292.63083    229018.04   -21252.238     1503.997   -22756.235   -672.98907    225.00529    78.615465    15.941723    29.664159 
   33400    231.10222   -331.69968    229018.04   -21271.465    1530.6732   -22802.138   -873.03097    225.81605    78.614431    15.942441    29.654364 
   33600    231.53895   -242.42151    229018.04   -21311.195    1533.5658   -22844.761   -479.04126    227.68539    78.613435    15.943357    29.635054 
   33800    234.22007   -453.59224    229018.04   -21252.948    1551.3238   -22804.272   -1301.8153    229.38706    78.613108    15.943332    29.602146 
   34000    230.53917   -78.046138    229018.04   -21338.901    1526.9439   -22865.844    152.88413    229.44227     78.61129    15.941513    29.596037 
   34200    233.34839   -286.60607    229018.04    -21332.55    1545.5504     -22878.1    -617.4127    231.28286    78.609716    15.938958    29.586133 
   34400    230.79255   -185.18071    229018.04   -21355.294    1528.6221   -22883.916    -245.4719    232.40664    78.610095    15.937939    29.600616 
   34600    232.93455   -224.90511    229018.04   -21313.408    1542.8093   -22856.218   -402.30936    233.41146    78.610194    15.936279    29.627281 
   34800    237.68311   -328.80011    229018.04   -21256.901    1574.2608   -22831.162   -760.84706    234.27485    78.612516    15.935547    29.640318 
   35000    235.63724    -167.7686    229018.04   -21238.177    1560.7103   -22798.887   -188.00906    234.72031    78.613919     15.93297    29.639789 
   35200    233.37897   -410.42177    229018.04   -21237.922    1545.7529   -22783.675   -1126.0014    236.31739    78.615093    15.934436    29.636892 
   35400    233.07786   -231.12213    229018.04   -21149.367    1543.7585   -22693.125   -398.85093    238.26935    78.613956     15.93715    29.624584 
   35600    230.39476   -253.23013    229018.04   -21270.071    1525.9874   -22796.059   -521.15048    239.19243    78.611646    15.936151    29.617681 
   35800    236.42626   -389.10234    229018.04   -21229.493    1565.9362   -22795.429   -1015.3376    239.51765    78.612408    15.936021    29.630663 
   36000    232.28718   -465.09218    229018.04   -21327.582    1538.5216   -22866.103   -1339.3729     241.1849    78.612103    15.934947    29.637519 
   36200    233.62573    -403.6083    229018.04   -21339.274    1547.3873   -22886.661   -1053.8587    242.71595    78.612851    15.935224    29.627864 
   36400     234.1681   -327.52566    229018.04   -21279.666    1550.9796   -22830.645   -791.76115    243.83644    78.612829    15.937321    29.640336 
   36600    226.59628    -447.8149    229018.04   -21310.164    1500.8287   -22810.993   -1266.6217    245.05649    78.613277    15.938763    29.619817 
   36800    229.81076   -286.44279    229018.04   -21302.756    1522.1194   -22824.876   -603.06005    246.16312    78.615548    15.940291    29.617925 
   37000    232.94507   -347.59364    229018.04   -21271.358    1542.8791   -22814.237   -851.86568    248.01701    78.617616    15.945455     29.59916 
   37200    229.71092   -438.90648    229018.04   -21381.079    1521.4581   -22902.537   -1271.2612    248.99848    78.617885    15.947232    29.600438 
   37400    235.32696   -98.512891    229018.04   -21330.506    1558.6552   -22889.161    87.714608    248.80255    78.619758    15.947861    29.605283 
   37600    240.71404   -448.13117    229018.04   -21288.785    1594.3357   -22883.121   -1277.9729    249.46583    78.620958     15.94649    29.619159 
   37800    231.23247   -427.92372    229018.04   -21336.118    1531.5359   -22867.654   -1183.6049    251.09162    78.623576    15.948852    29.601233 
   38000    231.68258   -340.14935    229018.04   -21269.437    1534.5171   -22803.954   -847.80114     251.7661    78.624466    15.945902     29.62356 
   38200    229.79512   -297.88238    229018.04   -21287.526    1522.0158   -22809.542   -643.16305    251.78494    78.625701    15.945166    29.622468 
   38400    237.06168   -319.75819    229018.04   -21279.213    1570.1448   -22849.358   -779.59362     253.3753    78.625842    15.947215     29.63433 
   38600    231.33713   -335.07859    229018.04   -21274.684    1532.2291   -22806.913   -830.71603    255.30125     78.62546    15.946896    29.623134 
   38800    240.58729   -296.85078    229018.04   -21271.601    1593.4962   -22865.097    -688.2712    255.61527      78.6261    15.948765    29.624056 
   39000    240.24291   -271.45906    229018.04   -21231.597    1591.2152   -22822.812   -574.69971    256.82578    78.626476     15.95005    29.615334 
   39200    230.22136   -398.02133    229018.04   -21296.702    1524.8389   -22821.541    -1056.657     257.7432    78.624685    15.949543    29.620198 
   39400    238.12604   -291.71618    229018.04   -21254.193    1577.1945   -22831.388   -670.71771    257.84711    78.622675    15.950441    29.596995 
   39600    233.98942    -398.5717    229018.04   -21230.418    1549.7962   -22780.214   -1043.2357    258.46073    78.620868    15.952885    29.599787 
   39800     246.4197   -354.23635    229018.04   -21080.802    1632.1264   -22712.929   -878.69864    259.15979    78.618487    15.952818    29.576505 
   40000    237.02747   -277.81797    229018.04   -21230.486    1569.9183   -22800.404   -553.67457    259.40699    78.617513    15.951593    29.569495 
   40200    224.48572   -274.93848    229018.04    -21328.26    1486.8497    -22815.11   -620.71351    260.07242    78.618178    15.951808    29.579142 
   40400    241.33166    -386.3123    229018.04   -21208.106    1598.4265   -22806.533   -1007.7636    262.12492    78.620874    15.951317    29.599374 
   40600    228.16914   -282.90818    229018.04    -21324.08    1511.2463   -22835.326   -636.08779    262.11431    78.620321    15.952761    29.606436 
   40800    228.77317   -204.16062    229018.04   -21284.959     1515.247   -22800.206   -347.84489    263.25061      78.6209    15.952792    29.609987 
   41000    239.71694   -340.69045    229018.04   -21200.364    1587.7316   -22788.095   -878.51384    264.08027    78.619806    15.951696    29.615345 
   41200    239.13374   -339.57429    229018.04   -21172.549    1583.8688   -22756.418   -882.71092    264.14247    78.617791    15.952026    29.615005 
   41400    240.03734   -357.23651    229018.04   -21169.339    1589.8537   -22759.193   -950.91924    265.08964    78.618394    15.951716     29.59948 
   41600    237.89896   -209.36096    229018.04   -21070.215    1575.6904   -22645.905   -354.64733     266.2619    78.618091      15.9539    29.593237 
   41800    234.24742   -452.06925    229018.04   -21146.168     1551.505   -22697.673   -1258.8703    267.55843    78.618534    15.953735    29.591331 
   42000    236.79843   -218.83857    229018.04    -21207.56    1568.4013   -22775.961    -408.8597    268.38537    78.618089    15.953879    29.572963 
   42200    225.84742   -264.08939    229018.04   -21177.818    1495.8688   -22673.687   -551.85033    269.93598    78.617039    15.951138    29.565713 
   42400    241.84563   -253.79785    229018.04   -21173.309    1601.8307    -22775.14   -527.15863    271.65163    78.617584    15.951858    29.567645 
   42600    231.34785   -297.48249    229018.04   -21266.495    1532.3001   -22798.795   -666.71053    272.19088    78.615986    15.952972     29.56128 
   42800    244.81688   -273.24675    229018.04   -21161.247    1621.5103   -22782.758   -567.77653    274.48187    78.616511    15.955049    29.551674 
   43000    238.67336   -166.57701    229018.04   -21111.448    1580.8196   -22692.268    -161.0287    273.38918    78.616151    15.956308    29.538872 
   43200    233.95411   -322.17573    229018.04    -21140.38    1549.5623   -22689.942   -767.21315     274.6476    78.616789    15.953456    29.549585 
   43400     235.0333   -299.37817    229018.04    -21178.14    1556.7101    -22734.85   -689.32767    276.05982    78.618151      15.9534    29.538178 
   43600    232.44844   -293.41235    229018.04   -21217.149    1539.5897   -22756.739   -666.84069    277.53246     78.61713    15.954044    29.531601 
   43800    239.62877    -401.3856    229018.04   -21175.749    1587.1476   -22762.896    -1072.898      279.582     78.61907      15.9553    29.543984 
   44000    230.87934   -416.82217    229018.04   -21250.349     1529.197   -22779.546    -1176.955     282.2147    78.620138    15.953073    29.534705 
   44200    233.22372   -326.04162    229018.04   -21215.689    1544.7247   -22760.414   -784.26033    284.08926    78.621786    15.953285    29.544585 
   44400    241.63689   -183.27074    229018.04   -21194.913    1600.4481   -22795.361    -243.7543    284.10548    78.623928    15.953244    29.540874 
   44600    239.92406   -396.86968    229018.04   -21210.369    1589.1034   -22799.473   -1066.7563    285.50083    78.625614    15.953204    29.557795 
   44800    232.93159   -342.45564    229018.04   -21251.637    1542.7898   -22794.426   -863.45526    286.14193    78.625207    15.955676    29.569819 
   45000    229.15771   -231.08043    229018.04   -21256.243     1517.794   -22774.037   -439.31651    286.48892    78.625705     15.95469    29.580244 
   45200    244.67726   -380.40554    229018.04   -21099.295    1620.5855   -22719.881   -1011.0885    286.44529    78.624455    15.956398     29.56504 
   45400    240.89454   -270.12194    229018.04   -21033.879    1595.5312    -22629.41   -574.86477    287.76723    78.625479    15.957149    29.568193 
   45600    240.74254   -298.65563    229018.04   -21058.445    1594.5245   -22652.969   -689.46556    289.01255    78.626633    15.959015    29.537965 
   45800    234.33185   -270.33075    229018.04   -21149.095    1552.0642   -22701.159   -622.20436    289.20677     78.62612    15.958345    29.509276 
   46000    240.77822   -384.60139    229018.04   -21163.527    1594.7608   -22758.288   -1032.4193    291.63382    78.627593    15.959342    29.485256 
   46200    240.11929   -375.91063    229018.04   -21168.908    1590.3965   -22759.304   -1002.4066    293.87465    78.628356    15.960875    29.483469 
   46400    242.50912    -242.6173    229018.04   -21172.287    1606.2252   -22778.512   -472.10872    293.58622    78.629481    15.960694    29.475406 
   46600    232.47785   -229.84725    229018.04   -21214.538    1539.7845   -22754.322    -411.7644    294.73326     78.63038    15.960973    29.452585 
   46800    234.36173   -354.58204    229018.04    -21147.58    1552.2621   -22699.842   -911.51892    296.14093    78.631095     15.96213    29.438165 
   47000    237.57429    -273.6366    229018.04   -21109.751      1573.54   -22683.291   -585.80753    298.62649    78.630603     15.96107    29.457838 
   47200    235.40656   -180.81679    229018.04   -21172.916    1559.1824   -22732.099   -208.14564    299.07366    78.632825    15.959848    29.466557 
   47400    234.96429   -305.10837    229018.04   -21252.053     1556.253   -22808.306   -724.88549    300.82562    78.635211    15.959176    29.472326 
   47600    239.68465   -312.55103    229018.04   -21200.536    1587.5177   -22788.053   -734.89696    302.29531    78.636573    15.958644    29.464866 
   47800    241.94097   -326.25188    229018.04   -21186.426    1602.4621   -22788.889   -790.88091    304.11357    78.639296    15.957158    29.467249 
   48000     231.4774   -126.05267    229018.04    -21202.89    1533.1581   -22736.048   -26.359282    304.58229     78.63753     15.95806     29.47208 
   48200    235.74161    -126.9841    229018.04   -21235.222    1561.4015   -22796.624    27.204513    307.22179    78.638621    15.959292    29.494557 
   48400    231.02665   -205.09818    229018.04   -21250.943    1530.1727   -22781.116   -342.41205    309.72826    78.637978    15.961299    29.487629 
   48600    238.00402    -301.2529    229018.04   -21231.044    1576.3863    -22807.43   -725.22445    310.45066    78.635407    15.963392    29.485227 
   48800    233.26496   -328.08109    229018.04    -21202.07    1544.9978   -22747.067   -819.51135    312.22682    78.633001    15.962807    29.501419 
   49000    235.97689   -223.90499    229018.04   -21251.533    1562.9599   -22814.493   -365.60104    312.97608     78.63175    15.961327    29.511114 
   49200    239.60937   -347.11174    229018.04   -21259.223    1587.0191   -22846.242   -889.09382     315.3916    78.630967    15.959837    29.503238 
   49400    238.34879   -275.14173    229018.04   -21231.349    1578.6698   -22810.019   -595.58394    315.91826    78.631636    15.961387    29.501801 
   49600     239.5585   -158.77058    229018.04   -21228.753    1586.6821   -22815.435   -147.76305    316.18053    78.631683    15.964092    29.498468 
   49800    230.43058   -465.78232    229018.04   -21240.042    1526.2247   -22766.266   -1311.3589    318.51586    78.630432    15.964467    29.486215 
   50000    232.70482    -277.6199    229018.04   -21209.801    1541.2878   -22751.089   -615.56384    318.78929    78.630483    15.966606    29.477688 
   50200    233.44789    -246.5284    229018.04   -21231.402    1546.2094   -22777.612   -484.02856    319.86802     78.63111     15.96756    29.463995 
   50400    236.28266    -404.4175    229018.04   -21253.019    1564.9851   -22818.005   -1093.6972    322.76047    78.630907    15.969538    29.475089 
   50600    234.49344   -419.38712    229018.04   -21303.645    1553.1345    -22856.78   -1116.0472    323.93902    78.632111    15.971372    29.494093 
   50800    228.18984   -441.26726    229018.04   -21312.976    1511.3834   -22824.359   -1247.0223    324.71662    78.632218    15.971569    29.475187 
   51000    233.24935   -316.14353    229018.04   -21320.873    1544.8944   -22865.768   -761.20493    325.95776    78.633209    15.971033    29.460057 
   51200    229.19611   -311.17805    229018.04   -21311.423    1518.0483   -22829.471   -696.95821    326.24572    78.633634    15.973007    29.451404 
   51400    227.91052   -257.80271    229018.04   -21332.057    1509.5334    -22841.59   -536.42988    327.64882    78.634515    15.975572    29.449453 
   51600    233.63985   -305.74281    229018.04   -21304.254    1547.4808   -22851.735    -696.7617    328.59215    78.634376    15.975301     29.45076 
   51800    234.26993    -449.3753    229018.04   -21238.136    1551.6541    -22789.79   -1267.8642    329.23803    78.635343    15.977027    29.445021 
   52000    230.41639   -539.29437    229018.04   -21191.863    1526.1307   -22717.994   -1590.6825    328.45624    78.634194    15.979656    29.425635 
   52200    234.79158   -203.95095    229018.04   -21202.982    1555.1092   -22758.091   -300.21289    330.78904    78.635838    15.978466    29.449984 
   52400    237.57877   -239.62476    229018.04   -21234.551    1573.5697   -22808.121   -448.17874     331.7426    78.637875    15.976572     29.45486 
   52600    239.87819   -197.62748    229018.04   -21234.998    1588.7996   -22823.798   -237.54982    331.13537    78.637669     15.97501     29.46697 
   52800    226.87936   -296.15054    229018.04   -21358.508    1502.7036   -22861.212   -716.92987     330.9149    78.637919    15.975519    29.423711 
   53000    233.52979   -270.28486    229018.04    -21305.71    1546.7518   -22852.462   -530.48645     331.7957    78.638613    15.977093    29.398852 
   53200     233.3988   -303.83274    229018.04   -21286.554    1545.8842   -22832.439   -711.86485    332.71774    78.638609    15.977177    29.388116 
   53400    235.49002   -382.20597    229018.04   -21265.955    1559.7351   -22825.691   -1019.9414    334.75621    78.637605    15.977207    29.389566 
   53600    237.38634   -354.24976    229018.04   -21221.537    1572.2952   -22793.832   -917.84848    336.53041     78.63694    15.978712    29.397666 
   53800    238.10717   -198.55733    229018.04   -21231.639    1577.0695   -22808.708   -268.54231    337.53005    78.635412    15.980627     29.40601 
   54000    242.94355   -316.89359    229018.04   -21144.786    1609.1026   -22753.888    -775.3292    339.67695    78.633235    15.980815    29.406889 
   54200    237.21643    -236.9874    229018.04    -21237.65    1571.1698    -22808.82   -500.86326    341.09102    78.629744    15.982025    29.404199 
   54400    229.49118   -269.24513    229018.04   -21306.209    1520.0027   -22826.212   -542.77428    342.62049    78.629198    15.982234    29.403181 
   54600    237.09426   -287.31968    229018.04   -21250.011    1570.3606   -22820.371   -633.66349    343.89103    78.627498    15.980785      29.3975 
   54800    235.97616   -288.29535    229018.04   -21246.256    1562.9551   -22809.211   -644.25602     345.7786    78.626602    15.980921    29.395361 
   55000    234.03282   -84.018287    229018.04   -21297.947    1550.0836    -22848.03    146.19585     348.1602    78.627127    15.981579    29.402843 
   55200     241.6964   -433.96992    229018.04   -21261.005    1600.8423   -22861.847   -1185.4067    349.47215    78.629686    15.982819    29.415172 
   55400    233.21123   -265.02584    229018.04   -21271.112    1544.6419   -22815.754   -511.56885     351.6172    78.631551    15.983363    29.434051 
   55600     237.5467   -344.71474    229018.04   -21210.516    1573.3573   -22783.873   -865.16524    352.00144    78.631049    15.982909    29.465993 
   55800    231.89532   -422.19996    229018.04    -21316.75    1535.9262   -22852.676    -1189.072    353.48337    78.632544    15.982865    29.437849 
   56000    232.86847   -511.86799    229018.04   -21301.452    1542.3717   -22843.824   -1512.6606    353.83381    78.632001    15.982818    29.427985 
   56200    240.35552   -153.93569    229018.04    -21232.84    1591.9611   -22824.801   -97.792802     354.0263     78.63234    15.984873    29.457032 
   56400    228.47761    -375.3768    229018.04   -21220.654    1513.2894   -22733.943    -1011.851    357.48661    78.632208    15.984382    29.476452 
   56600    229.35203   -230.40075    229018.04   -21307.992    1519.0811   -22827.073   -435.32879    358.05827    78.631823    15.986482      29.4928 
   56800    236.81925   -234.29949    229018.04   -21295.147    1568.5391   -22863.686   -441.20744    356.76874     78.63198     15.98556    29.496944 
   57000     230.2499   -326.25191    229018.04   -21358.016    1525.0279   -22883.044   -778.84548    357.73279    78.631732    15.983109    29.470297 
   57200    224.57515   -354.13095    229018.04   -21309.691    1487.4421   -22797.133   -885.24024    357.10324     78.63097    15.984714    29.455422 
   57400      227.911   -246.50283    229018.04   -21315.137    1509.5366   -22824.674   -484.08038    357.28669     78.62921    15.986282     29.46062 
   57600    232.64038   -270.54642    229018.04   -21204.881     1540.861   -22745.742   -580.99772    357.73718    78.629231     15.98648    29.475198 
   57800    238.26629   -509.37241    229018.04   -21226.079    1578.1234   -22804.202   -1495.0611    358.08379    78.628987    15.988911     29.47708 
   58000    234.22338   -244.85351    229018.04   -21218.449    1551.3458   -22769.794   -493.19473    359.16115    78.628311    15.989701    29.458821 
   58200    235.84124    -370.9384    229018.04   -21196.076    1562.0614   -22758.137   -949.47217    359.75463    78.628063    15.989554    29.465765 
   58400    231.58827    -294.3375    229018.04   -21340.537    1533.8925   -22874.429   -642.09809    358.99834    78.627419    15.990119    29.464765 
   58600    231.85374   -185.29842    229018.04   -21261.135    1535.6508   -22796.785   -260.17941    359.16025    78.624779    15.989361     29.47395 
   58800     231.9886   -210.81033    229018.04   -21263.693     1536.544   -22800.237   -341.57399    360.74009    78.626233     15.98934    29.466721 
   59000     232.1035   -419.80767    229018.04   -21288.642     1537.305   -22825.947   -1163.3804    362.46672    78.629015     15.98797    29.481773 
   59200    232.84584   -350.03608    229018.04   -21306.103    1542.2218   -22848.325   -913.61588    362.11156    78.627734    15.985946     29.46991 
   59400    232.87039   -195.85712    229018.04   -21253.515    1542.3844   -22795.899    -300.5011    362.84331    78.626086    15.987372    29.466336 
   59600    238.64018   -281.59022    229018.04   -21142.325    1580.5998   -22722.925    -578.6762     365.7482    78.626947     15.98934    29.474562 
   59800     242.8708   -193.97714    229018.04   -21119.323    1608.6207   -22727.944   -259.66529    366.91418    78.628166     15.99083    29.497256 
   60000    238.07847    -200.8585    229018.04   -21236.984    1576.8794   -22813.864   -302.80596    368.42072    78.630571     15.98973    29.479875 
   60200     243.0891    -220.9998    229018.04    -21178.08    1610.0666   -22788.147   -388.79456    369.71092    78.627772    15.990826    29.485033 
   60400    235.36821   -249.40371    229018.04   -21252.988    1558.9283   -22811.916   -487.15095    371.12762    78.626357    15.993305    29.501178 
   60600    226.89921    -279.6754    229018.04   -21238.282    1502.8351   -22741.117   -640.04485    370.89028    78.624971    15.993373    29.515003 
   60800    232.29915   -420.32555    229018.04   -21254.524    1538.6009   -22793.125   -1195.8703    373.54453    78.625545    15.995287     29.52257 
   61000    228.82503   -392.94204    229018.04   -21283.146    1515.5906   -22798.737   -1023.2697     374.4244    78.623135     15.99592    29.502857 
   61200    226.36779   -263.70114    229018.04    -21345.88    1499.3153   -22845.195   -577.22976    375.15026     78.62107    15.997386    29.490812 
   61400    233.28526   -348.65974    229018.04   -21249.951    1545.1323   -22795.083   -908.09276    376.39755    78.619084    15.996577    29.502878 
   61600    228.98355    -391.1769    229018.04   -21210.194    1516.6405   -22726.835   -1033.1625    380.19496    78.616381    15.998491    29.505067 
   61800    236.92351   -344.12475    229018.04   -21164.265    1569.2297   -22733.494   -856.51621    380.92378    78.616741    15.998885    29.521778 
   62000    234.86084   -299.95918    229018.04   -21270.491    1555.5679   -22826.059   -665.26088    383.55278    78.616894    15.999373    29.529703 
   62200    235.27786   -290.18972    229018.04   -21228.941    1558.3299   -22787.271   -639.61074    382.88468    78.618609    15.998783    29.524237 
   62400    238.85998   -272.27303    229018.04   -21203.902    1582.0556   -22785.957   -598.40827    382.08833    78.618111    15.999769    29.512061 
   62600    235.78644   -344.54763    229018.04     -21218.6    1561.6984   -22780.298   -864.71593     382.4566    78.619088    16.001116    29.514709 
   62800    233.40985   -344.35168    229018.04   -21214.015    1545.9574   -22759.972   -871.19221    384.26128    78.620767    16.000975    29.518917 
   63000    234.18288   -232.54681    229018.04   -21217.005    1551.0775   -22768.083   -440.09911    384.33061     78.62121    16.001744    29.529534 
   63200    228.28433   -196.22107    229018.04   -21307.208    1512.0093   -22819.217   -307.07191    384.50188    78.623184    16.004103    29.563215 
   63400    241.15594   -209.81162    229018.04   -21219.102    1597.2626   -22816.365     -329.917    385.08274    78.625116     16.00593    29.577642 
   63600     234.2208   -262.97931    229018.04   -21206.565    1551.3287   -22757.894   -570.62414    387.67817    78.624528    16.008102    29.586178 
   63800    230.08654   -335.75479    229018.04   -21176.763     1523.946   -22700.709   -827.62238     388.8433    78.622958    16.008173    29.609224 
   64000    235.86621   -242.21521    229018.04    -21248.25    1562.2268   -22810.477   -455.65117    387.14854    78.621873     16.00983    29.596171 
   64200    235.36692   -412.57227    229018.04   -21200.003    1558.9198   -22758.923    -1137.033    387.18403    78.621144    16.010252    29.594903 
   64400    235.79139   -252.31483    229018.04   -21203.954    1561.7312   -22765.685   -503.79577    388.73155    78.618129    16.008139    29.568584 
   64600    229.82341   -400.06781    229018.04   -21203.245    1522.2032   -22725.448   -1105.4777    390.20755    78.616641    16.005483    29.534057 
   64800    237.19824   -289.46487    229018.04   -21130.186    1571.0493   -22701.236   -667.58971    391.60765    78.616526    16.003741    29.521734 
   65000    233.08303   -387.05201    229018.04   -21185.288    1543.7928   -22729.081   -1031.4413    392.73081    78.616608    16.006899    29.513271 
   65200    230.48624   -452.21845    229018.04   -21231.138    1526.5933   -22757.732   -1293.3045    394.42843    78.617063    16.011462    29.514831 
   65400    240.62845   -316.44064    229018.04    -21157.95    1593.7689   -22751.719   -750.95599    394.50228    78.617148    16.014671    29.514394 
   65600    235.57443   -331.92057    229018.04   -21177.686    1560.2942    -22737.98   -829.97078    396.48039    78.618122    16.015354    29.497038 
   65800    232.61089   -315.33381    229018.04   -21258.282    1540.6656   -22798.948    -746.4325    396.01692    78.616415    16.013881    29.484339 
   66000    231.51104   -169.38631    229018.04   -21329.081    1533.3809   -22862.462   -209.46458    399.08879    78.613873    16.010763    29.467873 
   66200    236.31755   -92.979272    229018.04   -21252.742    1565.2162   -22817.958     159.2534    400.32531    78.613672    16.010706    29.460782 
   66400    230.19043   -394.26407    229018.04   -21314.816    1524.6341    -22839.45   -1021.7043    400.27309    78.613589    16.010116    29.470652 
   66600     237.6041   -468.91984    229018.04   -21277.491    1573.7375   -22851.228   -1388.0388    401.75186    78.612193    16.008716    29.479686 
   66800    233.35591   -449.02718    229018.04   -21336.125    1545.6002   -22881.725   -1292.1953    401.53917    78.612113    16.005858    29.499705 
   67000    237.42202   -291.43642    229018.04   -21298.084    1572.5315   -22870.616   -675.47442    402.84786    78.609803    16.005833    29.512265 
   67200    234.77878   -230.38363    229018.04   -21351.274    1555.0244   -22906.298   -426.28714    403.59747    78.607482    16.004133    29.475804 
   67400    236.54936   -253.36483    229018.04   -21309.305    1566.7515   -22876.057   -475.29295    403.49078    78.607049    16.001624    29.465336 
   67600    229.29681   -417.42852    229018.04   -21312.217    1518.7153   -22830.932   -1169.8425    404.98734    78.606018    16.000989    29.472187 
   67800    234.01626   -255.66122    229018.04   -21282.564    1549.9739   -22832.538   -510.09078    406.10786    78.604386    15.996582    29.497478 
   68000    231.91736   -408.98886    229018.04   -21288.682    1536.0721   -22824.754   -1094.4731    407.46997    78.605328     15.99329    29.491917 
   68200    228.54412   -281.34678    229018.04   -21311.628      1513.73   -22825.358   -633.14701    407.58971    78.606376    15.988152    29.482135 
   68400    241.36685   -230.15604    229018.04   -21194.976    1598.6595   -22793.635    -394.4983    410.48513    78.606711    15.986141    29.494742 
   68600    237.54307   -225.00527    229018.04   -21222.602    1573.3333   -22795.935   -413.31725    410.29825     78.60583    15.984685     29.50997 
   68800    240.35408   -129.37334    229018.04   -21197.487    1591.9516   -22789.438   -50.617723    410.25364     78.60525    15.983761    29.514761 
   69000    235.56766   -300.80633    229018.04   -21173.882    1560.2494   -22734.131   -652.00813    411.00495    78.606677    15.982471    29.521063 
   69200    235.45073   -165.64849    229018.04   -21206.143    1559.4749   -22765.618   -141.08651    409.79995     78.60702    15.980861    29.511124 
   69400    229.07083   -136.97358    229018.04    -21215.98    1517.2185   -22733.199   -51.428633    411.46246    78.608137    15.982038    29.506188 
   69600    242.76716   -288.38296    229018.04   -21225.181    1607.9343   -22833.115   -626.56913    411.38667    78.609018    15.980616    29.503139 
   69800    239.68842   -232.01591    229018.04   -21221.887    1587.5427    -22809.43   -409.80546    412.90661    78.607937    15.979598     29.47864 
   70000    223.63068   -379.90321    229018.04   -21279.436    1481.1865   -22760.622   -1021.8125    414.94192    78.606127    15.979687    29.470593 
   70200    229.44833   -313.33197    229018.04   -21284.314    1519.7189   -22804.032   -727.41063    416.51213    78.604691    15.981998     29.46316 
   70400    235.68618   -299.33081    229018.04   -21276.995    1561.0344    -22838.03   -692.81343    416.00677    78.605685    15.982362    29.456434 
   70600    233.53273   -291.26947    229018.04    -21247.93    1546.7713   -22794.701   -628.10345    416.84066    78.606901    15.979717    29.453205 
   70800    228.94123   -243.54916    229018.04    -21296.75    1516.3602    -22813.11   -471.18233    418.21047     78.60407    15.979946    29.457996 
   71000    237.28795   -348.11405    229018.04   -21240.528    1571.6435   -22812.172   -872.07915    419.35671    78.602237    15.979535    29.460834 
   71200    245.41698   -349.38674    229018.04   -21137.278     1625.485   -22762.763   -882.42451    419.53934    78.602037    15.978923    29.465802 
   71400    239.90123   -358.13315    229018.04     -21206.5    1588.9522   -22795.452   -908.18351    422.59526    78.601019    15.980181    29.476587 
   71600    233.77497   -210.23771    229018.04   -21243.872    1548.3758   -22792.248   -353.21797     423.9492    78.597504    15.981014    29.455561 
   71800    232.21376   -281.23987    229018.04   -21265.445    1538.0353    -22803.48   -618.03666    425.76466    78.595575    15.982569    29.446112 
   72000     241.5604   -176.73239    229018.04   -21286.492    1599.9415   -22886.433   -214.82892    426.72707    78.595597    15.981258    29.409615 
   72200     233.4693   -261.71353    229018.04   -21290.734    1546.3512   -22837.085   -557.89665     427.7128    78.597268    15.981673    29.381005 
   72400    235.65658   -257.89703    229018.04   -21239.944    1560.8384   -22800.783   -547.42371    429.34984    78.596755    15.982706    29.371263 
   72600    232.97939   -156.43788    229018.04   -21279.785    1543.1064   -22822.891   -133.12927     429.6171    78.599264    15.981657    29.377615 
   72800    227.06933   -327.07318    229018.04   -21290.917    1503.9619   -22794.879   -792.23917    430.03726    78.599187    15.984903    29.363957 
   73000    232.23812   -346.67444    229018.04   -21286.319    1538.1967   -22824.516   -837.89873    429.46487    78.599749    15.990096     29.36119 
   73200    243.96968   -256.19594    229018.04   -21165.855     1615.899   -22781.754   -481.73386     430.5581    78.599007    15.994909    29.365616 
   73400    240.49435    -217.3715    229018.04   -21201.508    1592.8806   -22794.389   -375.06099    432.93013    78.601049    15.999629    29.357568 
   73600    233.28941   -258.94617    229018.04   -21269.904    1545.1597   -22815.064   -514.86627    432.99073     78.60209    16.001786    29.359312 
   73800    233.93416   -367.59839    229018.04   -21198.658    1549.4301   -22748.088   -930.55828    434.58855    78.603233    16.004234    29.358068 
   74000    236.18276   -277.45983    229018.04    -21138.65    1564.3234   -22702.973   -598.01942    439.12104    78.603169    16.002722    29.375818 
   74200    236.35781   -225.79859    229018.04   -21188.896    1565.4829   -22754.379   -357.41913    438.65942    78.603887    16.002339      29.4015 
   74400    234.77729   -166.78855    229018.04   -21228.849    1555.0145   -22783.863   -158.29916    439.76152    78.604281    16.004337     29.38314 
   74600    231.90992   -196.08451    229018.04   -21257.857    1536.0228    -22793.88   -266.78522    441.43212    78.605187    16.005384    29.386487 
   74800    238.79994   -230.41945    229018.04   -21197.994    1581.6579   -22779.652   -391.24074    440.34145    78.602615    16.006516    29.395963 
   75000    237.48228   -353.08945    229018.04   -21246.822    1572.9306   -22819.752   -886.67965     441.9746    78.604489    16.007388    29.402042 
   75200    237.37288   -123.31539    229018.04   -21235.302     1572.206   -22807.508   -10.439526    442.69345     78.60408    16.007515    29.413479 
   75400    234.47958   -210.26504    229018.04   -21211.256    1553.0426   -22764.299   -344.18993     444.3234    78.605234    16.007103    29.419054 
   75600    232.04478   -41.753582    229018.04   -21232.215    1536.9161   -22769.131    326.58188    444.19385    78.606599    16.007527    29.395585 
   75800    234.83595   -344.83559    229018.04   -21259.496     1555.403   -22814.899   -874.35865    446.45679    78.608928    16.007986    29.406853 
   76000    235.28373   -169.46514    229018.04   -21282.044    1558.3688   -22840.413   -172.43809    447.71126    78.609333    16.006527    29.393685 
   76200    233.94288   -304.00407    229018.04    -21334.65    1549.4879   -22884.138   -714.74355    448.12601    78.611323    16.007014    29.411832 
   76400    224.16392    -539.8478    229018.04   -21385.823    1484.7183   -22870.542   -1620.4651    451.52727    78.612174    16.009791    29.437579 
   76600    235.02452   -157.81457    229018.04   -21336.642     1556.652   -22893.294   -145.41586     451.4222    78.610463    16.013165    29.425871 
   76800    242.81193   -326.78089    229018.04   -21230.614    1608.2308   -22838.845   -835.51151    452.28579    78.609394    16.014395     29.43896 
   77000    234.75099   -272.42828    229018.04   -21333.024    1554.8403   -22887.864   -578.30802    451.00525    78.608049    16.016334    29.464324 
   77200    233.59018    -372.1749    229018.04   -21329.205    1547.1518   -22876.357   -964.97654    451.97494    78.605609    16.018594    29.467459 
   77400    228.92127   -151.66658    229018.04    -21290.34     1516.228   -22806.568   -92.528191    451.63497    78.605822    16.022361    29.453605 
   77600    231.20561   -342.25203    229018.04   -21292.907     1531.358   -22824.265   -886.79208    453.42821    78.606454    16.026312    29.455589 
   77800      231.984   -326.89191    229018.04   -21297.953    1536.5136   -22834.467   -780.60478    455.00068     78.60676    16.023225     29.43792 
   78000    231.22311   -404.95924    229018.04   -21322.878    1531.4739   -22854.352    -1112.156    456.57011    78.605285    16.023257    29.442797 
   78200    230.94076   -153.72277    229018.04     -21256.6    1529.6038   -22786.204    -94.19076    456.73569    78.606664    16.025072    29.435741 
   78400    235.51051   -172.85048    229018.04   -21256.247    1559.8708   -22816.118   -196.14275    457.23958    78.606839    16.027767    29.447219 
   78600    229.34483   -335.07423    229018.04   -21317.795    1519.0334   -22836.828   -795.89099    457.20422    78.607254    16.029335    29.445225 
   78800    236.26674   -347.82169    229018.04   -21279.229    1564.8797   -22844.108   -846.09006    457.88498    78.606909    16.029569      29.4557 
   79000     237.8265   -149.75255    229018.04   -21232.611    1575.2105   -22807.822   -84.898011    456.95236    78.606983    16.027945     29.45756 
   79200    235.09278   -454.20501    229018.04   -21253.306    1557.1041    -22810.41   -1256.5094    458.30874    78.604961    16.029002    29.444181 
   79400    234.10864   -252.81569    229018.04   -21285.473    1550.5858   -22836.059   -520.05487    458.51383    78.605328    16.030255    29.436895 
   79600    230.69151   -314.66353    229018.04   -21231.073    1527.9529   -22759.026   -679.69029    461.41665     78.60733    16.029854    29.419978 
   79800    235.75722   -280.48323    229018.04   -21215.919    1561.5049   -22777.424   -625.78042    462.13074    78.609219    16.029486    29.408253 
   80000    237.11086   -193.36925    229018.04   -21271.739    1570.4706   -22842.209   -246.79597    462.96625    78.610824    16.030289    29.427163 
   80200    235.14168   -397.85928    229018.04    -21287.09     1557.428   -22844.517   -1046.8015    465.23459    78.609512    16.030279    29.401643 
   80400    226.73736   -202.52757    229018.04   -21348.626    1501.7631   -22850.389   -287.16777    467.59933     78.60775    16.030932    29.418435 
   80600    237.20347    -312.8848    229018.04   -21166.408    1571.0839   -22737.492   -706.46899    468.17657    78.608842    16.031285    29.408959 
   80800    237.04273   -275.42165    229018.04   -21250.869    1570.0193   -22820.889   -578.63178    468.50166    78.610019    16.030333    29.442014 
   81000    238.76455   -444.22731    229018.04   -21206.535    1581.4236   -22787.958   -1247.7734    468.43127    78.608649     16.03306    29.446671 
   81200    235.32912   -312.58225    229018.04   -21234.279    1558.6695   -22792.948   -743.03557    471.58014    78.606233    16.032785    29.462077 
   81400    232.26368   -114.91936    229018.04   -21320.276    1538.3659   -22858.642    70.173154     469.9554    78.603686    16.032501    29.445556 
   81600    234.27836   -286.26937    229018.04   -21200.238    1551.7099   -22751.947   -624.63297     471.2422     78.60521    16.033788    29.453722 
   81800    241.97417   -365.16568    229018.04   -21206.792     1602.682   -22809.474   -957.35996    474.21821    78.604925    16.034799    29.465614 
   82000    244.27899   -626.07107    229018.04   -21201.369    1617.9477   -22819.317   -1953.7365    474.80077     78.60512    16.035307    29.482023 
   82200    227.37988   -309.36282    229018.04   -21311.166    1506.0188   -22817.185   -705.98444    474.61925    78.603705    16.034629     29.49926 
   82400    230.06639   -227.03343    229018.04   -21306.537    1523.8125   -22830.349   -408.53257      477.715    78.603983    16.035116     29.50288 
   82600    235.66004   -185.66469    229018.04   -21293.401    1560.8612   -22854.263   -254.65857    479.15395    78.603384    16.037358     29.48771 
   82800     232.7556   -428.35517    229018.04   -21261.868    1541.6241   -22803.492   -1158.3154     479.2239    78.603365    16.037122    29.468576 
   83000    234.71898   -316.71776    229018.04   -21320.817    1554.6283   -22875.445   -778.40098    478.96489    78.605001    16.034388    29.458475 
   83200    226.42238   -208.25588    229018.04   -21328.038    1499.6769   -22827.715   -346.88025    479.92331    78.605696    16.032655    29.464835 
   83400    232.46102   -465.42163    229018.04    -21323.43     1539.673   -22863.103    -1331.153    482.98425    78.605966    16.031747     29.47556 
   83600    235.58149    -280.5796    229018.04   -21284.574     1560.341   -22844.915   -591.09963    485.18918    78.607204    16.029197    29.494738 
   83800    236.51676   -307.27338    229018.04   -21336.528    1566.5356   -22903.063    -708.2738    483.55372    78.608073    16.026283    29.523533 
   84000     228.2152   -361.27899    229018.04   -21340.764    1511.5514   -22852.315   -911.70071    484.51319     78.60717    16.026447    29.499076 
   84200    228.98546   -329.18553    229018.04   -21333.469    1516.6531   -22850.122   -792.91457    485.54134    78.607074    16.026693     29.48952 
   84400    234.47336   -258.13617    229018.04   -21268.188    1553.0015    -22821.19   -482.98038    484.71077    78.607198    16.026541    29.483644 
   84600    228.19155   -125.73064    229018.04   -21279.771    1511.3948   -22791.166   -7.9388479    489.11288    78.607828    16.025132    29.478711 
   84800    233.13391   -303.58787    229018.04   -21339.793    1544.1298   -22883.923   -707.66175    490.73986     78.60822    16.025087    29.505188 
   85000    236.68157   -302.86479    229018.04   -21307.676    1567.6272   -22875.303   -696.19614    493.40292    78.609195    16.025839    29.488344 
   85200    239.55925   -386.56936    229018.04    -21234.22    1586.6872   -22820.907    -1022.456    490.69548     78.60774    16.024479    29.454329 
   85400    236.28436   -275.54324    229018.04   -21244.262    1564.9964   -22809.259   -572.70243    492.19343    78.607024    16.022942    29.430079 
   85600     239.3526   -334.00218    229018.04   -21214.833    1585.3184   -22800.151   -805.86632    494.03893    78.606678    16.022753    29.417259 
   85800    230.44367   -389.71818    229018.04   -21211.858    1526.3113   -22738.169   -1032.5063    494.56482    78.605942    16.020081    29.418799 
   86000    237.75269   -345.31626    229018.04   -21191.988    1574.7217    -22766.71   -806.11196    496.46955    78.603544    16.017005    29.407249 
   86200    236.13875   -399.13727    229018.04   -21232.896    1564.0319   -22796.928   -1037.9213    497.44567    78.604988    16.015822    29.390431 
   86400    234.57863   -285.40864    229018.04   -21265.982    1553.6987    -22819.68   -610.41536    497.33321    78.605229    16.015362     29.37842 
   86600     233.3815     -227.411    229018.04   -21233.084    1545.7696   -22778.854   -385.88894    496.69408    78.606423    16.014576    29.397838 
   86800    229.78205   -234.80679    229018.04   -21270.032    1521.9292   -22791.961   -424.69351    497.55153     78.60657    16.014991    29.424901 
   87000    234.77414   -340.74819    229018.04   -21284.374    1554.9937   -22839.367   -831.49001    498.53423    78.604563    16.017698     29.43487 
   87200    238.88644   -156.40188    229018.04   -21245.571    1582.2308   -22827.802   -95.300302    500.31919    78.601865    16.021153    29.420998 
   87400    240.52936   -242.29833    229018.04   -21296.008    1593.1125    -22889.12   -468.82847    503.55383    78.601568    16.021631    29.409467 
   87600     234.2879   -264.24583    229018.04   -21293.951    1551.7731   -22845.724   -526.28915    504.13786    78.602563    16.024432    29.402617 
   87800    228.97924   -355.10115    229018.04   -21430.216    1516.6119   -22946.828   -918.77831    505.84347    78.604175    16.025134    29.393079 
   88000    236.42223   -271.45468    229018.04    -21224.94    1565.9095   -22790.849   -592.67055    504.11687     78.60312    16.024616    29.408257 
   88200    242.82191   -187.51082    229018.04   -21179.534    1608.2969   -22787.831   -224.08769    504.85604    78.602012    16.024484    29.402628 
   88400    235.86481   -328.49588    229018.04   -21195.278    1562.2175   -22757.495   -787.98234    505.74793    78.601508    16.022487    29.394755 
   88600    227.93199   -386.58275    229018.04   -21292.536    1509.6756   -22802.212   -1004.9812    508.33239    78.599483    16.023882    29.395186 
   88800    230.69666   -154.89787    229018.04   -21302.131     1527.987   -22830.118   -148.76386     508.2285    78.600719    16.023374    29.396395 
   89000    227.40027   -425.94981    229018.04   -21346.256    1506.1538    -22852.41   -1195.2995    510.05073    78.600559    16.023133       29.404 
   89200    233.46327   -287.69042    229018.04   -21298.846    1546.3112   -22845.157   -653.03886    509.83216    78.599299    16.023932    29.416243 
   89400    235.54708   -257.50621    229018.04   -21236.955    1560.1131   -22797.068   -509.49383    513.18931    78.599472    16.023405    29.422645 
   89600    229.21923   -236.14591    229018.04   -21358.321    1518.2015   -22876.522   -426.83917    514.29294     78.59846    16.026472    29.413687 
   89800     237.0523    -183.5636    229018.04   -21293.528    1570.0827   -22863.611    -232.0859    514.93107    78.600148    16.026302    29.414104 
   90000    232.28394   -400.26517    229018.04   -21251.726    1538.5002   -22790.227   -1064.2425    516.28653    78.601487    16.025107    29.412899 
   90200    229.96174   -309.53794    229018.04    -21325.31    1523.1194   -22848.429   -743.39932    517.73547    78.602047    16.025872    29.435949 
   90400    233.81534   -352.64063    229018.04   -21388.404    1548.6431   -22937.047   -909.07818     517.3445    78.603978    16.027546    29.438906 
   90600    232.38526    -159.7653    229018.04   -21395.024    1539.1712   -22934.195   -102.05551    517.71028    78.605357    16.028411    29.431188 
   90800     244.2447   -205.28689    229018.04   -21279.802    1617.7206   -22897.522   -323.10447    519.85216    78.606888    16.027714    29.421387 
   91000    233.98592   -345.70258    229018.04   -21339.554     1549.773   -22889.327   -865.88154     521.5532    78.608726    16.027627    29.416223 
   91200    230.54959   -413.10813    229018.04   -21397.063    1527.0129   -22924.076   -1148.8012    520.00583    78.609049    16.028695    29.411117 
   91400    229.49131   -312.56209    229018.04    -21354.83    1520.0035   -22874.834   -724.40012    522.30253    78.608567    16.030645    29.429633 
   91600     237.0746   -353.68097    229018.04   -21315.593    1570.2304   -22885.823   -857.88412    522.86131    78.609827    16.032245    29.427015 
   91800    231.78101   -173.15617    229018.04   -21270.263    1535.1691   -22805.432   -193.56572    522.57027    78.612821     16.03309     29.42984 
   92000    232.45842   -209.87275    229018.04   -21271.243    1539.6558   -22810.899   -317.69784    523.96571    78.618071    16.033692    29.420167 
   92200    237.35446    -351.5121    229018.04   -21266.508     1572.084   -22838.592   -891.68559    525.59663    78.619801    16.034906    29.407129 
   92400    238.96302   -489.58264    229018.04   -21235.615    1582.7381   -22818.353   -1380.3451    528.88039    78.621994    16.038088    29.396032 
   92600    242.42891   -228.81566    229018.04    -21251.43    1605.6939   -22857.124   -364.63659    528.76281    78.622399    16.037546    29.421168 
   92800    230.29325   -318.80516    229018.04   -21334.749    1525.3151   -22860.064   -758.10551    528.51376    78.621878    16.039021       29.406 
   93000     235.6523   -346.21391    229018.04   -21360.567      1560.81   -22921.377   -872.73915    530.50262    78.623398    16.040484     29.41014 
   93200    236.75648   -267.75157    229018.04   -21262.006    1568.1234   -22830.129   -526.37561    532.42374    78.622097    16.042344    29.419916 
   93400     235.2832   -387.19079    229018.04   -21335.688    1558.3653   -22894.053    -1019.844    534.07697    78.620703    16.043533    29.431964 
   93600    231.07366   -205.10227    229018.04   -21282.498     1530.484   -22812.982   -282.08285    532.86192    78.619207    16.042174    29.433696 
   93800    234.35907   -522.75979    229018.04   -21211.273    1552.2445   -22763.518   -1550.7244    537.09671    78.620783    16.043262    29.441411 
   94000    232.34143   -411.19172    229018.04   -21263.252    1538.8809   -22802.132   -1133.1714    537.63025    78.622274    16.043638    29.433242 
   94200    237.13025   -325.40031    229018.04   -21284.087     1570.599   -22854.686   -773.48788    540.77222    78.622421    16.044918    29.448292 
   94400    235.89839   -414.81976    229018.04   -21214.604    1562.4399   -22777.044   -1118.5744    542.19143    78.623792     16.04516    29.435318 
   94600    233.82424   -166.27515    229018.04   -21312.612    1548.7021   -22861.314   -164.86741     540.8844    78.622889    16.044733    29.404498 
   94800    237.37343   -345.71755    229018.04   -21198.445    1572.2097   -22770.655   -857.37653    542.36722    78.623077    16.044406    29.416797 
   95000    239.82929   -135.50018    229018.04   -21229.799    1588.4757   -22818.274   -28.333498    543.26936    78.623795     16.04634    29.418071 
   95200    233.75513   -191.40402    229018.04   -21299.813    1548.2443   -22848.057   -224.03381      544.664    78.624278    16.050571    29.433394 
   95400     234.4943   -262.91425    229018.04   -21313.649    1553.1401   -22866.789   -498.58113    546.80947    78.622371    16.053327     29.44725 
   95600    236.30412   -290.97012    229018.04   -21344.404    1565.1273   -22909.532    -620.4529    547.30855     78.62095     16.05467    29.441167 
   95800    236.59548   -257.71128    229018.04   -21307.386     1567.057   -22874.443    -484.3716    550.24617    78.620422    16.053373    29.461188 
   96000    232.34937   -381.21723    229018.04   -21346.853    1538.9335   -22885.787   -999.90203    550.63154    78.621188    16.054375    29.473553 
   96200    231.61877    -321.1809    229018.04   -21360.105    1534.0945   -22894.199   -746.20601    552.40137    78.621812    16.055968    29.485439 
   96400    228.87766   -284.61243    229018.04   -21291.256    1515.9391   -22807.195   -618.73902    553.31015    78.622556    16.057626     29.48816 
   96600    229.21747   -378.97263    229018.04    -21369.73    1518.1898   -22887.919   -981.71863    554.09024    78.622196     16.05923    29.476058 
   96800    231.78285    -230.6715    229018.04   -21325.272    1535.1813   -22860.453    -429.2333    554.03478    78.623099    16.059852    29.453825 
   97000    228.15302    -450.3832    229018.04   -21311.871    1511.1395   -22823.011   -1238.4923    555.60354    78.623057    16.060028    29.450073 
   97200    236.06904   -235.40616    229018.04   -21251.692    1563.5702   -22815.262   -437.13369    557.28428    78.623829    16.059738    29.474565 
   97400      234.799   -452.90303    229018.04   -21220.389    1555.1583   -22775.548   -1252.8775    558.70834    78.623716    16.061035     29.46413 
   97600    233.76419   -297.90855    229018.04   -21229.174    1548.3044   -22777.479   -645.66016    558.63171    78.623648    16.062265     29.44314 
   97800    232.37647   -169.11081    229018.04   -21278.675     1539.113   -22817.788   -153.20253    559.76998    78.622848    16.063534     29.43206 
   98000    224.39518   -390.77567    229018.04   -21390.144      1486.25   -22876.394   -1013.0299    563.46593    78.622522    16.063822    29.425152 
   98200    234.74395   -325.14484    229018.04   -21383.536    1554.7937   -22938.329   -784.86603    563.67869    78.623941    16.065262    29.435556 
   98400    230.40172   -263.36101    229018.04   -21346.269    1526.0335   -22872.302   -528.30137    563.86629    78.626248    16.066958    29.442107 
   98600    235.23206    -434.3692    229018.04   -21290.134    1558.0266    -22848.16   -1187.3827    565.26934    78.628025    16.066972    29.428351 
   98800    239.90796   -117.32427    229018.04   -21158.338    1588.9968   -22747.334    71.115743     565.2218    78.629589    16.068557    29.446699 
   99000    237.26155   -411.21032    229018.04   -21174.416    1571.4687   -22745.885   -1113.6245    566.77573    78.630372     16.06732    29.446929 
   99200    236.83379    -220.7124    229018.04   -21269.347    1568.6354   -22837.982   -375.00462    566.61196    78.630808    16.063042    29.432971 
   99400     235.1082   -347.18241    229018.04   -21335.937    1557.2063   -22893.143   -862.06502    568.65016    78.630942    16.060217    29.434735 
   99600    234.36645   -178.44804    229018.04   -21262.674    1552.2934   -22814.967   -181.19924    569.59321    78.630348    16.061986    29.428941 
   99800    236.14512    -259.9901    229018.04   -21214.332    1564.0741   -22778.406   -467.81281    568.71111     78.63201    16.061237    29.453044 
  100000    233.13084   -266.89164    229018.04   -21234.617    1544.1095   -22778.727   -549.83537    569.93283    78.633807    16.062347    29.461015 
  100200    247.24715   -257.40792    229018.04   -21184.294    1637.6069   -22821.901   -500.04745    573.08364    78.632934    16.061734    29.477781 
  100400    238.60958   -233.94238    229018.04   -21206.897    1580.3971   -22787.294   -416.38615    572.29947    78.633308    16.056695    29.478081 
  100600    239.44114   -276.38602    229018.04   -21250.825    1585.9048    -22836.73   -597.91227     573.6027    78.633267    16.054435     29.49442 
  100800    236.65545    -349.7808    229018.04   -21175.861    1567.4542   -22743.315   -858.82786    570.56691    78.635899    16.051624    29.509377 
[...]
 3975800    227.73565   -392.59178    229018.04   -23391.278    1508.3752   -24899.653   -1065.2156    3609.0738    79.070982    17.030463    29.487709 
 3976000    216.63249   -284.92873    229018.04   -23417.761     1434.835   -24852.596   -651.04976    3609.0452    79.070898    17.027453     29.48403 
 3976200    221.10218   -206.68523    229018.04   -23379.479    1464.4393   -24843.919   -353.09973    3605.4936    79.072688    17.023379    29.486914 
 3976400     222.6797   -310.01739    229018.04   -23390.861    1474.8878   -24865.749   -779.12621    3609.4845    79.073967    17.020236    29.485787 
 3976600     227.9716   -280.97466    229018.04   -23320.912     1509.938    -24830.85   -685.41551    3609.1494    79.072815    17.016595    29.486683 
 3976800    230.71934   -204.21029    229018.04   -23332.089    1528.1372   -24860.226    -352.4232    3605.9873    79.072811    17.013909    29.499595 
 3977000    222.78022   -376.94027    229018.04   -23370.913    1475.5536   -24846.467   -1029.1474    3608.6959    79.073105    17.013706    29.499931 
 3977200    231.54104   -294.15325    229018.04    -23333.03    1533.5796    -24866.61   -686.27027    3608.5722    79.074585     17.01238    29.501762 
 3977400    226.34906   -229.19365    229018.04   -23365.881    1499.1913   -24865.072   -428.66559    3607.7653    79.075345    17.011543    29.494452 
 3977600    222.39984   -382.32536    229018.04   -23416.698    1473.0342   -24889.732   -1064.8422    3608.9443    79.076234    17.008255     29.50408 
 3977800    225.77306   -250.33064    229018.04     -23381.5    1495.3762   -24876.876   -508.67157    3607.8787      79.0776    17.006167    29.507005 
 3978000     224.6021   -271.54593    229018.04   -23380.951    1487.6205   -24868.572   -607.10368     3607.483     79.07884    17.005386    29.499277 
 3978200    222.04014   -383.22709    229018.04   -23316.045    1470.6518   -24786.697   -1006.6937    3609.0599     79.07836    17.004624    29.500516 
 3978400    226.21131   -233.40367    229018.04   -23375.272    1498.2789   -24873.551   -486.63575    3606.4414    79.077431    17.002077    29.507444 
 3978600    220.76908   -314.95423    229018.04   -23422.324    1462.2331   -24884.557   -770.66965    3608.0812    79.078032    17.001391    29.502899 
 3978800    227.00695   -402.66485    229018.04     -23375.2    1503.5487   -24878.749   -1104.8499    3609.7629    79.078847    17.001404    29.505281 
 3979000    228.41043   -212.04315    229018.04   -23253.965    1512.8445   -24766.809   -400.27197    3605.0683     79.08009    17.000019    29.502429 
 3979200     231.3757    -318.1285    229018.04   -23327.333    1532.4845   -24859.818   -758.55121    3606.4224    79.079687    16.998851    29.508066 
 3979400    222.55832   -383.20422    229018.04   -23404.561    1474.0838   -24878.645   -1032.2583    3609.9035    79.077827    16.998273    29.515058 
 3979600    230.00467   -168.71587    229018.04   -23389.798    1523.4037   -24913.201    -230.4935    3605.1793    79.076512    16.995975     29.50905 
 3979800    227.54754   -275.82053    229018.04   -23330.468    1507.1292   -24837.597   -636.27074    3607.3501    79.076932    16.997237    29.521878 
 3980000    219.18822   -334.01192    229018.04   -23426.921    1451.7625   -24878.684   -841.21057    3608.6719    79.076264    16.997087     29.52507 
 3980200    221.37649   -247.29813    229018.04   -23432.187    1466.2562   -24898.443     -529.823    3605.8356      79.0761    16.996304    29.520744 
 3980400    221.70387   -329.40134    229018.04    -23395.77    1468.4245   -24864.195   -844.68474    3607.0663     79.07596    16.995454    29.525504 
 3980600    222.43925   -335.77558    229018.04    -23415.61    1473.2952   -24888.905   -842.46136    3607.2648    79.075134    16.994109    29.526394 
 3980800    225.77952   -213.57511    229018.04   -23425.471     1495.419    -24920.89   -400.71756    3604.0185    79.074254     16.99341    29.522308 
 3981000    228.87777   -329.71633    229018.04   -23340.528    1515.9399   -24856.467   -828.52375    3608.2722    79.074667    16.993455    29.527639 
 3981200    222.54678   -319.50595    229018.04   -23393.031    1474.0075   -24867.039   -778.14571    3608.4024    79.075058    16.993087    29.518414 
 3981400    224.49366   -201.13364    229018.04   -23377.321    1486.9023   -24864.224   -329.16574    3606.5013    79.074502    16.992869    29.516422 
 3981600    229.93132   -323.75625    229018.04   -23342.253    1522.9179   -24865.171   -838.21285      3609.56    79.074202    16.993037    29.517436 
 3981800    222.72548   -262.08921    229018.04   -23412.714     1475.191   -24887.905   -562.34774    3607.5241    79.074604    16.991465    29.511586 
 3982000    225.97526   -234.49828    229018.04   -23382.185    1496.7155     -24878.9   -491.68264    3606.5812    79.072876    16.988174    29.515216 
 3982200    228.76491   -324.38162    229018.04   -23352.779    1515.1923   -24867.971   -785.19319    3608.5595    79.071763     16.98678    29.514245 
 3982400    221.20927   -340.29826    229018.04   -23360.155    1465.1486   -24825.304   -879.21811    3608.3635    79.071234    16.986883    29.513295 
 3982600    224.86844   -241.64415    229018.04   -23356.859    1489.3846   -24846.244   -508.32291    3606.4445    79.070585    16.984828    29.516262 
 3982800    224.83741   -349.28493    229018.04   -23348.181    1489.1791    -24837.36   -887.87181    3608.1059    79.071805    16.983521    29.509486 
 3983000     221.1719   -358.11167    229018.04   -23430.732    1464.9011   -24895.633   -954.93246    3606.9542    79.072831    16.982964    29.523217 
 3983200    223.94677   -264.52785    229018.04    -23395.86    1483.2801    -24879.14   -593.11839    3607.5861    79.072876     16.98008    29.526885 
 3983400    230.18286   -333.97098    229018.04   -23401.754    1524.5839   -24926.338   -846.20397    3607.7762    79.072667    16.980394    29.525869 
 3983600    229.35871   -312.91034    229018.04   -23340.182    1519.1253   -24859.307   -753.43979    3607.6354    79.071264     16.97958    29.523984 
 3983800    218.32421   -293.92242    229018.04   -23459.486    1446.0398   -24905.526   -726.33524    3606.6554    79.070896     16.97891    29.520513 
 3984000    224.33885   -352.24475    229018.04   -23373.879    1485.8769   -24859.756   -909.48546    3609.1545    79.070191    16.977519    29.527139 
 3984200    221.47521   -224.34356    229018.04   -23433.045      1466.91   -24899.955   -439.76789    3606.2719    79.069359    16.978884    29.525827 
 3984400    217.83825    -241.8446    229018.04   -23432.674    1442.8212   -24875.495   -470.00978    3607.0997    79.070195    16.978929    29.515558 
 3984600    226.15701    -389.9851    229018.04   -23384.845    1497.9193   -24882.764   -1078.9919    3608.7923    79.070933    16.977845    29.520212 
 3984800    220.13203   -263.65535    229018.04   -23414.015    1458.0136   -24872.029   -572.23693    3606.1649    79.071733    16.977421    29.530398 
 3985000    231.57642   -271.12172    229018.04   -23375.673     1533.814   -24909.487    -612.4484    3605.4526    79.071253    16.977235    29.534317 
 3985200    228.65699   -379.08392    229018.04   -23374.973    1514.4775   -24889.451   -1021.6104    3609.4966    79.071375    16.977491    29.537772 
 3985400    225.25707   -268.10966    229018.04   -23391.919    1491.9586   -24883.877   -616.89225    3607.2689    79.070754    16.976484    29.527627 
 3985600    228.21915   -191.92626    229018.04   -23346.718    1511.5775   -24858.296   -300.86742    3606.1829    79.069117    16.976754    29.534375 
 3985800    221.23176   -347.89653    229018.04   -23423.332    1465.2976    -24888.63   -884.07311    3608.7982     79.07061    16.976075    29.529573 
 3986000    230.01844   -300.52279    229018.04   -23364.344    1523.4949   -24887.839    -720.7293     3606.725    79.071526    16.975883     29.52553 
 3986200    222.08169   -250.75392    229018.04     -23373.3     1470.927   -24844.227   -534.60621    3607.0911    79.070044    16.975248    29.528275 
 3986400    223.55495   -401.22439    229018.04   -23449.847    1480.6849   -24930.532   -1146.0159    3609.6401    79.068772    16.975337    29.522482 
 3986600    225.32309   -310.53136    229018.04   -23438.979    1492.3959   -24931.375   -746.71006    3609.5343    79.068533    16.975142     29.52876 
 3986800    224.47705   -203.76704    229018.04   -23341.275    1486.7923   -24828.067   -296.00958    3608.2228    79.067291    16.973347    29.522096 
 3987000    233.06985     -360.555    229018.04    -23339.29    1543.7055   -24882.995   -973.88043    3611.1377    79.066064    16.971019    29.520148 
 3987200    222.84843   -290.61569    229018.04    -23366.42    1476.0054   -24842.426   -687.82665    3609.8625    79.065832    16.971028    29.508768 
 3987400    220.96732   -245.53692    229018.04   -23372.848    1463.5461   -24836.394   -492.73174    3606.9472    79.065116    16.971112    29.502524 
 3987600    217.93977   -332.62638    229018.04    -23428.04    1443.4936   -24871.534    -852.0521    3609.6723    79.063495    16.969569    29.512643 
 3987800    223.49145    -239.6853    229018.04   -23399.277    1480.2643   -24879.541   -469.57044    3609.6031    79.063325    16.969437    29.513893 
 3988000    229.36889   -228.43351    229018.04   -23375.223    1519.1927   -24894.415   -441.85405    3607.3445     79.06208     16.97122    29.507525 
 3988200    222.86615   -334.28402    229018.04   -23352.301    1476.1227   -24828.424   -853.86982    3610.2741    79.061641    16.971762    29.504161 
 3988400    227.78264   -172.75614    229018.04   -23332.281    1508.6864   -24840.967   -190.23685    3608.4288    79.061803    16.971651    29.503937 
 3988600    231.40367   -270.16551    229018.04   -23358.382    1532.6698   -24891.052   -603.62808    3608.8365    79.060681    16.971512    29.503514 
 3988800    219.36851    -350.5875    229018.04   -23449.782    1452.9566   -24902.739   -919.82129    3610.4342    79.060883    16.971981    29.505297 
 3989000    222.55978   -241.92289    229018.04   -23417.591    1474.0935   -24891.685   -480.35281    3608.1188    79.061724    16.972363    29.510574 
 3989200    229.61146   -289.56661    229018.04   -23345.358    1520.7993   -24866.158   -682.35541    3607.9463    79.061382    16.971083    29.516938 
 3989400    226.60096   -317.34674    229018.04   -23353.487    1500.8597   -24854.347   -779.33741    3609.9955    79.062441    16.971571    29.503736 
 3989600    223.70055   -237.21823    229018.04   -23411.468    1481.6493   -24893.117   -502.59963    3608.3466    79.061847    16.971462    29.512686 
 3989800      226.935   -191.97326    229018.04   -23371.177    1503.0722   -24874.249   -287.35184    3609.2783    79.061397     16.97214    29.515114 
 3990000    229.42225   -203.20942    229018.04   -23342.515    1519.5461   -24862.062   -328.69061    3607.8006    79.061904    16.971412    29.516503 
 3990200    222.66026    -281.1526    229018.04   -23385.892    1474.7591   -24860.651   -683.83947    3609.8916    79.060747    16.971528    29.503751 
 3990400    224.39049   -236.41124    229018.04   -23363.521     1486.219    -24849.74    -452.0276    3608.5029    79.059342    16.971395    29.504854 
 3990600    219.45027   -276.08445    229018.04    -23399.68    1453.4981   -24853.178    -653.6609    3608.5052    79.060356    16.970645     29.50586 
 3990800    228.47534   -315.46007    229018.04   -23315.527    1513.2744   -24828.801   -816.03133    3610.4043    79.059108    16.969736    29.514956 
 3991000     226.9813   -217.24232    229018.04   -23330.987    1503.3788   -24834.366   -357.47881    3608.3159    79.059452    16.969324    29.518327 
 3991200    225.69084   -303.64068    229018.04   -23376.442    1494.8317   -24871.274   -744.36315    3610.7469    79.059433    16.968661    29.516807 
 3991400    224.99533   -346.86095    229018.04    -23409.65    1490.2251   -24899.875   -913.88604    3610.9895    79.059131    16.967879    29.523853 
 3991600    219.78523   -314.60447    229018.04   -23382.955    1455.7167   -24838.672   -801.16243      3609.11    79.057547    16.967021    29.517408 
 3991800    229.21588   -317.10715    229018.04   -23328.845    1518.1793   -24847.024   -788.81276    3609.7901    79.058269    16.965893    29.516032 
 3992000    227.55145   -364.55304    229018.04   -23367.705    1507.1552    -24874.86   -984.13461    3610.0748    79.057457    16.965331    29.512915 
 3992200    230.28593   -243.00494    229018.04   -23399.373    1525.2666    -24924.64   -493.62884    3609.3566    79.058034    16.965228    29.522041 
 3992400     224.7461   -334.92905    229018.04   -23401.596    1488.5743    -24890.17   -829.09933    3611.0354    79.057361    16.965315    29.534293 
 3992600    227.69098   -313.98927    229018.04   -23349.457    1508.0793   -24857.536   -763.21406    3610.0453    79.056439    16.965169    29.525722 
 3992800    229.00155   -243.14042    229018.04    -23331.32    1516.7597    -24848.08   -489.91565    3610.1931    79.056308    16.964107    29.541768 
 3993000    232.15348   -325.25862    229018.04   -23312.755     1537.636   -24850.391    -802.8437    3611.2389    79.055523    16.965425    29.534699 
 3993200    227.37446    -390.8941    229018.04   -23329.529    1505.9829   -24835.512   -1076.2571    3611.7976    79.055892    16.964388    29.523489 
 3993400    226.95969   -286.56408    229018.04   -23369.449    1503.2357   -24872.684    -629.8124    3611.1695    79.056456    16.964563    29.527283 
 3993600    224.14964   -277.60666    229018.04   -23407.849    1484.6237   -24892.473   -642.23224    3609.1574    79.056743    16.965824    29.524129 
 3993800    219.76053   -245.81913    229018.04   -23446.384    1455.5531   -24901.937   -487.19299    3608.8492    79.057303    16.964581     29.53864 
 3994000    217.63396   -341.48799    229018.04   -23447.776     1441.468   -24889.244   -910.95734    3611.2714    79.056814    16.964656    29.540044 
 3994200    224.46675   -263.67296    229018.04   -23373.687     1486.724   -24860.411   -619.74454    3608.8496    79.057352    16.965774     29.53817 
 3994400    218.32863   -317.87183    229018.04   -23387.459    1446.0691   -24833.528   -803.82416    3609.5676     79.05681    16.966248    29.548791 
 3994600    220.96211   -281.24003    229018.04   -23376.694    1463.5116   -24840.206   -653.79597    3611.6803    79.057026    16.965162    29.543894 
 3994800     219.2868   -294.39552    229018.04    -23364.82    1452.4154   -24817.235   -712.13685    3609.0164    79.056263     16.96524    29.543599 
 3995000    220.89909   -310.48869    229018.04   -23400.217    1463.0942   -24863.311   -763.43725    3610.9711    79.055757    16.964773    29.540782 
 3995200     217.0537   -336.01779    229018.04   -23433.842    1437.6248   -24871.467   -857.99215    3611.9748    79.057044    16.962731      29.5482 
 3995400     229.1535   -245.59669    229018.04   -23390.193    1517.7661   -24907.959   -505.91787    3609.7257     79.05727    16.963153    29.537126 
 3995600    224.16523   -288.92856    229018.04   -23377.267     1484.727   -24861.994   -668.79122     3609.834      79.0576    16.961053    29.525795 
 3995800    220.04427   -374.60047    229018.04   -23440.053    1457.4324   -24897.486   -1015.0168    3611.9492    79.057323    16.959489    29.523846 
 3996000    223.26226   -208.69173    229018.04   -23397.897    1478.7463   -24876.644    -351.6795    3609.5061    79.057331    16.958009    29.526501 
 3996200    228.72471   -231.60811    229018.04   -23380.265    1514.9261   -24895.191    -466.5316    3609.0726    79.056331    16.957286    29.513068 
 3996400    216.39507   -376.56544    229018.04   -23428.113    1433.2624   -24861.375   -1019.8947    3610.9518    79.056405    16.955337    29.519838 
 3996600    223.88518   -291.09945    229018.04   -23454.957    1482.8722   -24937.829   -711.68574    3609.9143    79.055548     16.95385    29.506794 
 3996800    219.40084   -221.62601    229018.04   -23406.345    1453.1707   -24859.516   -412.78228    3608.2118    79.055665    16.952716    29.523511 
 3997000    230.24358   -353.95623    229018.04   -23363.151    1524.9861   -24888.137   -930.16055    3609.6863    79.055706    16.951822    29.517842 
 3997200     220.3898   -258.44086    229018.04   -23429.144     1459.721   -24888.865   -558.96678    3610.0442    79.056533    16.951354    29.533504 
 3997400    224.50649    -179.5833    229018.04   -23400.812    1486.9873     -24887.8   -211.79939     3607.105    79.057279    16.951429    29.513451 
 3997600    221.98874   -358.91307    229018.04   -23407.411    1470.3113   -24877.722    -949.2866     3609.852    79.056825    16.949799    29.523177 
 3997800    228.72905   -352.47496    229018.04   -23379.819    1514.9548   -24894.773   -897.39911     3611.568    79.055398     16.94817    29.525047 
 3998000    224.96872    -257.5318    229018.04   -23393.353    1490.0488   -24883.402   -568.17713    3606.5357     79.05355    16.949474    29.537146 
 3998200    233.70433    -348.3819    229018.04    -23348.69    1547.9079   -24896.598   -914.40482    3609.2465    79.053215    16.947961    29.543519 
 3998400     222.4433   -337.83627    229018.04   -23404.917     1473.322   -24878.239   -863.77312    3609.5025    79.053116    16.946351    29.539194 
 3998600    224.63011   -258.06121    229018.04   -23389.237     1487.806   -24877.044     -542.775    3608.5247    79.053669    16.946016    29.540569 
 3998800    225.00358   -376.66738    229018.04   -23392.565    1490.2797   -24882.845   -1020.8081    3609.8202     79.05178    16.943213    29.529421 
 3999000    227.16841   -320.84101    229018.04   -23407.234    1504.6182   -24911.852   -769.51244    3608.1437    79.049597     16.94326      29.5208 
 3999200    227.00387   -270.10304    229018.04    -23388.77    1503.5284   -24892.298   -625.38811    3607.2927    79.048191    16.943828    29.526427 
 3999400    223.69153   -327.08433    229018.04   -23385.984    1481.5895   -24867.574   -811.51316    3609.4698     79.04675    16.943806    29.524936 
 3999600    225.82811   -300.58121    229018.04   -23401.678    1495.7408   -24897.419   -721.94311    3609.7051    79.045648    16.943949    29.514802 
 3999800    228.17775    -184.5562    229018.04   -23387.952    1511.3034   -24899.255   -252.84663    3607.1999    79.044923    16.944408    29.518769 
 4000000    224.88844   -355.85929    229018.04   -23371.658    1489.5171   -24861.175   -924.77367    3611.1555    79.043772    16.943262    29.508232 
Loop time of 11723.4 on 60 procs for 4000000 steps with 8943 atoms

Performance: 294.796 ns/day, 0.081 hours/ns, 341.198 timesteps/s
98.0% CPU use with 60 MPI tasks x no OpenMP threads

MPI task timing breakdown:
Section |  min time  |  avg time  |  max time  |%varavg| %total
---------------------------------------------------------------
Pair    | 0.28959    | 2910.5     | 10275      |7056.3 | 24.83
Neigh   | 2.1265     | 186.79     | 549.77     |1437.5 |  1.59
Comm    | 86.876     | 3680.3     | 9995.7     |6591.6 | 31.39
Output  | 115.61     | 115.67     | 115.81     |   0.3 |  0.99
Modify  | 113.13     | 4785       | 11481      |7295.2 | 40.82
Other   |            | 45.18      |            |       |  0.39

Nlocal:    149.05 ave 375 max 0 min
Histogram: 24 0 2 14 0 0 0 0 3 17
Nghost:    817.25 ave 1256 max 360 min
Histogram: 8 4 0 0 20 8 4 4 4 8
Neighs:    0 ave 0 max 0 min
Histogram: 60 0 0 0 0 0 0 0 0 0
FullNghs:  14916.1 ave 45018 max 0 min
Histogram: 29 11 0 0 0 0 0 2 10 8

Total # of neighbors = 894966
Ave neighs/atom = 100.074
Neighbor list builds = 411632
Dangerous builds = 0
write_data 		${DIR}/data.${NAME}_run
write_data 		run_9/data.${NAME}_run
write_data 		run_9/data.ibeam_cooling_9_run
Total wall time: 3:15:53
