LAMMPS data file via write_data, version 29 Oct 2020, timestep = 6000000

8098 atoms
2 atom types

0.0 78.752 xlo xhi
0.0 68.92587069519459 ylo yhi
0.0 33.96350954342557 zlo zhi

Masses

1 12.01
2 18.015

Atoms # atomic

1 1 0.0 2.8417180249513345 1.677 0 0 0
3 1 0.0 0.0 1.677 0 0 0
5 1 1.2305 0.7104295062378347 1.677 0 0 0
12 1 1.2305 2.1312885187135 1.677 0 0 0
14 1 2.461 2.8417180249513345 1.677 0 0 0
16 1 2.461 0.0 1.677 0 0 0
18 1 3.6915 0.7104295062378347 1.677 0 0 0
33 1 3.6914999999999996 2.1312885187135 1.677 0 0 0
35 1 4.922 2.841718024951334 1.677 0 0 0
37 1 4.922 0.0 1.677 0 0 0
39 1 6.1525 0.7104295062378343 1.677 0 0 0
62 1 6.1525 2.1312885187134993 1.677 0 0 0
64 1 7.382999999999999 2.8417180249513345 1.677 0 0 0
66 1 7.382999999999999 0.0 1.677 0 0 0
68 1 8.613499999999998 0.7104295062378343 1.677 0 0 0
99 1 8.613499999999998 2.1312885187135002 1.677 0 0 0
101 1 9.844 2.8417180249513336 1.677 0 0 0
103 1 9.844 0.0 1.677 0 0 0
105 1 11.0745 0.7104295062378334 1.677 0 0 0
143 1 11.0745 2.1312885187135002 1.677 0 0 0
145 1 12.305 2.8417180249513336 1.677 0 0 0
147 1 12.305 0.0 1.677 0 0 0
149 1 13.535499999999999 0.7104295062378352 1.677 0 0 0
187 1 13.535499999999999 2.1312885187134984 1.677 0 0 0
189 1 14.765999999999998 2.8417180249513354 1.677 0 0 0
191 1 14.765999999999998 0.0 1.677 0 0 0
193 1 15.9965 0.7104295062378352 1.677 0 0 0
231 1 15.9965 2.1312885187135002 1.677 0 0 0
233 1 17.226999999999997 2.8417180249513336 1.677 0 0 0
235 1 17.227 0.0 1.677 0 0 0
237 1 18.457499999999996 0.7104295062378334 1.677 0 0 0
275 1 18.4575 2.1312885187135002 1.677 0 0 0
6 1 0.0 7.104295062378334 1.677 0 0 0
8 1 0.0 4.262577037427 1.677 0 0 0
10 1 1.2305000000000001 4.973006543664834 1.677 0 0 0
25 1 1.2305 6.393865556140499 1.677 0 0 0
27 1 2.461 7.104295062378334 1.677 0 0 0
29 1 2.461 4.262577037427 1.677 0 0 0
31 1 3.6914999999999996 4.973006543664834 1.677 0 0 0
54 1 3.6914999999999996 6.393865556140499 1.677 0 0 0
56 1 4.922 7.104295062378334 1.677 0 0 0
58 1 4.922 4.262577037426999 1.677 0 0 0
60 1 6.1525 4.973006543664834 1.677 0 0 0
91 1 6.1525 6.393865556140499 1.677 0 0 0
93 1 7.383 7.104295062378334 1.677 0 0 0
95 1 7.382999999999999 4.262577037427 1.677 0 0 0
97 1 8.6135 4.973006543664834 1.677 0 0 0
135 1 8.6135 6.3938655561405 1.677 0 0 0
137 1 9.844 7.104295062378334 1.677 0 0 0
139 1 9.844 4.2625770374270004 1.677 0 0 0
141 1 11.074499999999999 4.973006543664834 1.677 0 0 0
179 1 11.074499999999999 6.393865556140499 1.677 0 0 0
181 1 12.305 7.104295062378334 1.677 0 0 0
183 1 12.305 4.262577037426999 1.677 0 0 0
185 1 13.535499999999999 4.973006543664834 1.677 0 0 0
223 1 13.535499999999999 6.393865556140499 1.677 0 0 0
225 1 14.765999999999998 7.104295062378332 1.677 0 0 0
227 1 14.766 4.262577037426999 1.677 0 0 0
229 1 15.996499999999997 4.973006543664834 1.677 0 0 0
267 1 15.9965 6.393865556140499 1.677 0 0 0
269 1 17.227 7.104295062378338 1.677 0 0 0
271 1 17.226999999999997 4.2625770374270004 1.677 0 0 0
273 1 18.4575 4.973006543664837 1.677 0 0 0
307 1 18.457499999999996 6.393865556140501 1.677 0 0 0
19 1 0.0 11.366872099805333 1.677 0 0 0
21 1 0.0 8.525154074854 1.677 0 0 0
23 1 1.2304999999999997 9.235583581091834 1.677 0 0 0
46 1 1.2304999999999997 10.656442593567498 1.677 0 0 0
48 1 2.461 11.366872099805335 1.677 0 0 0
50 1 2.4609999999999994 8.525154074854 1.677 0 0 0
52 1 3.6915 9.235583581091834 1.677 0 0 0
83 1 3.6914999999999996 10.6564425935675 1.677 0 0 0
85 1 4.922 11.366872099805333 1.677 0 0 0
87 1 4.922 8.525154074854 1.677 0 0 0
89 1 6.1525 9.235583581091834 1.677 0 0 0
127 1 6.1525 10.6564425935675 1.677 0 0 0
129 1 7.382999999999999 11.366872099805335 1.677 0 0 0
131 1 7.383 8.525154074854 1.677 0 0 0
133 1 8.613499999999998 9.235583581091834 1.677 0 0 0
171 1 8.613499999999998 10.656442593567498 1.677 0 0 0
173 1 9.844 11.366872099805335 1.677 0 0 0
175 1 9.844 8.525154074853997 1.677 0 0 0
177 1 11.074499999999999 9.235583581091834 1.677 0 0 0
215 1 11.0745 10.656442593567498 1.677 0 0 0
217 1 12.304999999999998 11.366872099805333 1.677 0 0 0
219 1 12.305 8.525154074854 1.677 0 0 0
221 1 13.535499999999999 9.235583581091833 1.677 0 0 0
259 1 13.535499999999999 10.6564425935675 1.677 0 0 0
261 1 14.765999999999998 11.366872099805336 1.677 0 0 0
263 1 14.765999999999998 8.525154074854 1.677 0 0 0
265 1 15.9965 9.235583581091836 1.677 0 0 0
299 1 15.996499999999997 10.6564425935675 1.677 0 0 0
301 1 17.227 11.366872099805336 1.677 0 0 0
303 1 17.226999999999997 8.525154074854 1.677 0 0 0
305 1 18.4575 9.235583581091838 1.677 0 0 0
331 1 18.4575 10.6564425935675 1.677 0 0 0
42 1 0.0 12.787731112280998 1.677 0 0 0
44 1 1.2305000000000001 13.498160618518833 1.677 0 0 0
75 1 1.2305000000000001 14.919019630994498 1.677 0 0 0
79 1 2.461 12.787731112280998 1.677 0 0 0
81 1 3.6915 13.498160618518833 1.677 0 0 0
119 1 3.6915 14.919019630994498 1.677 0 0 0
123 1 4.922 12.787731112281 1.677 0 0 0
125 1 6.152499999999999 13.498160618518833 1.677 0 0 0
163 1 6.152499999999999 14.919019630994498 1.677 0 0 0
167 1 7.382999999999999 12.787731112280998 1.677 0 0 0
169 1 8.6135 13.498160618518835 1.677 0 0 0
207 1 8.6135 14.919019630994498 1.677 0 0 0
211 1 9.844 12.787731112280998 1.677 0 0 0
213 1 11.074499999999999 13.498160618518833 1.677 0 0 0
251 1 11.074499999999999 14.919019630994498 1.677 0 0 0
255 1 12.305 12.787731112280998 1.677 0 0 0
257 1 13.535499999999999 13.498160618518837 1.677 0 0 0
291 1 13.535499999999999 14.919019630994498 1.677 0 0 0
295 1 14.765999999999998 12.787731112281 1.677 0 0 0
297 1 15.996500000000001 13.498160618518837 1.677 0 0 0
323 1 15.9965 14.9190196309945 1.677 0 0 0
327 1 17.227 12.787731112281 1.677 0 0 0
329 1 18.4575 13.498160618518833 1.677 0 0 0
346 1 18.4575 14.9190196309945 1.677 0 0 0
40 1 0.0 15.629449137232333 1.677 0 0 0
71 1 0.0 17.050308149708 1.677 0 0 0
73 1 1.2305000000000001 17.76073765594583 1.677 0 0 0
77 1 2.4610000000000003 15.629449137232331 1.677 0 0 0
115 1 2.4610000000000003 17.050308149708 1.677 0 0 0
117 1 3.6914999999999996 17.76073765594583 1.677 0 0 0
121 1 4.921999999999999 15.629449137232333 1.677 0 0 0
159 1 4.921999999999999 17.050308149708 1.677 0 0 0
161 1 6.1525 17.76073765594583 1.677 0 0 0
165 1 7.382999999999999 15.629449137232333 1.677 0 0 0
203 1 7.383 17.050308149708 1.677 0 0 0
205 1 8.613499999999998 17.76073765594583 1.677 0 0 0
209 1 9.844 15.629449137232331 1.677 0 0 0
247 1 9.844 17.050308149708 1.677 0 0 0
249 1 11.0745 17.760737655945835 1.677 0 0 0
253 1 12.305 15.629449137232337 1.677 0 0 0
287 1 12.304999999999998 17.050308149708 1.677 0 0 0
289 1 13.5355 17.760737655945835 1.677 0 0 0
293 1 14.766 15.629449137232337 1.677 0 0 0
319 1 14.766 17.050308149708 1.677 0 0 0
321 1 15.9965 17.76073765594583 1.677 0 0 0
325 1 17.227 15.629449137232333 1.677 0 0 0
342 1 17.226999999999997 17.050308149708002 1.677 0 0 0
344 1 18.4575 17.76073765594583 1.677 0 0 0
69 1 0.0 19.892026174659332 1.677 0 0 0
107 1 0.0 21.312885187135 1.677 0 0 0
109 1 1.2304999999999993 22.023314693372832 1.677 0 0 0
111 1 1.2305000000000001 19.1815966684215 1.677 0 0 0
113 1 2.4609999999999994 19.892026174659332 1.677 0 0 0
151 1 2.4609999999999994 21.312885187134995 1.677 0 0 0
153 1 3.6914999999999996 22.023314693372832 1.677 0 0 0
155 1 3.6914999999999996 19.1815966684215 1.677 0 0 0
157 1 4.922 19.892026174659332 1.677 0 0 0
195 1 4.922000000000001 21.312885187134995 1.677 0 0 0
197 1 6.152499999999999 22.023314693372832 1.677 0 0 0
199 1 6.1525 19.1815966684215 1.677 0 0 0
201 1 7.382999999999999 19.892026174659332 1.677 0 0 0
239 1 7.382999999999999 21.312885187135 1.677 0 0 0
241 1 8.6135 22.023314693372836 1.677 0 0 0
243 1 8.6135 19.1815966684215 1.677 0 0 0
245 1 9.844 19.892026174659335 1.677 0 0 0
279 1 9.844 21.312885187135 1.677 0 0 0
281 1 11.0745 22.023314693372836 1.677 0 0 0
283 1 11.074499999999999 19.1815966684215 1.677 0 0 0
285 1 12.305000000000001 19.892026174659335 1.677 0 0 0
311 1 12.305 21.312885187135 1.677 0 0 0
313 1 13.5355 22.023314693372832 1.677 0 0 0
315 1 13.535499999999999 19.1815966684215 1.677 0 0 0
317 1 14.766 19.892026174659332 1.677 0 0 0
334 1 14.765999999999998 21.312885187135 1.677 0 0 0
336 1 15.996500000000001 22.023314693372832 1.677 0 0 0
338 1 15.9965 19.1815966684215 1.677 0 0 0
340 1 17.227 19.892026174659335 1.677 0 0 0
349 1 17.226999999999997 21.312885187134995 1.677 0 0 0
351 1 18.4575 22.023314693372832 1.677 0 0 0
353 1 18.457499999999996 19.1815966684215 1.677 0 0 0
2 1 0.0 1.420859012475665 5.031000000000001 0 0 0
4 1 0.0 0.0 5.031000000000001 0 0 0
11 1 1.2305 3.552147531189165 5.031000000000001 0 0 0
13 1 1.2305 2.1312885187135 5.031000000000001 0 0 0
15 1 2.461 1.420859012475665 5.031000000000001 0 0 0
17 1 2.461 0.0 5.031000000000001 0 0 0
32 1 3.6914999999999996 3.552147531189165 5.031000000000001 0 0 0
34 1 3.6914999999999996 2.1312885187135 5.031000000000001 0 0 0
36 1 4.922 1.420859012475665 5.031000000000001 0 0 0
38 1 4.922 0.0 5.031000000000001 0 0 0
61 1 6.1525 3.5521475311891653 5.031000000000001 0 0 0
63 1 6.1525 2.1312885187134993 5.031000000000001 0 0 0
65 1 7.382999999999999 1.420859012475666 5.031000000000001 0 0 0
67 1 7.382999999999999 0.0 5.031000000000001 0 0 0
98 1 8.613499999999998 3.552147531189166 5.031000000000001 0 0 0
100 1 8.613499999999998 2.1312885187135002 5.031000000000001 0 0 0
102 1 9.844 1.420859012475666 5.031000000000001 0 0 0
104 1 9.844 0.0 5.031000000000001 0 0 0
142 1 11.0745 3.5521475311891644 5.031000000000001 0 0 0
144 1 11.0745 2.1312885187135002 5.031000000000001 0 0 0
146 1 12.305 1.420859012475665 5.031000000000001 0 0 0
148 1 12.305 0.0 5.031000000000001 0 0 0
186 1 13.535499999999999 3.5521475311891653 5.031000000000001 0 0 0
188 1 13.535499999999999 2.1312885187134984 5.031000000000001 0 0 0
190 1 14.765999999999998 1.420859012475665 5.031000000000001 0 0 0
192 1 14.765999999999998 0.0 5.031000000000001 0 0 0
230 1 15.996499999999997 3.5521475311891653 5.031000000000001 0 0 0
232 1 15.9965 2.1312885187135002 5.031000000000001 0 0 0
234 1 17.226999999999997 1.420859012475665 5.031000000000001 0 0 0
236 1 17.227 0.0 5.031000000000001 0 0 0
274 1 18.457499999999996 3.5521475311891617 5.031000000000001 0 0 0
276 1 18.4575 2.1312885187135002 5.031000000000001 0 0 0
277 1 19.687999999999995 1.4208590124756633 5.031000000000001 0 0 0
7 1 0.0 5.683436049902665 5.031000000000001 0 0 0
9 1 0.0 4.262577037427 5.031000000000001 0 0 0
26 1 1.2305 6.393865556140499 5.031000000000001 0 0 0
28 1 2.461 5.683436049902665 5.031000000000001 0 0 0
30 1 2.461 4.262577037427 5.031000000000001 0 0 0
55 1 3.6914999999999996 6.393865556140499 5.031000000000001 0 0 0
57 1 4.922 5.6834360499026655 5.031000000000001 0 0 0
59 1 4.922 4.262577037426999 5.031000000000001 0 0 0
92 1 6.1525 6.393865556140499 5.031000000000001 0 0 0
94 1 7.382999999999999 5.6834360499026655 5.031000000000001 0 0 0
96 1 7.382999999999999 4.262577037427 5.031000000000001 0 0 0
136 1 8.6135 6.3938655561405 5.031000000000001 0 0 0
138 1 9.844 5.683436049902665 5.031000000000001 0 0 0
140 1 9.844 4.2625770374270004 5.031000000000001 0 0 0
180 1 11.074499999999999 6.393865556140499 5.031000000000001 0 0 0
182 1 12.305 5.683436049902665 5.031000000000001 0 0 0
184 1 12.305 4.262577037426999 5.031000000000001 0 0 0
224 1 13.535499999999999 6.393865556140499 5.031000000000001 0 0 0
226 1 14.765999999999998 5.6834360499026655 5.031000000000001 0 0 0
228 1 14.766 4.262577037426999 5.031000000000001 0 0 0
268 1 15.9965 6.393865556140499 5.031000000000001 0 0 0
270 1 17.226999999999997 5.683436049902662 5.031000000000001 0 0 0
272 1 17.226999999999997 4.2625770374270004 5.031000000000001 0 0 0
308 1 18.457499999999996 6.393865556140501 5.031000000000001 0 0 0
309 1 19.687999999999995 5.683436049902662 5.031000000000001 0 0 0
20 1 0.0 9.946013087329664 5.031000000000001 0 0 0
22 1 0.0 8.525154074854 5.031000000000001 0 0 0
24 1 1.2304999999999997 7.814724568616164 5.031000000000001 0 0 0
47 1 1.2304999999999997 10.656442593567498 5.031000000000001 0 0 0
49 1 2.4609999999999994 9.946013087329664 5.031000000000001 0 0 0
51 1 2.4609999999999994 8.525154074854 5.031000000000001 0 0 0
53 1 3.6914999999999996 7.814724568616165 5.031000000000001 0 0 0
84 1 3.6914999999999996 10.6564425935675 5.031000000000001 0 0 0
86 1 4.922 9.946013087329666 5.031000000000001 0 0 0
88 1 4.922 8.525154074854 5.031000000000001 0 0 0
90 1 6.1525 7.814724568616166 5.031000000000001 0 0 0
128 1 6.1525 10.6564425935675 5.031000000000001 0 0 0
130 1 7.383 9.946013087329664 5.031000000000001 0 0 0
132 1 7.383 8.525154074854 5.031000000000001 0 0 0
134 1 8.6135 7.814724568616164 5.031000000000001 0 0 0
172 1 8.613499999999998 10.656442593567498 5.031000000000001 0 0 0
174 1 9.844 9.946013087329664 5.031000000000001 0 0 0
176 1 9.844 8.525154074853997 5.031000000000001 0 0 0
178 1 11.0745 7.814724568616165 5.031000000000001 0 0 0
216 1 11.0745 10.656442593567498 5.031000000000001 0 0 0
218 1 12.305 9.946013087329664 5.031000000000001 0 0 0
220 1 12.305 8.525154074854 5.031000000000001 0 0 0
222 1 13.535499999999999 7.814724568616165 5.031000000000001 0 0 0
260 1 13.535499999999999 10.6564425935675 5.031000000000001 0 0 0
262 1 14.765999999999998 9.94601308732966 5.031000000000001 0 0 0
264 1 14.765999999999998 8.525154074854 5.031000000000001 0 0 0
266 1 15.996499999999997 7.814724568616162 5.031000000000001 0 0 0
300 1 15.996499999999997 10.6564425935675 5.031000000000001 0 0 0
302 1 17.226999999999997 9.946013087329662 5.031000000000001 0 0 0
304 1 17.226999999999997 8.525154074854 5.031000000000001 0 0 0
306 1 18.457499999999996 7.814724568616162 5.031000000000001 0 0 0
332 1 18.4575 10.6564425935675 5.031000000000001 0 0 0
41 1 0.0 14.208590124756665 5.031000000000001 0 0 0
43 1 0.0 12.787731112280998 5.031000000000001 0 0 0
45 1 1.2304999999999997 12.077301606043164 5.031000000000001 0 0 0
76 1 1.2305000000000001 14.919019630994498 5.031000000000001 0 0 0
78 1 2.461 14.208590124756665 5.031000000000001 0 0 0
80 1 2.461 12.787731112280998 5.031000000000001 0 0 0
82 1 3.6914999999999996 12.077301606043164 5.031000000000001 0 0 0
120 1 3.6915 14.919019630994498 5.031000000000001 0 0 0
122 1 4.922 14.208590124756663 5.031000000000001 0 0 0
124 1 4.922 12.787731112281 5.031000000000001 0 0 0
126 1 6.1525 12.077301606043164 5.031000000000001 0 0 0
164 1 6.152499999999999 14.919019630994498 5.031000000000001 0 0 0
166 1 7.383 14.208590124756665 5.031000000000001 0 0 0
168 1 7.382999999999999 12.787731112280998 5.031000000000001 0 0 0
170 1 8.6135 12.077301606043164 5.031000000000001 0 0 0
208 1 8.6135 14.919019630994498 5.031000000000001 0 0 0
210 1 9.844 14.208590124756665 5.031000000000001 0 0 0
212 1 9.844 12.787731112280998 5.031000000000001 0 0 0
214 1 11.074499999999999 12.077301606043164 5.031000000000001 0 0 0
252 1 11.074499999999999 14.919019630994498 5.031000000000001 0 0 0
254 1 12.304999999999998 14.208590124756661 5.031000000000001 0 0 0
256 1 12.305 12.787731112280998 5.031000000000001 0 0 0
258 1 13.535499999999999 12.07730160604316 5.031000000000001 0 0 0
292 1 13.535499999999999 14.919019630994498 5.031000000000001 0 0 0
294 1 14.765999999999998 14.208590124756661 5.031000000000001 0 0 0
296 1 14.765999999999998 12.787731112281 5.031000000000001 0 0 0
298 1 15.996499999999997 12.07730160604316 5.031000000000001 0 0 0
324 1 15.9965 14.9190196309945 5.031000000000001 0 0 0
326 1 17.226999999999997 14.208590124756661 5.031000000000001 0 0 0
328 1 17.227 12.787731112281 5.031000000000001 0 0 0
330 1 18.4575 12.077301606043163 5.031000000000001 0 0 0
347 1 18.4575 14.9190196309945 5.031000000000001 0 0 0
70 1 0.0 18.471167162183665 5.031000000000001 0 0 0
72 1 0.0 17.050308149708 5.031000000000001 0 0 0
74 1 1.2305000000000001 16.339878643470165 5.031000000000001 0 0 0
114 1 2.4610000000000003 18.47116716218366 5.031000000000001 0 0 0
116 1 2.4610000000000003 17.050308149708 5.031000000000001 0 0 0
118 1 3.6915 16.339878643470165 5.031000000000001 0 0 0
158 1 4.922000000000001 18.47116716218366 5.031000000000001 0 0 0
160 1 4.921999999999999 17.050308149708 5.031000000000001 0 0 0
162 1 6.1525 16.339878643470165 5.031000000000001 0 0 0
202 1 7.382999999999999 18.471167162183665 5.031000000000001 0 0 0
204 1 7.383 17.050308149708 5.031000000000001 0 0 0
206 1 8.613499999999998 16.339878643470165 5.031000000000001 0 0 0
246 1 9.843999999999998 18.47116716218366 5.031000000000001 0 0 0
248 1 9.844 17.050308149708 5.031000000000001 0 0 0
250 1 11.074499999999999 16.33987864347016 5.031000000000001 0 0 0
286 1 12.304999999999998 18.47116716218366 5.031000000000001 0 0 0
288 1 12.304999999999998 17.050308149708 5.031000000000001 0 0 0
290 1 13.535499999999997 16.33987864347016 5.031000000000001 0 0 0
318 1 14.765999999999998 18.47116716218366 5.031000000000001 0 0 0
320 1 14.766 17.050308149708 5.031000000000001 0 0 0
322 1 15.996499999999997 16.33987864347016 5.031000000000001 0 0 0
341 1 17.226999999999997 18.47116716218366 5.031000000000001 0 0 0
343 1 17.226999999999997 17.050308149708002 5.031000000000001 0 0 0
345 1 18.457499999999996 16.33987864347016 5.031000000000001 0 0 0
355 1 19.687999999999995 18.47116716218366 5.031000000000001 0 0 0
106 1 0.0 22.733744199610662 5.031000000000001 0 0 0
108 1 0.0 21.312885187135 5.031000000000001 0 0 0
110 1 1.2305000000000001 20.602455680897165 5.031000000000001 0 0 0
112 1 1.2305000000000001 19.1815966684215 5.031000000000001 0 0 0
150 1 2.4610000000000003 22.733744199610662 5.031000000000001 0 0 0
152 1 2.4609999999999994 21.312885187134995 5.031000000000001 0 0 0
154 1 3.6915000000000004 20.602455680897165 5.031000000000001 0 0 0
156 1 3.6914999999999996 19.1815966684215 5.031000000000001 0 0 0
194 1 4.922 22.733744199610662 5.031000000000001 0 0 0
196 1 4.922000000000001 21.312885187134995 5.031000000000001 0 0 0
198 1 6.1525 20.602455680897165 5.031000000000001 0 0 0
200 1 6.1525 19.1815966684215 5.031000000000001 0 0 0
238 1 7.382999999999999 22.733744199610662 5.031000000000001 0 0 0
240 1 7.382999999999999 21.312885187135 5.031000000000001 0 0 0
242 1 8.613499999999998 20.60245568089716 5.031000000000001 0 0 0
244 1 8.6135 19.1815966684215 5.031000000000001 0 0 0
278 1 9.843999999999998 22.733744199610662 5.031000000000001 0 0 0
280 1 9.844 21.312885187135 5.031000000000001 0 0 0
282 1 11.074499999999997 20.60245568089716 5.031000000000001 0 0 0
284 1 11.074499999999999 19.1815966684215 5.031000000000001 0 0 0
310 1 12.304999999999998 22.733744199610662 5.031000000000001 0 0 0
312 1 12.305 21.312885187135 5.031000000000001 0 0 0
314 1 13.535499999999999 20.60245568089716 5.031000000000001 0 0 0
316 1 13.535499999999999 19.1815966684215 5.031000000000001 0 0 0
333 1 14.765999999999998 22.733744199610662 5.031000000000001 0 0 0
335 1 14.765999999999998 21.312885187135 5.031000000000001 0 0 0
337 1 15.996499999999997 20.60245568089716 5.031000000000001 0 0 0
339 1 15.9965 19.1815966684215 5.031000000000001 0 0 0
348 1 17.226999999999997 22.733744199610662 5.031000000000001 0 0 0
350 1 17.226999999999997 21.312885187134995 5.031000000000001 0 0 0
352 1 18.457499999999996 20.60245568089716 5.031000000000001 0 0 0
354 1 18.457499999999996 19.1815966684215 5.031000000000001 0 0 0
356 1 19.687999999999995 22.733744199610662 5.031000000000001 0 0 0
357 1 0.0 2.8417180249513345 8.385 0 0 0
358 1 0.0 0.0 8.385 0 0 0
359 1 1.2305 0.7104295062378347 8.385 0 0 0
363 1 1.2305 2.1312885187135 8.385 0 0 0
364 1 2.461 2.8417180249513345 8.385 0 0 0
365 1 2.461 0.0 8.385 0 0 0
366 1 3.6915 0.7104295062378347 8.385 0 0 0
374 1 3.6914999999999996 2.1312885187135 8.385 0 0 0
375 1 4.922 2.841718024951334 8.385 0 0 0
376 1 4.922 0.0 8.385 0 0 0
377 1 6.1525 0.7104295062378343 8.385 0 0 0
389 1 6.1525 2.1312885187134993 8.385 0 0 0
390 1 7.382999999999999 2.8417180249513345 8.385 0 0 0
391 1 7.382999999999999 0.0 8.385 0 0 0
392 1 8.613499999999998 0.7104295062378343 8.385 0 0 0
408 1 8.613499999999998 2.1312885187135002 8.385 0 0 0
409 1 9.844 2.8417180249513336 8.385 0 0 0
410 1 9.844 0.0 8.385 0 0 0
411 1 11.0745 0.7104295062378334 8.385 0 0 0
430 1 11.0745 2.1312885187135002 8.385 0 0 0
431 1 12.305 2.8417180249513336 8.385 0 0 0
432 1 12.305 0.0 8.385 0 0 0
433 1 13.535499999999999 0.7104295062378352 8.385 0 0 0
452 1 13.535499999999999 2.1312885187134984 8.385 0 0 0
453 1 14.765999999999998 2.8417180249513354 8.385 0 0 0
454 1 14.765999999999998 0.0 8.385 0 0 0
455 1 15.9965 0.7104295062378352 8.385 0 0 0
474 1 15.9965 2.1312885187135002 8.385 0 0 0
475 1 17.226999999999997 2.8417180249513336 8.385 0 0 0
476 1 17.227 0.0 8.385 0 0 0
477 1 18.457499999999996 0.7104295062378334 8.385 0 0 0
496 1 18.4575 2.1312885187135002 8.385 0 0 0
360 1 0.0 7.104295062378334 8.385 0 0 0
361 1 0.0 4.262577037427 8.385 0 0 0
362 1 1.2305000000000001 4.973006543664834 8.385 0 0 0
370 1 1.2305 6.393865556140499 8.385 0 0 0
371 1 2.461 7.104295062378334 8.385 0 0 0
372 1 2.461 4.262577037427 8.385 0 0 0
373 1 3.6914999999999996 4.973006543664834 8.385 0 0 0
385 1 3.6914999999999996 6.393865556140499 8.385 0 0 0
386 1 4.922 7.104295062378334 8.385 0 0 0
387 1 4.922 4.262577037426999 8.385 0 0 0
388 1 6.1525 4.973006543664834 8.385 0 0 0
404 1 6.1525 6.393865556140499 8.385 0 0 0
405 1 7.383 7.104295062378334 8.385 0 0 0
406 1 7.382999999999999 4.262577037427 8.385 0 0 0
407 1 8.6135 4.973006543664834 8.385 0 0 0
426 1 8.6135 6.3938655561405 8.385 0 0 0
427 1 9.844 7.104295062378334 8.385 0 0 0
428 1 9.844 4.2625770374270004 8.385 0 0 0
429 1 11.074499999999999 4.973006543664834 8.385 0 0 0
448 1 11.074499999999999 6.393865556140499 8.385 0 0 0
449 1 12.305 7.104295062378334 8.385 0 0 0
450 1 12.305 4.262577037426999 8.385 0 0 0
451 1 13.535499999999999 4.973006543664834 8.385 0 0 0
470 1 13.535499999999999 6.393865556140499 8.385 0 0 0
471 1 14.765999999999998 7.104295062378332 8.385 0 0 0
472 1 14.766 4.262577037426999 8.385 0 0 0
473 1 15.996499999999997 4.973006543664834 8.385 0 0 0
492 1 15.9965 6.393865556140499 8.385 0 0 0
493 1 17.227 7.104295062378338 8.385 0 0 0
494 1 17.226999999999997 4.2625770374270004 8.385 0 0 0
495 1 18.4575 4.973006543664837 8.385 0 0 0
511 1 18.457499999999996 6.393865556140501 8.385 0 0 0
367 1 0.0 11.366872099805333 8.385 0 0 0
368 1 0.0 8.525154074854 8.385 0 0 0
369 1 1.2304999999999997 9.235583581091834 8.385 0 0 0
381 1 1.2304999999999997 10.656442593567498 8.385 0 0 0
382 1 2.461 11.366872099805335 8.385 0 0 0
383 1 2.4609999999999994 8.525154074854 8.385 0 0 0
384 1 3.6915 9.235583581091834 8.385 0 0 0
400 1 3.6914999999999996 10.6564425935675 8.385 0 0 0
401 1 4.922 11.366872099805333 8.385 0 0 0
402 1 4.922 8.525154074854 8.385 0 0 0
403 1 6.1525 9.235583581091834 8.385 0 0 0
422 1 6.1525 10.6564425935675 8.385 0 0 0
423 1 7.382999999999999 11.366872099805335 8.385 0 0 0
424 1 7.383 8.525154074854 8.385 0 0 0
425 1 8.613499999999998 9.235583581091834 8.385 0 0 0
444 1 8.613499999999998 10.656442593567498 8.385 0 0 0
445 1 9.844 11.366872099805335 8.385 0 0 0
446 1 9.844 8.525154074853997 8.385 0 0 0
447 1 11.074499999999999 9.235583581091834 8.385 0 0 0
466 1 11.0745 10.656442593567498 8.385 0 0 0
467 1 12.304999999999998 11.366872099805333 8.385 0 0 0
468 1 12.305 8.525154074854 8.385 0 0 0
469 1 13.535499999999999 9.235583581091833 8.385 0 0 0
488 1 13.535499999999999 10.6564425935675 8.385 0 0 0
489 1 14.765999999999998 11.366872099805336 8.385 0 0 0
490 1 14.765999999999998 8.525154074854 8.385 0 0 0
491 1 15.9965 9.235583581091836 8.385 0 0 0
507 1 15.996499999999997 10.6564425935675 8.385 0 0 0
508 1 17.227 11.366872099805336 8.385 0 0 0
509 1 17.226999999999997 8.525154074854 8.385 0 0 0
510 1 18.4575 9.235583581091838 8.385 0 0 0
522 1 18.4575 10.6564425935675 8.385 0 0 0
379 1 0.0 12.787731112280998 8.385 0 0 0
380 1 1.2305000000000001 13.498160618518833 8.385 0 0 0
396 1 1.2305000000000001 14.919019630994498 8.385 0 0 0
398 1 2.461 12.787731112280998 8.385 0 0 0
399 1 3.6915 13.498160618518833 8.385 0 0 0
418 1 3.6915 14.919019630994498 8.385 0 0 0
420 1 4.922 12.787731112281 8.385 0 0 0
421 1 6.152499999999999 13.498160618518833 8.385 0 0 0
440 1 6.152499999999999 14.919019630994498 8.385 0 0 0
442 1 7.382999999999999 12.787731112280998 8.385 0 0 0
443 1 8.6135 13.498160618518835 8.385 0 0 0
462 1 8.6135 14.919019630994498 8.385 0 0 0
464 1 9.844 12.787731112280998 8.385 0 0 0
465 1 11.074499999999999 13.498160618518833 8.385 0 0 0
484 1 11.074499999999999 14.919019630994498 8.385 0 0 0
486 1 12.305 12.787731112280998 8.385 0 0 0
487 1 13.535499999999999 13.498160618518837 8.385 0 0 0
503 1 13.535499999999999 14.919019630994498 8.385 0 0 0
505 1 14.765999999999998 12.787731112281 8.385 0 0 0
506 1 15.996500000000001 13.498160618518837 8.385 0 0 0
518 1 15.9965 14.9190196309945 8.385 0 0 0
520 1 17.227 12.787731112281 8.385 0 0 0
521 1 18.4575 13.498160618518833 8.385 0 0 0
529 1 18.4575 14.9190196309945 8.385 0 0 0
378 1 0.0 15.629449137232333 8.385 0 0 0
394 1 0.0 17.050308149708 8.385 0 0 0
395 1 1.2305000000000001 17.76073765594583 8.385 0 0 0
397 1 2.4610000000000003 15.629449137232331 8.385 0 0 0
416 1 2.4610000000000003 17.050308149708 8.385 0 0 0
417 1 3.6914999999999996 17.76073765594583 8.385 0 0 0
419 1 4.921999999999999 15.629449137232333 8.385 0 0 0
438 1 4.921999999999999 17.050308149708 8.385 0 0 0
439 1 6.1525 17.76073765594583 8.385 0 0 0
441 1 7.382999999999999 15.629449137232333 8.385 0 0 0
460 1 7.383 17.050308149708 8.385 0 0 0
461 1 8.613499999999998 17.76073765594583 8.385 0 0 0
463 1 9.844 15.629449137232331 8.385 0 0 0
482 1 9.844 17.050308149708 8.385 0 0 0
483 1 11.0745 17.760737655945835 8.385 0 0 0
485 1 12.305 15.629449137232337 8.385 0 0 0
501 1 12.304999999999998 17.050308149708 8.385 0 0 0
502 1 13.5355 17.760737655945835 8.385 0 0 0
504 1 14.766 15.629449137232337 8.385 0 0 0
516 1 14.766 17.050308149708 8.385 0 0 0
517 1 15.9965 17.76073765594583 8.385 0 0 0
519 1 17.227 15.629449137232333 8.385 0 0 0
527 1 17.226999999999997 17.050308149708002 8.385 0 0 0
528 1 18.4575 17.76073765594583 8.385 0 0 0
393 1 0.0 19.892026174659332 8.385 0 0 0
412 1 0.0 21.312885187135 8.385 0 0 0
413 1 1.2304999999999993 22.023314693372832 8.385 0 0 0
414 1 1.2305000000000001 19.1815966684215 8.385 0 0 0
415 1 2.4609999999999994 19.892026174659332 8.385 0 0 0
434 1 2.4609999999999994 21.312885187134995 8.385 0 0 0
435 1 3.6914999999999996 22.023314693372832 8.385 0 0 0
436 1 3.6914999999999996 19.1815966684215 8.385 0 0 0
437 1 4.922 19.892026174659332 8.385 0 0 0
456 1 4.922000000000001 21.312885187134995 8.385 0 0 0
457 1 6.152499999999999 22.023314693372832 8.385 0 0 0
458 1 6.1525 19.1815966684215 8.385 0 0 0
459 1 7.382999999999999 19.892026174659332 8.385 0 0 0
478 1 7.382999999999999 21.312885187135 8.385 0 0 0
479 1 8.6135 22.023314693372836 8.385 0 0 0
480 1 8.6135 19.1815966684215 8.385 0 0 0
481 1 9.844 19.892026174659335 8.385 0 0 0
497 1 9.844 21.312885187135 8.385 0 0 0
498 1 11.0745 22.023314693372836 8.385 0 0 0
499 1 11.074499999999999 19.1815966684215 8.385 0 0 0
500 1 12.305000000000001 19.892026174659335 8.385 0 0 0
512 1 12.305 21.312885187135 8.385 0 0 0
513 1 13.5355 22.023314693372832 8.385 0 0 0
514 1 13.535499999999999 19.1815966684215 8.385 0 0 0
515 1 14.766 19.892026174659332 8.385 0 0 0
523 1 14.765999999999998 21.312885187135 8.385 0 0 0
524 1 15.996500000000001 22.023314693372832 8.385 0 0 0
525 1 15.9965 19.1815966684215 8.385 0 0 0
526 1 17.227 19.892026174659335 8.385 0 0 0
530 1 17.226999999999997 21.312885187134995 8.385 0 0 0
531 1 18.4575 22.023314693372832 8.385 0 0 0
532 1 18.457499999999996 19.1815966684215 8.385 0 0 0
533 1 0.0 24.154603212086332 1.677 0 0 0
536 1 0.0 25.575462224561996 1.677 0 0 0
538 1 1.2305000000000001 26.285891730799833 1.677 0 0 0
540 1 1.2304999999999993 23.4441737058485 1.677 0 0 0
542 1 2.4609999999999994 24.154603212086332 1.677 0 0 0
553 1 2.4610000000000003 25.575462224561996 1.677 0 0 0
555 1 3.6914999999999987 26.285891730799833 1.677 0 0 0
557 1 3.6915000000000004 23.4441737058485 1.677 0 0 0
559 1 4.921999999999999 24.154603212086332 1.677 0 0 0
578 1 4.922 25.575462224561996 1.677 0 0 0
580 1 6.1525 26.285891730799836 1.677 0 0 0
582 1 6.1525 23.4441737058485 1.677 0 0 0
584 1 7.383 24.154603212086336 1.677 0 0 0
611 1 7.382999999999999 25.575462224561996 1.677 0 0 0
613 1 8.613500000000002 26.285891730799836 1.677 0 0 0
615 1 8.613499999999998 23.4441737058485 1.677 0 0 0
617 1 9.844000000000001 24.154603212086336 1.677 0 0 0
652 1 9.844 25.575462224562 1.677 0 0 0
654 1 11.0745 26.285891730799833 1.677 0 0 0
656 1 11.0745 23.4441737058485 1.677 0 0 0
658 1 12.305 24.154603212086332 1.677 0 0 0
695 1 12.305 25.575462224562 1.677 0 0 0
697 1 13.5355 26.285891730799833 1.677 0 0 0
699 1 13.535499999999999 23.4441737058485 1.677 0 0 0
701 1 14.766000000000002 24.154603212086332 1.677 0 0 0
738 1 14.765999999999998 25.575462224561996 1.677 0 0 0
740 1 15.996500000000001 26.285891730799833 1.677 0 0 0
742 1 15.996499999999997 23.444173705848495 1.677 0 0 0
744 1 17.227 24.154603212086332 1.677 0 0 0
781 1 17.227 25.575462224561996 1.677 0 0 0
783 1 18.457500000000003 26.285891730799833 1.677 0 0 0
785 1 18.4575 23.444173705848495 1.677 0 0 0
534 1 0.0 28.417180249513333 1.677 0 0 0
545 1 0.0 29.838039261988996 1.677 0 0 0
547 1 1.2304999999999993 30.548468768226833 1.677 0 0 0
549 1 1.230500000000001 27.706750743275496 1.677 0 0 0
551 1 2.4609999999999994 28.41718024951333 1.677 0 0 0
570 1 2.4610000000000003 29.838039261988996 1.677 0 0 0
572 1 3.6915000000000004 30.548468768226833 1.677 0 0 0
574 1 3.6914999999999996 27.7067507432755 1.677 0 0 0
576 1 4.922 28.417180249513336 1.677 0 0 0
603 1 4.921999999999999 29.838039261988996 1.677 0 0 0
605 1 6.152500000000001 30.548468768226833 1.677 0 0 0
607 1 6.152499999999999 27.7067507432755 1.677 0 0 0
609 1 7.383000000000001 28.417180249513336 1.677 0 0 0
644 1 7.383 29.838039261988996 1.677 0 0 0
646 1 8.6135 30.548468768226833 1.677 0 0 0
648 1 8.6135 27.7067507432755 1.677 0 0 0