
# Set production fixes - Nose/Hoover
#
fix                 4 water temp/csvr ${START_TEMP} ${END_TEMP} 500.0 928347
fix                 4 water temp/csvr 240 ${END_TEMP} 500.0 928347
fix                 4 water temp/csvr 240 227 500.0 928347


## divide "droplet" into core and surface
#region		core_reg cylinder z 135 135 44.6 20 INF units box
#region		surface_reg cylinder z 135 135 44.6 20 INF units box side out
#group		core dynamic all region core_reg
#group		surface dynamic all region surface_reg

## compute pressure core
#compute        peratom_core core stress/atom NULL
#compute        p_core core reduce sum c_peratom_core[1] c_peratom_core[2] c_peratom_core[3]
#variable       press_core equal -(c_p_core[1]+c_p_core[2]+c_p_core[3])/(3*1249982.5)


## compute pressure surface
#compute        peratom_surf surface stress/atom NULL
#compute        p_surf surface reduce sum c_peratom_surf[1] c_peratom_surf[2] #c_peratom_surf[3]
#variable       press_surf equal -(c_p_surf[1]+c_p_surf[2]+c_p_surf[3])/(3*42395)

## compute total pressure of drop
compute        peratom water stress/atom NULL
compute        p water reduce sum c_peratom[1] c_peratom[2] c_peratom[3]
variable       press equal -(c_p[1]+c_p[2]+c_p[3])/(3*58301)


# compute order parameter
compute        3 all orientorder/atom nnn NULL cutoff 3.5

# compute center of mass of bridge
compute 	4 water com

# Run simulation
thermo_style        custom step c_2 press vol etotal ke pe v_press c_1[4] c_4[*]
thermo              200
dump		     1 water custom 400 ${DIR}/prod.${NAME}.dump id type x y z vx vy vz c_3[*] c_peratom[*]
dump		     1 water custom 400 run_10/prod.${NAME}.dump id type x y z vx vy vz c_3[*] c_peratom[*]
dump		     1 water custom 400 run_10/prod.ibeam_cooling_10.dump id type x y z vx vy vz c_3[*] c_peratom[*]
run                 ${STEPS}
run                 5200000
Neighbor list info ...
  update every 1 steps, delay 0 steps, check yes
  max neighbors/atom: 2000, page size: 100000
  master list distance cutoff = 6.67472
  ghost atom cutoff = 6.67472
  binsize = 3.33736, bins = 57 9 12
  2 neighbor lists, perpetual/occasional/extra = 1 1 0
  (1) pair sw, perpetual
      attributes: full, newton on
      pair build: full/bin/atomonly
      stencil: full/bin/3d
      bin: standard
  (2) compute orientorder/atom, occasional, copy from (1)
      attributes: full, newton on
      pair build: copy
      stencil: none
      bin: none
Per MPI rank memory allocation (min/avg/max) = 6.163 | 6.747 | 7.286 Mbytes
Step c_2 Press Volume TotEng KinEng PotEng v_press c_1[4] c_4[1] c_4[2] c_4[3] 
       0    238.84043   -238.09068    204420.41   -23301.961    1733.5689    -25035.53   -328.01388    44.542622    95.089953    14.542274    27.765803 
     200    237.15951   -297.83814    204420.41   -23306.861    1721.3683   -25028.229   -522.46696    46.396131     95.09048    14.541915     27.76993 
     400    246.30533   -352.57352    204420.41   -23299.541    1787.7512   -25087.292   -687.21474    47.814655    95.090412    14.542607    27.794748 
     600    240.71073   -344.89558    204420.41   -23202.584     1747.144   -24949.728   -651.62867    50.802004    95.089164     14.54264    27.796272 
     800     242.2854   -280.81279    204420.41   -23202.461    1758.5734   -24961.034     -441.314    53.190448    95.090122    14.542895    27.788657 
    1000    243.72079   -375.24287    204420.41   -23270.327    1768.9919   -25039.319   -802.46928    56.522326    95.089338    14.541784    27.790892 
    1200    240.68774    -356.1641    204420.41   -23229.077    1746.9772   -24976.054    -730.0094    56.133218    95.087945     14.54155    27.800366 
    1400    238.20681   -348.87093    204420.41    -23226.18    1728.9699    -24955.15   -717.55356    56.134614    95.085505    14.541636    27.803852 
    1600    238.94524   -258.01968    204420.41   -23178.959    1734.3297   -24913.289   -398.68071    56.807685     95.08532    14.541496    27.799462 
    1800    245.50158   -341.30299    204420.41   -23150.773    1781.9174    -24932.69   -694.25708    57.653745     95.08484     14.53928    27.796879 
    2000    245.24456   -309.77796    204420.41   -23060.537    1780.0519   -24840.589   -599.35155    58.280784    95.084452    14.540047    27.804148 
    2200     240.8512   -352.02929    204420.41   -23128.472    1748.1636   -24876.636   -726.46918    59.909104     95.08556    14.538086    27.812921 
    2400    241.61585   -438.73198    204420.41   -23110.901    1753.7137   -24864.615    -1003.911    61.570409    95.086756    14.534788    27.813729 
    2600     241.8817   -177.73632    204420.41   -23172.968    1755.6433   -24928.611   -94.247432     61.91446    95.087119    14.533473    27.809561 
    2800    238.71075   -400.08799    204420.41   -23090.105    1732.6277   -24822.733   -892.61557    63.129783    95.087093    14.534841    27.814067 
    3000    240.86701   -174.85633    204420.41   -23077.931    1748.2784   -24826.209   -46.071496    64.290136    95.087418    14.534516    27.819889 
    3200    237.29237   -261.10389    204420.41   -23187.625    1722.3327   -24909.958   -415.83827    67.562024    95.087393     14.53596    27.827242 
    3400    238.74063   -407.11486    204420.41    -23207.84    1732.8446   -24940.684   -908.82675    69.477079    95.088257    14.536256    27.826837 
    3600     235.0037   -172.06065    204420.41   -23199.617    1705.7209   -24905.338   -78.474657    71.028143    95.089561    14.536992     27.80737 
    3800    239.98051   -213.12411    204420.41   -23166.603    1741.8439   -24908.446   -220.99001    73.901446    95.090993    14.536387    27.809293 
    4000    240.00479   -377.49606    204420.41   -23228.614    1742.0201   -24970.635   -820.69618    76.597599    95.090802    14.535068    27.819429 
    4200    241.51828   -291.55216    204420.41   -23190.102    1753.0055   -24943.107   -492.44819    77.016337    95.089766    14.531033    27.798726 
    4400     240.5479   -197.40786    204420.41   -23209.229    1745.9622   -24955.192   -189.58019    79.210164    95.089608    14.526466    27.786183 
    4600    231.35762   -388.04049    204420.41   -23269.177    1679.2566   -24948.433   -794.15146    81.447172    95.088846    14.527049    27.792635 
    4800    241.29783   -285.92528    204420.41   -23176.317    1751.4054   -24927.722   -498.33167    82.950558    95.088648    14.525973    27.805932 
    5000    236.30945   -392.71423    204420.41   -23203.354    1715.1984   -24918.552   -849.49829    84.858907    95.087906    14.522142    27.803222 
    5200    242.94642   -370.15586    204420.41   -23229.382    1763.3713   -24992.753   -772.48094    85.981333    95.086972    14.519262    27.816874 
    5400    235.05475   -342.06786    204420.41   -23255.919    1706.0914   -24962.011   -695.85273    88.761226    95.085803    14.518578    27.792774 
    5600    235.73848   -388.95552    204420.41   -23251.494    1711.0541   -24962.548    -828.8638    90.061816    95.086913    14.520834    27.797516 
    5800    246.61634   -415.86683    204420.41   -23198.832    1790.0086    -24988.84   -938.24005    92.229734    95.087323    14.522677    27.799639 
    6000    239.01166   -360.50845    204420.41   -23224.729    1734.8117   -24959.541   -700.88907    95.189189    95.086644    14.523509    27.804984 
    6200    234.42432   -530.11378    204420.41   -23276.159    1701.5156   -24977.674   -1374.5004    96.080651     95.08795     14.52251    27.806237 
    6400     239.1307   -363.74896    204420.41   -23288.954    1735.6758    -25024.63   -755.88003    96.253142    95.089831    14.521645    27.796827 
    6600    243.28468   -476.12512    204420.41   -23270.043    1765.8265   -25035.869   -1087.7075    96.357552    95.090976    14.520021    27.794576 
    6800    235.97257   -253.37485    204420.41    -23262.41    1712.7532   -24975.163   -367.68978    96.300808    95.091537    14.520874    27.786578 
    7000    237.92455   -317.32173    204420.41   -23189.736    1726.9212   -24916.657   -585.22205    97.027263     95.09212    14.521055    27.785083 
    7200    239.17878   -429.25791    204420.41   -23257.652    1736.0247   -24993.677   -985.72844    99.123796      95.0943    14.521088    27.800793 
    7400    239.17339   -424.60724    204420.41   -23213.855    1735.9856   -24949.841   -944.32022     100.5471    95.093169    14.521257    27.810149 
    7600    240.52982   -69.841242    204420.41   -23119.545     1745.831   -24865.376    272.37602    103.52593    95.092715    14.518723    27.819876 
    7800    233.13304    -324.4268    204420.41   -23236.694    1692.1431   -24928.838   -608.14947    105.31002    95.091595    14.518692    27.810807 
    8000    246.23941   -301.28033    204420.41   -23082.911    1787.2727   -24870.184   -536.73311    107.55648    95.090745    14.519565    27.802199 
    8200    240.27831   -254.21222    204420.41   -23153.393    1744.0054   -24897.398   -404.57914    110.02705    95.089891    14.515978    27.825749 
    8400    235.17503   -501.41019    204420.41   -23126.984    1706.9645   -24833.948     -1214.74     112.1105     95.08891    14.514639    27.818289 
    8600    232.60869    -556.3662    204420.41   -23188.801    1688.3373   -24877.138   -1471.5449    115.86807     95.08997    14.514113    27.798057 
    8800    245.26694   -142.01271    204420.41   -23213.716    1780.2143    -24993.93   -6.4607154    118.90087    95.089481    14.516143    27.791544 
    9000    238.99283   -653.28084    204420.41   -23173.359    1734.6751   -24908.034   -1760.7795    120.91775     95.08811    14.516857    27.798613 
    9200    241.88879   -324.47118    204420.41    -23107.92    1755.6947   -24863.615   -671.75874    121.47366    95.087628    14.516448    27.783468 
    9400    247.23521   -269.92424    204420.41   -23166.706    1794.5005   -24961.207   -393.17767    121.97773    95.087287    14.519218    27.777095 
    9600    237.07561   -456.59673    204420.41   -23204.171    1720.7594    -24924.93    -1094.367    123.36266    95.086278    14.517291    27.781075 
    9800    246.00405   -381.51446    204420.41   -23088.727    1785.5644   -24874.292   -817.12398    125.26428    95.085644    14.514922    27.769663 
   10000    241.96922   -228.44762    204420.41   -23185.779    1756.2785   -24942.058   -252.63916    126.42685    95.086144     14.51372    27.738623 
   10200    241.47907   -355.60487    204420.41   -23118.349    1752.7209    -24871.07   -743.72679    127.25089    95.087679    14.513484    27.755606 
   10400    244.84032    -426.6601    204420.41   -23119.599    1777.1178   -24896.716   -939.85482    129.19387    95.088174    14.515323     27.75145 
   10600    235.54058   -273.83123    204420.41   -23190.068    1709.6177   -24899.686   -455.49648    130.64219    95.086729    14.516303    27.730286 
   10800    239.73764   -322.98056    204420.41   -23253.723    1740.0811   -24993.805   -590.63552    132.59814    95.086459    14.516961    27.721049 
   11000    239.94891   -370.82687    204420.41   -23256.898    1741.6145   -24998.512   -780.13784    133.36005     95.08763    14.517171     27.72876 
   11200    233.23769   -410.93338    204420.41    -23262.55    1692.9027   -24955.453   -916.44869    134.38346     95.08774    14.515224    27.714691 
   11400    242.61369   -365.96978    204420.41   -23222.511    1760.9563   -24983.467    -731.5635    135.50932     95.08829    14.516748    27.721169 
   11600    241.63207   -257.93293    204420.41   -23144.214    1753.8314   -24898.045   -438.29654    138.13437    95.088723    14.519191    27.735658 
   11800    239.11566    -161.6633    204420.41   -23156.167    1735.5666   -24891.734   -48.577693    141.27877     95.08828    14.517387    27.733365 
   12000    236.49312   -518.57919    204420.41   -23124.042    1716.5315   -24840.574   -1291.2041     144.4971    95.088697    14.518838    27.748199 
   12200    243.55973   -207.23804    204420.41    -23141.84    1767.8229   -24909.663    -228.7586    147.33301    95.087882    14.519202    27.753113 
   12400    239.86851   -293.14323    204420.41   -23184.702     1741.031   -24925.734   -524.65019    150.30496    95.088431    14.519907    27.765232 
   12600    245.51378   -357.03268    204420.41    -23119.52    1782.0059   -24901.526   -741.37006    152.87072    95.089429    14.518787    27.759129 
   12800    242.22024   -361.91914    204420.41   -23164.043    1758.1005   -24922.144   -738.73533    156.68958    95.088134    14.518445    27.759934 
   13000    242.89656   -361.23103    204420.41   -23197.919    1763.0094   -24960.928   -771.99339    159.48688    95.087721     14.51933    27.763911 
   13200    234.10851   -353.30943    204420.41   -23230.399    1699.2233   -24929.622   -725.64976    162.94016    95.085714    14.522118    27.749978 
   13400    238.21947   -529.00995    204420.41    -23263.54    1729.0618   -24992.602   -1314.9229    165.46061    95.084757    14.521983     27.74411 
   13600    235.90668   -400.61842    204420.41   -23201.801     1712.275   -24914.076   -877.57216    166.44625    95.084256    14.520693    27.754036 
   13800    239.27616   -378.96546    204420.41   -23151.709    1736.7316    -24888.44   -811.55672    167.98465     95.08359    14.521182    27.748017 
   14000    242.32183   -181.86508    204420.41   -23104.386    1758.8379   -24863.224    -145.7532    168.28423    95.083901    14.519916    27.741302 
   14200    244.81566    -253.1274    204420.41   -23174.269    1776.9387   -24951.208   -410.21016    170.34948    95.083399    14.522435    27.725042 
   14400     231.8555    -263.7382    204420.41   -23225.752    1682.8704   -24908.622   -461.17246    171.21993    95.082717    14.522662    27.726166 
   14600    242.79977   -451.53819    204420.41   -23235.629    1762.3069   -24997.936    -1035.802    172.23342    95.083788    14.518707    27.698348 
   14800    235.61059   -486.26076    204420.41   -23165.741    1710.1258   -24875.867   -1189.1545    173.13686    95.084125    14.516853    27.674584 
   15000    242.30092   -363.18148    204420.41   -23212.763    1758.6861   -24971.449    -787.6114    173.17326    95.082756    14.514536    27.676809 
   15200      239.805   -260.82301    204420.41   -23167.003      1740.57   -24907.573    -408.2292    174.05253    95.084091    14.513849    27.673426 
   15400    236.64616   -246.65427    204420.41   -23235.478    1717.6423    -24953.12   -351.23273    175.88904    95.083978    14.512185    27.663067 
   15600    241.28985   -353.25382    204420.41   -23104.338    1751.3475   -24855.685   -729.84837    178.49322    95.084404    14.509184    27.653259 
   15800    239.24111   -446.39218    204420.41   -23159.774    1736.4772   -24896.251   -1063.4456    179.55621     95.08432    14.508703    27.661417 
   16000    234.52512   -460.57206    204420.41   -23211.835    1702.2472   -24914.082   -1085.3016     182.3217    95.085216    14.508112    27.658728 
   16200    241.79815   -285.73352    204420.41   -23171.979    1755.0369   -24927.016   -512.69008    183.36828    95.086555    14.509399    27.665609 
   16400    234.86357   -540.82171    204420.41   -23222.436    1704.7038    -24927.14   -1390.4572    185.10085    95.085935    14.508668    27.643078 
   16600    243.33315    -449.8396    204420.41    -23133.95    1766.1783   -24900.129   -1097.9385     186.8487    95.085591    14.510516    27.656937 
   16800    238.74923   -423.71631    204420.41   -23158.234     1732.907   -24891.141   -940.32218    188.53207    95.084309    14.514972    27.664377 
   17000    238.24354   -307.75033    204420.41   -23182.921    1729.2365   -24912.158   -589.32196    191.70657    95.084062    14.517135    27.684361 
   17200    237.91945   -329.39258    204420.41   -23176.656    1726.8842    -24903.54   -608.35281     195.8446    95.083835     14.51729    27.683315 
   17400     232.7277   -257.96466    204420.41   -23254.408    1689.2011   -24943.609   -365.12397    198.91281    95.083235    14.515994    27.688276 
   17600     245.6378   -291.00712    204420.41   -23137.865    1782.9061   -24920.771   -495.26621    202.11426    95.084408    14.515107    27.715069 
   17800    242.14277   -280.24849    204420.41   -23154.147    1757.5382   -24911.685   -450.17974    207.43018    95.084469    14.510822    27.698724 
   18000    242.41917   -417.44121    204420.41   -23107.345    1759.5444   -24866.889   -936.79505      211.727     95.08383    14.509462    27.695842 
   18200    240.73944   -417.03185    204420.41   -23140.393    1747.3524   -24887.746   -929.54478      214.826    95.082678    14.510005    27.688189 
   18400    242.22463   -235.83703    204420.41    -23156.76    1758.1323   -24914.893   -307.23934    216.80812    95.080344    14.510022    27.708329 
   18600    243.20956   -268.26106    204420.41   -23198.414    1765.2812   -24963.695   -412.24193    220.85955     95.08081    14.513738    27.706076 
   18800    244.45624   -440.21397    204420.41   -23224.579      1774.33   -24998.909   -998.21745    221.43467    95.081348    14.517053    27.696356 
   19000    244.04682   -135.97183    204420.41   -23153.817    1771.3583   -24925.175    56.970445    224.01761    95.080041    14.518364     27.71391 
   19200    241.00892   -357.44222    204420.41   -23178.699    1749.3084   -24928.007   -714.98832     227.9648    95.080882    14.517496    27.720404 
   19400    243.15711   -498.75457    204420.41   -23110.214    1764.9006   -24875.115   -1245.5586    229.94319    95.078954    14.516215    27.733463 
   19600    243.21631   -357.73249    204420.41   -23115.837    1765.3302   -24881.167   -739.19754    229.54115    95.078499    14.515469    27.731401 
   19800    245.14648   -377.19812    204420.41   -23119.333      1779.34   -24898.673    -775.9911    230.54321    95.077819    14.515301    27.713774 
   20000    246.84006   -295.12237    204420.41   -23165.679    1791.6324   -24957.311   -508.08481    234.71328    95.078133    14.514847    27.734096 
   20200     237.0457   -173.63969    204420.41   -23265.679    1720.5423   -24986.221   -74.255758    238.86109     95.07788    14.514729    27.746905 
   20400    243.81746   -272.44435    204420.41   -23159.642    1769.6935   -24929.336   -446.45684     239.1159    95.078854    14.517165    27.739618 
   20600    235.16159   -350.45258    204420.41   -23274.823    1706.8669    -24981.69   -697.42981    239.03607    95.077358    14.516072    27.735538 
   20800    239.10856   -296.23678    204420.41   -23184.213     1735.515   -24919.728   -505.31249    237.36977    95.077034    14.516498    27.729352 
   21000    238.08494   -231.64258    204420.41    -23235.78    1728.0854   -24963.865   -314.73947    236.50663    95.074606     14.51635    27.715758 
   21200    237.39815   -507.98548    204420.41   -23189.708    1723.1005   -24912.808   -1241.0404    237.77187    95.074218    14.517271    27.712951 
   21400     245.1017   -378.07089    204420.41   -23183.993    1779.0149   -24963.008   -813.40773    238.97194    95.072828    14.521646     27.71479 
   21600    245.46453   -483.23586    204420.41   -23089.299    1781.6485   -24870.947   -1175.4549    241.55088    95.071601    14.526168    27.704812 
   21800    234.94316   -315.59974    204420.41   -23193.571    1705.2815   -24898.853    -590.4101    242.21896    95.071201    14.529591    27.683322 
   22000    234.24562   -466.84561    204420.41   -23244.779    1700.2186   -24944.997   -1108.4846    243.59512    95.070982    14.530973     27.66764 
   22200    237.93495   -374.87916    204420.41    -23296.28    1726.9967   -25023.276   -779.15039    246.11569    95.069685    14.530534    27.680759 
   22400    236.35732   -510.71431    204420.41   -23154.456    1715.5459   -24870.001   -1231.5669    250.73002     95.07101    14.530211    27.695852 
   22600    238.43724   -468.68296    204420.41   -23171.162    1730.6425   -24901.805   -1143.9639     254.2956    95.072947    14.532617    27.712579 
   22800    241.97325   -421.85087    204420.41   -23128.503    1756.3078   -24884.811   -929.82617    253.67461    95.072502    14.534898    27.712321 
   23000    235.67942   -370.18222    204420.41   -23181.935    1710.6255   -24892.561   -777.34257    255.75706     95.07123    14.537217    27.720066 
   23200     240.7891   -225.75264    204420.41    -23088.58    1747.7129   -24836.293   -256.26988    257.88047    95.071804    14.541684    27.739778 
   23400    240.14738   -232.84223    204420.41   -23135.315    1743.0551    -24878.37   -330.60656    261.63719      95.0745    14.545148    27.732696 
   23600    243.88968   -267.66067    204420.41   -23096.617    1770.2177   -24866.835   -426.69095    266.87132    95.076762    14.546559    27.735591 
   23800    240.02988    -423.8605    204420.41   -23156.309    1742.2023   -24898.512   -976.90369    268.83854    95.078627     14.54869    27.740023 
   24000    239.92291   -88.152749    204420.41   -23279.481    1741.4259   -25020.907     179.0418    271.37919    95.078505    14.549245    27.745292 
   24200    237.40122   -264.07371    204420.41    -23267.32    1723.1227   -24990.443   -382.26971    271.78211    95.078928    14.549147    27.734569 
   24400    238.86384   -168.34398    204420.41   -23275.393    1733.7388   -25009.132   -83.355641    273.69348    95.077917    14.548864    27.730082 
   24600    234.12381    -543.6565    204420.41   -23295.767    1699.3344   -24995.101   -1412.2419    279.13142    95.078734    14.549163     27.71904 
   24800    236.49579   -278.89044    204420.41   -23253.065    1716.5509   -24969.616   -430.94883     285.0543    95.079091    14.548699    27.719684 
   25000     235.6301   -183.17109    204420.41   -23229.586    1710.2675   -24939.854   -98.825891    288.25818    95.079136    14.548665     27.69906 
   25200    234.28547   -371.25086    204420.41   -23371.661    1700.5077   -25072.169   -791.25798    290.05239    95.078256    14.547979    27.707563 
   25400    233.70711   -292.62535    204420.41    -23290.21    1696.3099    -24986.52   -489.79341    290.83132    95.077883    14.545117    27.731912 
   25600    251.16379   -260.16662    204420.41   -23126.704    1823.0152   -24949.719   -377.82918    291.17644    95.075362    14.545324    27.724519 
   25800    244.42663   -452.19302    204420.41   -23151.868    1774.1151   -24925.983    -1086.897    292.45926    95.074722    14.544232     27.70747 
   26000    242.46851    -281.5596    204420.41   -23203.557    1759.9025    -24963.46   -496.21029    292.55797    95.073922    14.544428    27.684718 
   26200    236.75294   -258.38224    204420.41   -23229.824    1718.4174   -24948.242   -414.83262    293.07307    95.073874    14.548168     27.69698 
   26400    235.99408   -615.98452    204420.41   -23279.148    1712.9093   -24992.058   -1642.4649    296.83331    95.073399     14.55345    27.700737 
   26600    244.40967   -470.54107    204420.41   -23204.817    1773.9919   -24978.808   -1093.9281    300.68006    95.073606    14.555658    27.718061 
   26800    237.73792    -478.8473    204420.41   -23255.293    1725.5666   -24980.859   -1128.9709     301.3958    95.073237    14.557795    27.731362 
   27000      242.695   -212.19759    204420.41   -23164.197    1761.5465   -24925.743   -261.57424    297.23619    95.071026     14.55716    27.752253 
   27200    238.49475   -467.31604    204420.41   -23206.948    1731.0599   -24938.008   -1106.0097    298.06891    95.070777      14.5553    27.757308 
   27400    242.64202    -394.8707    204420.41   -23152.107    1761.1619   -24913.269   -852.24617    300.18988    95.070662    14.550854    27.762583 
   27600    235.07772   -283.61133    204420.41   -23273.304    1706.2582   -24979.562   -515.24016    301.18377    95.069809    14.549513    27.766399 
   27800    241.06893   -371.80911    204420.41   -23126.431     1749.744   -24876.175   -769.30041    302.53957    95.068689    14.548838    27.753408 
   28000     236.1628   -280.35788    204420.41   -23263.627    1714.1339   -24977.761   -467.71611    304.23481    95.068455    14.545939    27.752191 
   28200    241.06763   -297.30172    204420.41   -23254.606    1749.7346    -25004.34   -550.41931    306.77473    95.067855    14.545306    27.766197 
   28400    244.75615   -338.20794    204420.41   -23263.598    1776.5068   -25040.105   -639.16291    310.05063    95.066599    14.546756    27.767109 
   28600    238.39029   -250.53103    204420.41   -23292.967    1730.3017   -25023.269   -364.60709    311.99314    95.064384    14.547153    27.764589 
   28800    240.25824   -390.73788    204420.41   -23284.982    1743.8598   -25028.841   -846.96051    314.11878    95.062993    14.551255    27.752416 
   29000    240.29449   -572.30139    204420.41   -23218.303    1744.1229   -24962.426    -1458.049    316.29669    95.060381    14.551799    27.745874 
   29200    242.61712   -215.87849    204420.41   -23204.344    1760.9811   -24965.325   -286.55134     315.9136    95.059855    14.553293    27.734097 
   29400    244.48927    -208.8244    204420.41   -23185.684    1774.5697   -24960.254   -208.06308    317.08932    95.059948    14.556186    27.742193 
   29600    238.91025   -218.43541    204420.41    -23211.25    1734.0757   -24945.326   -288.06316    316.87467    95.058834    14.556923    27.750085 
   29800    233.01644   -151.93754    204420.41   -23283.302    1691.2968   -24974.599   -19.145176    319.82264    95.055004    14.554328    27.755537 
   30000    233.51137   -525.24385    204420.41    -23323.56    1694.8891   -25018.449    -1306.031    322.15883    95.054249    14.554536    27.755292 
   30200    241.77079   -365.40947    204420.41   -23226.357    1754.8383   -24981.195   -740.50826    323.61077     95.05458    14.556154    27.748776 
   30400    240.19163   -101.05852    204420.41   -23219.309    1743.3763   -24962.686     184.6403    329.48617    95.056424    14.557436    27.757104 
   30600    235.53433   -439.26804    204420.41   -23246.865    1709.5724   -24956.437    -1009.786    335.75982    95.056642    14.557665    27.767122 
   30800     237.7267   -325.79349    204420.41   -23237.853    1725.4852   -24963.338   -611.78348    338.81646    95.057396    14.559107    27.751577 
   31000    239.23475   -240.83136    204420.41   -23265.156     1736.431   -25001.587   -349.26653    339.04974    95.056695    14.562835    27.762975 
   31200    241.38647   -482.10702    204420.41   -23204.394    1752.0488   -24956.443   -1138.7815    340.41394    95.056358    14.564847    27.779528 
   31400    244.74309   -146.74415    204420.41   -23186.509     1776.412   -24962.921   -16.201149    340.91725    95.054318    14.566583    27.779661 
   31600    238.27072   -456.57649    204420.41   -23249.073    1729.4338   -24978.507   -1102.6251     342.7513    95.053931     14.56927    27.779607 
   31800    241.28868   -437.70848    204420.41   -23169.662     1751.339   -24921.001   -1006.7282    344.15374    95.055047    14.572132    27.776507 
   32000    236.87475   -329.87412    204420.41   -23221.938    1719.3015    -24941.24   -601.23195    341.47627    95.053129    14.573558    27.786423 
   32200    236.54407   -363.74606    204420.41   -23266.991    1716.9013   -24983.892   -749.86198    339.53064    95.052441    14.576184    27.779751 
   32400    229.89339   -461.90711    204420.41   -23250.432    1668.6289   -24919.061    -1123.375    338.64505    95.053138     14.57769    27.778169 
   32600    240.61523   -182.74813    204420.41   -23171.257    1746.4509   -24917.708   -138.13277    339.11482    95.053201    14.579328    27.795743 
   32800    246.85675   -351.91568    204420.41   -23174.135    1791.7536   -24965.888   -726.02188    340.01799    95.051893    14.582449    27.781968 
   33000    244.71161   -322.02217    204420.41   -23170.294    1776.1836   -24946.478   -597.55762    338.58884    95.051759    14.585948     27.77395 
   33200    238.21615    -462.0782    204420.41   -23205.319    1729.0377   -24934.357   -1086.7649    337.62265    95.053099     14.58354    27.757973 
   33400    234.78945   -379.64239    204420.41   -23262.659    1704.1658   -24966.825   -780.39907     334.2685    95.054576    14.578772    27.776628 
   33600    233.48109   -198.69253    204420.41   -23266.423    1694.6693   -24961.092   -197.96198    335.45061    95.056651    14.578197    27.804322 
   33800    247.94555   -533.16881    204420.41   -23103.502    1799.6563   -24903.158   -1360.5731    336.79298    95.055812    14.577058    27.810918 
   34000    239.71813   -412.82511    204420.41   -23231.444    1739.9395   -24971.384   -909.89039    338.66054    95.055223    14.575889    27.819068 
   34200    238.08228   -416.66765    204420.41   -23225.112    1728.0661   -24953.178   -937.92322    342.33788    95.056632    14.575777    27.815265 
   34400    237.03466   -417.10312    204420.41   -23261.222    1720.4621   -24981.684   -973.96191    346.34331    95.055631    14.572633    27.820907 
   34600    241.26094   -280.33429    204420.41   -23136.303    1751.1376   -24887.441   -449.64655    347.17287    95.056511    14.573668    27.822617 
   34800    235.06081   -326.28267    204420.41   -23221.773    1706.1354   -24927.908   -614.47951    350.98565    95.056626    14.575279    27.819986 
   35000    236.93002   -297.66796    204420.41   -23248.887    1719.7026    -24968.59   -509.43755    352.71083    95.056504    14.576715    27.838503 
   35200     244.6399   -369.99309    204420.41   -23186.541     1775.663   -24962.204   -784.65665    358.21709    95.055097    14.576948    27.836265 
   35400    239.22893   -314.45656    204420.41   -23188.734    1736.3888   -24925.122   -578.66239     360.3272    95.053907    14.578574    27.822879 
   35600     240.9092   -235.98086    204420.41   -23236.634    1748.5846   -24985.219   -316.75356    359.78455    95.052722    14.578059    27.832057 
   35800    244.73584   -297.18362    204420.41    -23105.61    1776.3594    -24881.97   -479.17292    357.70353    95.051458    14.577784    27.826145 
   36000    236.11778   -390.97627    204420.41   -23267.488    1713.8072   -24981.295   -868.92139    360.05132    95.050128    14.576038    27.816933 
   36200    236.81548   -244.46663    204420.41   -23308.499    1718.8713    -25027.37   -329.93479    358.81425    95.050428    14.574985    27.826554 
   36400    237.17442   -446.77171    204420.41   -23244.275    1721.4766   -24965.752   -1031.1075    358.92731    95.051264     14.57437    27.815636 
   36600    240.22698   -392.95133    204420.41    -23186.08    1743.6329   -24929.713   -872.63423    361.38043    95.050949    14.574451    27.796127 
   36800    234.00277   -414.80343    204420.41   -23264.702    1698.4559   -24963.158   -968.29685    361.25206    95.052623    14.573513    27.799925 
   37000    240.31177   -251.48359    204420.41   -23259.991    1744.2483    -25004.24   -363.73401    364.43974    95.054075    14.572646    27.797958 
   37200    240.40594   -348.41406    204420.41   -23290.314    1744.9318   -25035.246   -693.98746    369.67424    95.054056    14.572965    27.792062 
   37400    242.43047   -310.49193    204420.41   -23269.091    1759.6264   -25028.718   -567.02011    369.82039    95.053489    14.572083    27.786748 
   37600    234.61084   -377.36149    204420.41   -23308.379    1702.8694   -25011.249   -823.88711    372.18741    95.052571    14.571877    27.781799 
   37800    238.26635   -296.32467    204420.41    -23351.61    1729.4021   -25081.012   -515.49681     376.1193    95.053919    14.572881    27.797004 
   38000    242.28859   -333.45146    204420.41   -23261.279    1758.5966   -25019.876   -698.61798    376.22273    95.052866    14.575269    27.783029 
   38200    238.36921   -160.31969    204420.41   -23233.174    1730.1486   -24963.323   -71.218844    377.52639    95.050555    14.575019    27.780346 
   38400    250.79803   -60.205504    204420.41   -23163.008    1820.3604   -24983.369    277.28228    379.50681    95.050284    14.578394    27.784258 
   38600    239.73735   -314.17099    204420.41    -23231.04     1740.079   -24971.119   -567.90308    382.04373    95.049442     14.57853    27.782916 
   38800    239.40688   -326.14463    204420.41   -23203.669    1737.6804    -24941.35   -625.65959    387.01464    95.049577    14.579355    27.767893 
   39000    242.67126   -392.02495    204420.41   -23163.556    1761.3741    -24924.93   -810.23503    388.40235    95.048818    14.579978    27.783272 
   39200    238.63069   -475.46505    204420.41   -23263.313    1732.0466    -24995.36   -1124.9729    388.36479    95.049472    14.580874    27.776912 
   39400    241.83407   -469.18138    204420.41   -23206.607    1755.2976   -24961.904   -1100.4445    388.87465    95.047784    14.581173     27.77469 
   39600    239.65825   -176.38001    204420.41   -23180.474    1739.5049   -24919.979   -129.03799    388.47721    95.048018    14.581864    27.779704 
   39800    239.10585   -324.27347    204420.41   -23230.104    1735.4954   -24965.599   -600.14686    390.33325    95.050023    14.581558    27.779597 
   40000    235.90835   -337.02839    204420.41   -23185.579    1712.2871   -24897.866   -627.42423     390.8077     95.05134    14.582346    27.794152 
   40200    239.59043   -446.77763    204420.41   -23190.722    1739.0126   -24929.734   -1017.9412    392.32315    95.053519    14.584287    27.808725 
   40400    236.46701   -234.93702    204420.41    -23268.76     1716.342   -24985.102   -308.35776    393.44472    95.053393    14.584384     27.77979 
   40600    242.61496   -461.43656    204420.41   -23197.414    1760.9655   -24958.379   -1110.4342    391.53241    95.051694    14.582893    27.782455 
   40800    235.27247     -479.589    204420.41   -23277.246    1707.6717   -24984.918   -1141.0086    391.85546    95.051151    14.579568    27.777138 
   41000    236.58724   -209.48496    204420.41   -23241.531    1717.2146   -24958.745   -225.56599    395.27019     95.05049    14.579182    27.769952 
   41200    241.91761   -513.99033    204420.41   -23169.839     1755.904   -24925.743   -1297.4129    400.10572    95.051312    14.579393    27.754912 
   41400    238.70502   -256.70271    204420.41   -23194.363    1732.5861    -24926.95   -415.15963    402.94119    95.049729    14.575937    27.755665 
   41600    244.02436   -311.69391    204420.41   -23227.251    1771.1953   -24998.446   -564.51575    403.17704    95.048778    14.573625    27.764602 
   41800    240.59164   -373.00952    204420.41   -23214.546    1746.2797   -24960.825   -789.82747    405.28124    95.048529    14.573441    27.783187 
   42000    239.01471   -523.76943    204420.41   -23277.906    1734.8339    -25012.74   -1335.0214    406.55264    95.048256    14.573442     27.79193 
   42200    233.38891   -361.85818    204420.41   -23348.453    1694.0003   -25042.454   -774.18255    409.73436    95.048076    14.574735     27.79172 
   42400    238.97033   -56.122054    204420.41   -23276.538    1734.5118    -25011.05     284.0237      414.577    95.048246    14.573536    27.800447 
   42600    233.71971   -247.14611    204420.41   -23271.852    1696.4014   -24968.253    -313.2051    417.29007    95.047948    14.574731    27.777213 
   42800    239.98633   -179.01437    204420.41   -23188.256    1741.8861   -24930.142   -83.791714    417.57165    95.047087      14.5747    27.756307 
   43000    243.18357   -271.77416    204420.41   -23249.385    1765.0926   -25014.478   -458.38013    417.13459    95.048932    14.574476     27.75714 
   43200     239.3148   -315.03705    204420.41   -23258.576    1737.0121   -24995.588   -588.43332    419.17101    95.049729    14.573712    27.753522 
   43400    241.41476   -317.27843    204420.41   -23235.982    1752.2541   -24988.237   -624.76871    422.95618    95.049458    14.575119    27.776988 
   43600    240.22467   -326.73248    204420.41   -23217.261    1743.6161   -24960.877   -595.15281    426.19274    95.047267    14.573208     27.78444 
   43800     233.6624    -132.3947    204420.41   -23281.959    1695.9854   -24977.944    45.943594     428.2571    95.047314    14.572461    27.774403 
   44000    229.56215   -507.50337    204420.41   -23321.126    1666.2246    -24987.35   -1247.5471    428.09951    95.047078    14.570435    27.772857 
   44200    240.31886   -339.54228    204420.41   -23234.988    1744.2998   -24979.288   -644.59168    426.39036    95.045818    14.568437    27.786565 
   44400     236.5497   -278.79883    204420.41   -23246.491    1716.9422   -24963.433   -436.45702    427.73485    95.046315    14.569475    27.799027 
   44600    240.02831   -485.61725    204420.41   -23248.103    1742.1909   -24990.294   -1148.4601    430.17412     95.04591    14.572412    27.803869 
   44800      239.868   -327.21196    204420.41   -23245.872    1741.0273     -24986.9    -632.7216    431.33221    95.045705    14.571445    27.817209 
   45000    240.39686   -396.07374    204420.41   -23191.759    1744.8659   -24936.624   -880.39581    430.96586    95.042937    14.569052    27.821098 
   45200    238.80137   -238.09476    204420.41   -23179.208    1733.2854   -24912.494   -391.20835    431.51609     95.04231    14.566446    27.845075 
   45400    235.17625   -203.28676    204420.41   -23261.469    1706.9733   -24968.442   -175.53541    431.82796    95.043304    14.566573    27.837729 
   45600    246.56062    -340.1954    204420.41   -23189.155    1789.6041   -24978.759   -641.88785    430.03268    95.040833    14.568194    27.849515 
   45800    234.53656   -436.07112    204420.41   -23212.515    1702.3303   -24914.845   -1012.4012    431.09035    95.039565    14.569853    27.853718 
   46000     247.4701   -367.48516    204420.41   -23147.508    1796.2054   -24943.714   -771.01484    434.16534    95.037396     14.57125     27.82986 
   46200    238.61295   -161.33832    204420.41   -23151.492    1731.9178    -24883.41   -39.427556    434.52829    95.037419    14.577969    27.844183 
   46400    236.16668   -324.32238    204420.41   -23228.128    1714.1621    -24942.29   -618.11789    432.94508    95.036736    14.581321    27.843529 
   46600    242.53118   -422.43775    204420.41   -23201.848    1760.3574   -24962.205   -948.30226    434.87225    95.039569    14.581973    27.858265 
   46800    243.63219   -201.27175    204420.41   -23208.357    1768.3488   -24976.706   -212.20815    439.71472    95.040067    14.583013    27.863831 
   47000    243.65921   -412.57772    204420.41   -23163.556    1768.5449   -24932.101    -933.9436    440.61388     95.04166    14.586478    27.879328 
   47200    235.46434   -252.48974    204420.41   -23265.941    1709.0643   -24975.005   -345.17683    438.23449    95.040526    14.588052    27.872278 
   47400    245.59116    -391.8521    204420.41   -23214.713    1782.5676    -24997.28   -796.03188    438.65353    95.040946    14.587386    27.881423 
   47600    238.07755   -257.95712    204420.41   -23239.603    1728.0317   -24967.635   -363.00464    440.24569     95.04182    14.586125    27.896114 
   47800    237.25657   -356.01749    204420.41    -23259.35    1722.0728   -24981.422   -721.48263    439.14354    95.040688    14.584084    27.895684 
   48000    237.79067   -344.63821    204420.41   -23272.675    1725.9495   -24998.625   -685.06017    441.89541    95.039857    14.581803    27.902244 
   48200    237.31091   -221.47548    204420.41   -23282.156    1722.4672   -25004.623   -249.38083    445.59339    95.040077    14.579724    27.886261 
   48400    238.41506   -306.49584    204420.41    -23287.24    1730.4814   -25017.721   -537.58879      447.415    95.042147     14.57762    27.881922 
   48600    232.80948   -204.63145    204420.41   -23371.317    1689.7946   -25061.112    -175.4585    448.79168    95.043716    14.578864    27.880389 
   48800    240.92184    -371.5534    204420.41   -23298.365    1748.6764   -25047.041   -718.72447    450.10093    95.043176    14.577804      27.8985 
   49000    241.91799   -298.95679    204420.41   -23269.695    1755.9067   -25025.602   -527.74674    450.10288    95.043558     14.57805    27.895491 
   49200    239.67917   -254.35174    204420.41    -23230.29    1739.6567   -24969.946     -396.785    451.31885    95.044703    14.579036    27.880913 
   49400    238.64371   -444.87367    204420.41    -23292.24     1732.141   -25024.381   -1036.5862    451.04866    95.044463    14.578472    27.880431 
   49600    236.22659   -183.08338    204420.41   -23283.293    1714.5969    -24997.89   -123.60547     452.7633    95.044439    14.579449    27.896641 
   49800    236.07207   -536.87216    204420.41   -23247.786    1713.4754   -24961.262   -1280.6592    455.04265    95.045541    14.578345    27.885769 
   50000    240.10143   -486.38687    204420.41     -23282.6    1742.7216   -25025.321   -1163.3172    453.50878    95.045677    14.576658    27.908434 
   50200    241.32213   -318.93072    204420.41   -23187.629    1751.5818   -24939.211   -581.17843     454.9274    95.047175    14.576725    27.906892 
   50400    242.97298   -332.34516    204420.41   -23239.992    1763.5641   -25003.556   -621.55443    457.99652    95.049244     14.57478    27.911942 
   50600    246.28464   -240.48278    204420.41   -23144.541     1787.601   -24932.142   -309.50358    461.61874    95.050684     14.57551    27.916196 
   50800    233.62468   -382.90838    204420.41   -23331.426    1695.7116   -25027.137   -786.34763    465.98119    95.052275    14.573319    27.894945 
   51000    236.62466    -301.3496    204420.41   -23299.121    1717.4862   -25016.607    -514.5378    469.11497    95.050231    14.572464    27.891318 
   51200    239.54607   -237.54595    204420.41   -23316.938    1738.6907   -25055.629   -292.45793    468.94239    95.049556     14.57235    27.905223 
   51400    232.70911   -347.37057    204420.41   -23287.251    1689.0661   -24976.317    -703.2575    470.66987    95.046533    14.573574    27.904358 
   51600    231.18786   -242.48119    204420.41   -23316.951    1678.0245   -24994.975   -299.90324    475.08411    95.045738    14.577269    27.894774 
   51800     236.2218   -452.68376    204420.41   -23249.991    1714.5622   -24964.553   -1026.9386    481.31462    95.046672    14.576538     27.91952 
   52000    233.87145   -407.77585    204420.41   -23289.491    1697.5027   -24986.994   -841.37852    487.70908    95.046656    14.578193    27.933332 
   52200    237.44226   -333.35189    204420.41   -23269.328    1723.4206   -24992.749   -600.33831    490.34065    95.046742    14.580323    27.931987 
   52400    239.59896   -302.13166    204420.41   -23351.887    1739.0746   -25090.962   -497.23987    491.63923    95.045478    14.578776    27.913444 
   52600    237.38532   -424.98565    204420.41   -23237.968    1723.0073   -24960.975   -931.43941    495.00265     95.04449    14.579998    27.929787 
   52800    248.35825   -439.58064    204420.41   -23205.001    1802.6519   -25007.653   -1029.5414    497.27183    95.044172    14.578957    27.915147 
   53000    242.98261   -265.20298    204420.41   -23216.677     1763.634   -24980.311   -447.03818    495.47843    95.043212    14.578526     27.91898 
   53200    237.52748   -110.00507    204420.41   -23318.775    1724.0392   -25042.814    125.07881    496.13968    95.041601    14.578284     27.90955 
   53400    243.27363   -300.67976    204420.41   -23293.706    1765.7463   -25059.452   -529.62247     498.6593    95.041269     14.57953    27.912401 
   53600    228.99008   -354.65948    204420.41   -23318.579    1662.0724   -24980.652   -729.19679    496.88676    95.040554    14.575384    27.918993 
   53800    238.18426    -247.9335    204420.41   -23257.652    1728.8062   -24986.458   -386.10283    496.43869    95.038475    14.574061    27.926517 
   54000    237.96359   -369.65294    204420.41   -23243.901    1727.2046   -24971.106    -788.6153    496.03335    95.037016    14.572507     27.91928 
   54200    243.58305   -249.63373    204420.41   -23233.936    1767.9921   -25001.928   -379.24056    498.30766    95.035841    14.572132    27.919141 
   54400    239.99796   -388.90206    204420.41   -23157.121    1741.9706   -24899.092   -827.83614    501.61733    95.036235    14.573304    27.919421 
   54600    238.73643   -460.78832    204420.41   -23196.254    1732.8141   -24929.068   -1119.7964    500.12662     95.03546    14.573905    27.919442 
   54800    241.93701   -374.30514    204420.41   -23190.213    1756.0448   -24946.258   -771.44586    498.93762    95.036103     14.57773    27.898559 
   55000    240.05604   -341.75006    204420.41   -23149.288    1742.3921    -24891.68   -686.06681    501.63014    95.036845    14.579816    27.905922 
   55200    232.15237   -192.25749    204420.41   -23322.706    1685.0252   -25007.731   -126.90196    502.61532    95.037053    14.581648    27.910027 
   55400    236.62515   -258.40111    204420.41   -23280.651    1717.4898    -24998.14   -386.07972    505.45874    95.037845    14.581642    27.896243 
   55600    241.60469   -415.77798    204420.41   -23272.344    1753.6327   -25025.976   -936.40306    507.70543    95.039646    14.583513    27.899046 
   55800    243.12811   -256.50706    204420.41   -23161.186      1764.69   -24925.876   -396.10054    507.84501    95.040114    14.583797    27.897873 
   56000    244.73181   -292.05717    204420.41    -23190.52    1776.3302    -24966.85    -537.4951    507.56289     95.04087    14.585841    27.885014 
   56200    244.53378   -400.00367    204420.41   -23165.854    1774.8928   -24940.747   -887.32581    507.64012    95.041582    14.584678     27.88788 
   56400    239.95906   -338.20798    204420.41   -23263.496    1741.6882   -25005.184   -666.77335    505.59139    95.042126    14.583244    27.886901 
   56600    230.43707   -429.82582    204420.41   -23360.743    1672.5751   -25033.318   -951.41635    504.22851    95.043055    14.583281    27.905386 
   56800    240.16934   -197.11394    204420.41   -23261.282    1743.2145   -25004.496     -174.277    502.92981    95.043794    14.585576    27.909756 
   57000    231.15011   -318.81472    204420.41   -23322.024    1677.7505   -24999.775   -550.61027    504.46761    95.043404    14.587329    27.916533 
   57200    240.22584   -424.18961    204420.41   -23196.288    1743.6246   -24939.912   -935.33797    506.48701    95.042923    14.588802    27.929863 
   57400     235.3106   -179.41881    204420.41   -23269.302    1707.9484    -24977.25   -104.61348    507.90149    95.042146    14.591699    27.945502 
   57600    236.68927   -405.45708    204420.41   -23315.017    1717.9552   -25032.972   -902.84521    508.23725     95.04241    14.591733    27.938757 
   57800    238.72339   -92.288709    204420.41   -23225.139    1732.7194   -24957.858    209.07764    510.95722    95.040998    14.593657    27.956292 
   58000    241.72074   -397.92525    204420.41   -23212.229     1754.475   -24966.704   -897.32899    514.59913    95.040202    14.596366    27.964763 
   58200    242.94832   -211.11323    204420.41   -23157.917    1763.3851   -24921.302   -220.65929    516.59507    95.041454    14.593822    27.968051 
   58400    239.19881   -406.93565    204420.41     -23186.5    1736.1702   -24922.671   -905.62206    517.72905    95.040532    14.596498    27.956748 
   58600    240.94746   -296.30332    204420.41   -23236.387    1748.8623    -24985.25   -532.49633    517.03843    95.040556    14.594098    27.948907 
   58800    242.66726   -266.06064    204420.41   -23210.728    1761.3451   -24972.073   -416.66438     518.6922    95.038625    14.593415     27.97629 
   59000    240.71175   -115.07304    204420.41   -23144.762    1747.1515   -24891.914    129.72053    519.86102    95.038391    14.592311    27.966043 
   59200    244.71566   -380.97158    204420.41   -23160.218     1776.213   -24936.431   -799.16703    522.49709    95.038526     14.59158     27.95806 
   59400    237.88902   -543.75332    204420.41   -23176.542    1726.6633   -24903.206   -1358.7216    523.06882    95.040163    14.591392    27.940557 
   59600    235.09727   -335.42001    204420.41   -23268.181    1706.4001   -24974.581   -655.33176    522.01124    95.039917    14.592597    27.911539 
   59800    236.60953   -283.98237    204420.41   -23209.723    1717.3764     -24927.1   -488.79797    520.52712    95.041156    14.592936    27.906713 
   60000    238.39844   -313.95357    204420.41   -23160.432    1730.3608   -24890.792   -613.62573    522.08304    95.043082    14.592968    27.921563 
   60200    234.00446   -229.82325    204420.41   -23221.311    1698.4681   -24919.779   -325.12852    526.52037    95.041121    14.594929    27.928891 
   60400    236.95496   -365.73382    204420.41   -23177.681    1719.8837   -24897.565   -765.65765    528.30158    95.041697    14.595943     27.93477 
   60600    235.64618     -443.837    204420.41   -23171.437    1710.3842   -24881.821   -986.74706    528.83956    95.041738     14.59447    27.931215 
   60800    243.66721    -266.8848    204420.41   -23107.225     1768.603   -24875.828   -433.13879    528.50031    95.042036     14.59169    27.918627 
   61000    241.32862   -361.74096    204420.41   -23213.076    1751.6289   -24964.705   -711.11432    527.49466    95.041753     14.59068    27.907979 
   61200    244.02549   -404.52747    204420.41   -23216.374    1771.2035   -24987.578   -881.60307    527.19828    95.040841    14.589397    27.904409 
   61400    242.90573   -181.62418    204420.41   -23227.513    1763.0759   -24990.589   -116.65559    527.99593    95.042157    14.589026    27.900665 
   61600    237.76458   -258.88887    204420.41   -23213.331    1725.7601   -24939.092   -400.11189    529.26005    95.041153    14.589581    27.887898 
   61800    234.63618   -340.45767    204420.41       -23287    1703.0534   -24990.054   -679.79627     532.0196    95.039846    14.591284     27.87357 
   62000    243.90961   -294.57963    204420.41    -23203.05    1770.3624   -24973.412   -534.07452    531.99735    95.040089    14.590357    27.864468 
   62200    245.84557   -584.80707    204420.41   -23195.165    1784.4141   -24979.579   -1512.8669    532.59683    95.042213    14.589856    27.870204 
   62400    245.17166   -511.64623    204420.41   -23257.471    1779.5227   -25036.994   -1258.3958    535.77393    95.043492    14.587216    27.867478 
   62600    239.76631   -438.08575    204420.41   -23312.396    1740.2892   -25052.685   -971.72606    538.70575    95.044564    14.586216    27.877122 
   62800     238.4438   -369.14087    204420.41   -23379.116      1730.69   -25109.806   -760.73028    540.36984    95.045064    14.587389     27.87748 
   63000    239.94947   -352.11814    204420.41   -23259.473    1741.6186   -25001.091   -715.62964    541.66551    95.043691     14.58683    27.861826 
   63200    241.33273   -361.36833    204420.41   -23311.166    1751.6587   -25062.825   -761.80008    542.76433    95.043143    14.586084    27.845846 
   63400    235.31176   -364.90645    204420.41   -23334.852    1707.9569   -25042.809   -731.56756    544.70013    95.041156    14.583891    27.848626 
   63600    233.75051   -390.45122    204420.41    -23320.59    1696.6249   -25017.215   -819.61785    547.48656    95.041923    14.583537    27.862075 
   63800    234.45612   -370.42472    204420.41   -23342.336    1701.7464   -25044.083   -778.91038    548.41391    95.042024    14.585218     27.85167 
   64000    244.50647   -314.65754    204420.41   -23246.272    1774.6946   -25020.967   -526.88993    546.78956    95.042262    14.588989    27.860379 
   64200    237.02207   -413.83282    204420.41   -23254.477    1720.3708   -24974.848   -883.10438     546.0261    95.042899    14.591084    27.857091 
   64400    232.65602   -418.88275    204420.41   -23296.747    1688.6808   -24985.427   -918.81784    544.91444     95.04255    14.592686    27.819632 
   64600    238.75218   -499.83248    204420.41   -23299.607    1732.9284   -25032.535   -1213.8578     544.8279    95.041448    14.594911    27.825037 
   64800    231.07089   -426.70338    204420.41   -23292.699    1677.1755   -24969.875    -958.7385    543.62023    95.042761    14.594919    27.830355 
   65000    246.02956      -398.83    204420.41   -23208.317    1785.7496   -24994.066   -881.64044    547.03948     95.04357    14.592673    27.838861 
   65200    241.31324   -415.61558    204420.41   -23233.814    1751.5172   -24985.331    -939.0944    551.88358    95.043945    14.595039    27.835934 
   65400    236.18689   -158.05412    204420.41    -23260.33    1714.3088   -24974.639   -53.106083    558.87318    95.043229    14.597097    27.841117 
   65600    244.11032   -312.05294    204420.41   -23183.879    1771.8192   -24955.698   -563.68285    562.20976    95.042492    14.596428    27.868397 
   65800    239.79066     -481.003    204420.41   -23196.687     1740.466   -24937.153   -1121.2512    565.49566    95.042013    14.595516    27.861657 
   66000    236.31176   -299.22447    204420.41   -23192.883    1715.2151   -24908.098   -510.14625    566.18794    95.043162    14.593817    27.875431 
   66200    237.26563   -205.17617    204420.41   -23286.246    1722.1386   -25008.385   -202.68743    565.73102    95.044272    14.594232    27.895513 
   66400    236.06074   -286.18248    204420.41   -23246.206    1713.3932   -24959.599   -485.68527    565.71921    95.044909    14.594439    27.886606 
   66600    237.54116   -551.72043    204420.41   -23286.301    1724.1385   -25010.439   -1394.4808    565.81748    95.044512    14.595481    27.892507 
   66800    238.30423   -275.55781    204420.41   -23294.589     1729.677   -25024.266   -414.29978    564.07251    95.044704    14.596984    27.889194 
   67000    233.15444   -460.16309    204420.41   -23407.193    1692.2984   -25099.491   -1123.7041    564.88256    95.043673    14.595905    27.899648 
   67200    235.88348   -257.65146    204420.41   -23317.055    1712.1065   -25029.161   -392.44359    563.06902    95.042769    14.596205     27.91592 
   67400    240.43046   -358.78981    204420.41   -23268.663    1745.1098   -25013.773   -748.15985    564.32617    95.042504     14.59447    27.923017 
   67600    243.44302   -373.23156    204420.41   -23204.384    1766.9757    -24971.36   -775.64136    565.48034    95.042251    14.591477     27.92159 
   67800    237.62178   -260.81066    204420.41   -23244.764    1724.7237   -24969.488   -423.17957    566.35753     95.04267    14.591318    27.930076 
   68000    239.41299   -283.34571    204420.41   -23292.992    1737.7247   -25030.717   -446.62447    567.78166    95.043614    14.587934    27.930797 
   68200    237.03326   -217.76293    204420.41   -23271.437     1720.452   -24991.889   -285.02846    567.17679    95.044609    14.583485    27.924587 
   68400    238.15212   -433.61309    204420.41   -23213.166     1728.573   -24941.739   -968.43433    563.86547    95.043457    14.581445     27.94732 
   68600    230.78147   -213.73158    204420.41   -23269.651    1675.0748   -24944.726    -218.6998    562.64086    95.044169    14.579955     27.93957 
   68800    245.66392   -359.46776    204420.41   -23164.398    1783.0957   -24947.494    -738.5134    565.73689    95.044501    14.580437    27.939733 
   69000    240.05905   -376.59411    204420.41   -23173.745     1742.414   -24916.159   -836.68179     567.3683    95.043377    14.582245    27.927988 
   69200    235.02883   -452.60961    204420.41   -23252.891    1705.9033   -24958.795   -996.61045    569.42918    95.042828    14.581002     27.94054 
   69400    232.55957   -243.89699    204420.41   -23323.394    1687.9807   -25011.375    -344.1317    572.06545     95.04292    14.579327    27.932965 
   69600    240.17063   -355.85297    204420.41   -23196.713    1743.2239   -24939.937   -721.13432    577.44744    95.043006    14.583578    27.933349 
   69800    236.86113    -359.6909    204420.41   -23275.459    1719.2026   -24994.662   -772.25138    579.78001    95.041063    14.585213    27.901604 
   70000    237.84753   -455.16932    204420.41   -23309.884    1726.3621   -25036.246   -1083.8662    585.16828    95.043917    14.585535     27.89631 
   70200    247.59782   -251.45752    204420.41   -23218.286    1797.1324   -25015.418   -379.02546    588.79486    95.043527    14.587811    27.884465 
   70400    243.38354   -465.17425    204420.41   -23197.979     1766.544   -24964.524   -1081.2948    592.77947    95.043669    14.589194     27.88449 
   70600      239.374   -141.72836    204420.41   -23240.143    1737.4417   -24977.584    38.826957    593.85477    95.043468    14.593328    27.884931 
   70800    239.42178   -377.01286    204420.41   -23234.059    1737.7885   -24971.848   -769.60513    596.47411     95.04572    14.595049    27.868025 
   71000    240.15928   -236.82327    204420.41   -23275.414    1743.1415   -25018.555   -317.10691    597.48506    95.045869    14.595023    27.869528 
   71200    234.30769   -422.17843    204420.41    -23276.69    1700.6691   -24977.359     -991.442    600.58151    95.046885     14.59407    27.858934 
   71400    242.94579   -110.12343    204420.41   -23291.661    1763.3667   -25055.027    159.36606    602.26574    95.044963    14.594922    27.852462 
   71600     243.4017   -366.07133    204420.41   -23210.162    1766.6759   -24976.837   -767.54989    603.30937    95.045562    14.593302    27.859946 
   71800    239.27757   -114.15612    204420.41   -23318.448    1736.7418   -25055.189    115.13242    603.10916    95.045872    14.592768    27.862206 
   72000    237.05257   -596.69708    204420.41   -23338.129    1720.5921   -25058.721   -1537.6969    601.85076    95.045435    14.590393    27.877984 
   72200    244.36692   -388.22641    204420.41   -23180.853    1773.6817   -24954.534   -859.27646    600.40701    95.045622    14.587678    27.878362 
   72400    239.62531   -412.19507    204420.41   -23243.855    1739.2658   -24983.121   -906.86591    595.07301    95.044994    14.587569    27.869746 
   72600    239.60596   -356.78394    204420.41   -23236.536    1739.1253   -24975.661   -756.08353    594.19502    95.045186    14.586154    27.861614 
   72800    242.64405   -274.66664    204420.41   -23287.409    1761.1766   -25048.585   -441.21406    595.01065    95.045422    14.587008    27.837575 
   73000    238.85902   -432.48496    204420.41    -23316.56    1733.7038   -25050.264   -1009.0768    595.33144    95.044682    14.587401    27.838069 
   73200    243.06987   -466.00814    204420.41    -23253.71    1764.2674   -25017.978   -1120.9947    595.72303    95.044423     14.59217    27.841035 
   73400    242.70239   -217.63628    204420.41   -23180.079    1761.6001   -24941.679   -244.18075    595.54937    95.048024    14.595196    27.845403 
   73600    242.11521   -476.27248    204420.41   -23238.285    1757.3382   -24995.623   -1127.0298    597.44084    95.049412    14.595465    27.860072 
   73800    231.57529   -494.84938    204420.41   -23314.485    1680.8366   -24995.322   -1183.9813    599.04822    95.046984    14.598016    27.908478 
   74000     234.8011   -394.19163    204420.41   -23316.956    1704.2503   -25021.207   -871.03055    599.52575    95.045602    14.598404    27.912943 
   74200    241.98582   -470.31632    204420.41   -23181.855     1756.399   -24938.254   -1137.2993    604.69676    95.045348    14.598626    27.907129 
   74400    247.37504   -269.93026    204420.41   -23234.991    1795.5155   -25030.507   -414.98054    609.87661    95.043851    14.598402    27.907702 
   74600    238.11347   -93.533038    204420.41   -23272.075    1728.2925   -25000.367    207.46567    611.00071    95.042427     14.59821    27.925148 
   74800    242.48192   -381.55815    204420.41   -23311.942    1759.9998   -25071.942   -771.28066    612.80828    95.041969    14.597114    27.921899 
   75000    238.51393   -308.85241    204420.41   -23325.725    1731.1991   -25056.924    -558.3926    616.07481     95.04063    14.595352    27.901643 
   75200    243.56383   -434.81219    204420.41   -23258.724    1767.8526   -25026.577   -1007.0651    622.61212    95.040517    14.597479    27.905176 
   75400    233.28641   -316.74063    204420.41   -23344.187    1693.2563   -25037.443   -581.85888    626.20895    95.039804    14.598248    27.929751 
   75600     243.7449   -126.25748    204420.41   -23277.965    1769.1669   -25047.132    72.294714    626.08674    95.040914    14.598237    27.942561 
   75800    241.34055   -496.11793    204420.41   -23203.088    1751.7155   -24954.804   -1212.6744    625.74014    95.040654    14.602005    27.935527 
   76000    241.91234   -105.03632    204420.41   -23204.291    1755.8657   -24960.157    172.75964    624.70014    95.038922     14.60055    27.931849 
   76200    234.88962   -326.23033    204420.41   -23347.432    1704.8929   -25052.325   -634.13907     625.0002     95.03876    14.600988    27.932148 
   76400    234.80399   -180.86677    204420.41   -23321.511    1704.2714   -25025.783   -126.83082    623.90552    95.036438    14.601128    27.926024 
   76600    242.23881   -517.20873    204420.41   -23278.121    1758.2353   -25036.356   -1289.8361    621.07267    95.036036    14.601951    27.931667 
   76800    235.61068   -435.59995    204420.41   -23294.217    1710.1265   -25004.344   -1000.7876    622.43726    95.035841     14.60223     27.93215 
   77000    242.69901   -362.52802    204420.41   -23296.546    1761.5756   -25058.121   -740.61796    622.77949    95.035955    14.601619    27.919413 
   77200    244.82374   -243.38051    204420.41   -23256.685    1776.9974   -25033.683   -294.28202    621.00228    95.034087    14.598968    27.915292 
   77400    242.93175   -218.28933    204420.41   -23244.684    1763.2649   -25007.949   -285.38773    618.94406    95.032562    14.597724    27.921356 
   77600    239.35394   -301.23883    204420.41   -23310.471    1737.2961   -25047.767   -531.94121    621.16781    95.032072    14.601117    27.918572 
   77800    237.30996   -401.38585    204420.41   -23322.996    1722.4603   -25045.456   -946.23313    625.57047    95.031637    14.603309    27.928006 
   78000    239.25976   -373.71365    204420.41   -23294.095    1736.6125   -25030.708    -793.8719    629.25708    95.031428     14.60505    27.946865 
   78200    238.77029   -281.67026    204420.41   -23315.599    1733.0598   -25048.659   -462.06011    632.82914    95.032907     14.60415    27.972682 
   78400    244.66209   -419.07152    204420.41   -23242.422    1775.8241   -25018.246   -975.66102    634.66618    95.032627    14.604777    27.991644 
   78600    238.88272   -376.07882    204420.41   -23256.472    1733.8759   -24990.348   -800.11103    633.70702    95.033891    14.604494    27.979549 
   78800    238.18071   -406.21716    204420.41   -23199.413    1728.7805   -24928.193   -931.65407    636.33292    95.034119    14.603438    27.954202 
   79000    242.87067    -358.3125    204420.41   -23214.132    1762.8215   -24976.953   -734.52893    636.69109    95.034723    14.600991    27.941953 
   79200    248.93937    -239.2395    204420.41   -23201.558    1806.8697   -25008.428   -347.94258    637.47843    95.035124    14.597717    27.939416 
   79400    238.79292   -257.17737    204420.41   -23205.841    1733.2241   -24939.065   -386.63443    637.72812     95.03641    14.598665    27.951571 
   79600    238.44268   -265.30958    204420.41   -23300.711     1730.682   -25031.393   -434.45479    641.26581     95.03652    14.600356    27.947521 
   79800    238.60156   -340.28117    204420.41   -23289.467    1731.8352   -25021.302   -666.58283    644.65106     95.03708    14.597352    27.956092 
   80000    234.58323   -197.14943    204420.41   -23326.711     1702.669    -25029.38   -179.52878    645.81541    95.037562    14.596364     27.95888 
   80200    235.13125   -479.13035    204420.41   -23378.671    1706.6466   -25085.318   -1105.9324    648.99208    95.037669    14.594413    27.959067 
   80400    234.04671   -255.08576    204420.41    -23395.94    1698.7748   -25094.715   -344.94655    652.45089    95.037934    14.592494    27.962177 
   80600    234.80609   -592.76079    204420.41   -23364.304    1704.2866    -25068.59   -1550.9963    658.46904    95.036163    14.596061    27.973348 
   80800    240.21629   -294.80227    204420.41   -23304.038    1743.5553   -25047.593   -500.62818    660.84171    95.034219    14.599238    27.965125 
   81000    244.07354   -401.78231    204420.41   -23343.341    1771.5523   -25114.894   -882.75714    662.73974    95.032472    14.599046    27.977814 
   81200    235.19429   -377.92302    204420.41   -23314.979    1707.1043   -25022.083   -833.38813     668.1473    95.032501    14.597868    27.974488 
   81400    238.67769   -303.30544    204420.41   -23292.753    1732.3877   -25025.141   -546.00959    670.61788     95.03124    14.598444    27.986419 
   81600    234.07141   -354.69027    204420.41   -23390.051     1698.954   -25089.005   -730.19106    675.65556    95.031067     14.59606     28.00418 
   81800    237.83461    -243.1929    204420.41   -23405.558    1726.2684   -25131.827   -363.49011    677.41253    95.030924    14.597545    27.999641 
   82000    240.54456   -460.98031    204420.41   -23343.988     1745.938   -25089.926   -1066.3283    682.70962    95.030488    14.602461    27.979522 
   82200    240.29948   -378.90924    204420.41    -23296.42    1744.1591   -25040.579   -769.41771     685.3467    95.029396    14.604972    27.972648 
   82400    241.85874   -440.12717    204420.41   -23380.245    1755.4766   -25135.722   -1040.1357    684.81905    95.030664    14.608507    27.935699 
   82600    240.99578   -278.85968    204420.41   -23264.992     1749.213   -25014.205   -442.96342    683.16912    95.032176    14.609274    27.948314 
   82800    238.58289   -451.41681    204420.41   -23337.889    1731.6996   -25069.589   -1060.7989    682.90949    95.033772    14.609597    27.935717 
   83000    244.36433   -501.84941    204420.41   -23229.194    1773.6629   -25002.857   -1215.4029    680.09042    95.032656    14.610549    27.952602 
   83200    240.51335   -440.40612    204420.41   -23252.269    1745.7114    -24997.98   -1024.4844    682.57193    95.034057    14.609949     27.94733 
   83400    240.41894   -314.34758    204420.41    -23269.16    1745.0262   -25014.186   -578.69893     683.5544    95.034506    14.606591    27.951251 
   83600    236.04043   -223.26519    204420.41   -23365.198    1713.2458   -25078.444   -282.59741    682.36426    95.035159    14.605006    27.962592 
   83800      240.505   -407.99676    204420.41   -23320.899    1745.6508   -25066.549   -915.24059    685.91056    95.033213    14.604531    27.955145 
   84000    239.03727   -543.88347    204420.41   -23318.595    1734.9976   -25053.593   -1388.9585    688.26151    95.032897     14.60525    27.969702 
   84200    243.21341   -332.50022    204420.41   -23254.453    1765.3092   -25019.762   -680.87624    689.55784    95.031874     14.60352     27.97872 
   84400    232.40415   -328.47819    204420.41   -23308.789    1686.8527   -24995.642   -620.80353    694.23798    95.030924    14.601983    27.968533 
   84600    242.23239    -465.6076    204420.41   -23238.175    1758.1887   -24996.364   -1125.9227     698.4612    95.030192      14.6005    27.984081 
   84800    239.06001   -290.46714    204420.41   -23313.991    1735.1627   -25049.154   -529.23951    700.87011    95.031586    14.601598    27.984196 
   85000    243.53162    -390.4733    204420.41     -23248.9    1767.6189   -25016.519   -811.27871    702.91951    95.030234    14.604353     27.98008 
   85200    242.02142   -289.27407    204420.41   -23233.151    1756.6574   -24989.808   -483.54887    701.45099    95.031332    14.607533    27.994222 
   85400    233.59377   -475.39488    204420.41    -23337.53    1695.4872   -25033.018    -1125.941    697.92128    95.033271    14.609946    27.997079 
   85600    240.50135   -305.25001    204420.41   -23291.869    1745.6244   -25037.494   -575.02123    696.44896    95.032908    14.609619    27.991859 
   85800    237.34465   -283.24553    204420.41   -23284.599    1722.7122   -25007.312   -434.94686    697.53793    95.031673    14.610248    27.976197 
   86000    239.92178   -461.60554    204420.41   -23235.212    1741.4177    -24976.63   -1077.5665    703.96465     95.03224    14.608389    27.975113 
   86200    240.76677   -372.78927    204420.41   -23220.634    1747.5508   -24968.185   -762.80724    705.23098    95.030035    14.609316    27.985141 
   86400    236.99427    -593.1839    204420.41   -23303.934     1720.169   -25024.103   -1511.6155    706.85873    95.030478    14.610934    28.010131 
   86600    238.77339   -254.98792    204420.41   -23233.415    1733.0823   -24966.497   -401.76061    704.03295    95.029129    14.607202    28.024575 
   86800    234.59584   -408.74254    204420.41   -23273.949    1702.7605    -24976.71   -909.36872    701.67589    95.028263    14.606917    28.026539 
   87000    244.35598    -367.7748    204420.41   -23206.744    1773.6023   -24980.347   -751.02622    696.78744    95.028319    14.604893    28.030016 
   87200    238.96023   -170.35972    204420.41   -23143.895    1734.4384   -24878.333   -121.45792    694.82512    95.028411    14.604123     28.04117 
   87400    230.65678    -323.4007    204420.41    -23265.56    1674.1698    -24939.73   -577.40566    693.59752    95.028852    14.605637    28.036309 
   87600    239.90368   -241.72582    204420.41   -23163.152    1741.2863   -24904.439   -346.93227    695.07363    95.028311    14.607746    28.048813 
   87800    240.03827   -329.79692    204420.41   -23203.853    1742.2632   -24946.116   -619.23801    694.79209    95.028913    14.606905    28.049474 
   88000    237.76337   -306.62031    204420.41   -23220.097    1725.7513   -24945.848   -569.11967    693.96718    95.028334    14.606399    28.049109 
   88200    241.55741   -318.85348    204420.41   -23208.068    1753.2895   -24961.357   -602.69964    696.26158    95.028523    14.606723    28.065646 
   88400    237.86072   -168.01915    204420.41   -23165.402    1726.4579    -24891.86   -79.835281    700.93372    95.027977    14.606026    28.093473 
   88600    241.84325    -354.7951    204420.41   -23231.998    1755.3642   -24987.362    -704.5613    705.61744    95.027366    14.607823    28.085768 
   88800    235.38694   -310.67649    204420.41   -23257.794    1708.5026   -24966.296   -573.80962    707.37963    95.026649    14.606013    28.080976 
   89000    240.34404   -411.73599    204420.41   -23261.331    1744.4825   -25005.813   -959.88343    709.37721    95.028177    14.605973    28.084012 
   89200    242.50215   -392.27832    204420.41   -23271.201    1760.1467   -25031.348   -873.07762    712.09636    95.028233     14.60743    28.093763 
   89400    242.27371   -233.71735    204420.41   -23215.321    1758.4886   -24973.809    -294.9722    715.13103    95.026746    14.610187    28.106053 
   89600    235.05471   -464.17029    204420.41   -23335.469    1706.0911   -25041.561   -1096.1329     717.1861    95.024283    14.614836    28.070655 
   89800    241.32942   -48.467025    204420.41   -23210.961    1751.6347   -24962.596    314.35704     716.5736    95.024314    14.617154    28.072567 
   90000    241.74541   -293.45723    204420.41   -23173.104     1754.654   -24927.758   -513.71358    723.42805    95.024202    14.618817    28.067615 
   90200    231.78914   -377.61444    204420.41   -23213.765    1682.3887   -24896.154   -800.94079    729.35984    95.023333    14.622071    28.059834 
   90400    237.50603   -244.54644    204420.41    -23144.13    1723.8835   -24868.014   -331.14656    732.69504    95.022943    14.623244    28.061523 
   90600     241.7425   -396.08717    204420.41   -23151.846    1754.6329   -24906.479   -877.71872    737.81157    95.023388    14.622489    28.068358 
   90800    240.93687   -230.61237    204420.41    -23138.39    1748.7855   -24887.175   -285.16176    740.88253    95.023567    14.620084    28.075529 
   91000    237.26195   -203.83301    204420.41   -23216.686    1722.1119   -24938.798   -198.35862    740.57954    95.024068    14.619558    28.077485 
   91200    230.56123   -452.42261    204420.41   -23240.108    1673.4762   -24913.584   -1046.3351    741.79521    95.023829     14.61788     28.07633 
   91400    237.54156   -126.53328    204420.41   -23224.295    1724.1414   -24948.437    88.759663    741.92224     95.02398    14.617284    28.083633 
   91600    247.57934   -358.45157    204420.41   -23130.038    1796.9983   -24927.036   -716.91878    741.35229    95.025053    14.618206    28.088258 
   91800     247.6522   -437.34988    204420.41   -23158.476    1797.5271   -24956.003   -993.59309    743.20125    95.023803    14.617157    28.073858 
   92000      246.506   -377.47207    204420.41   -23176.576    1789.2077   -24965.783   -818.61718    746.53428    95.024516    14.616332    28.081694 
   92200    242.28132     -482.806    204420.41   -23193.176    1758.5438    -24951.72   -1157.7024    748.49925    95.025112    14.617611    28.069407 
   92400    241.29236   -195.18694    204420.41   -23172.695    1751.3657    -24924.06   -160.03658    748.09921    95.024577    14.618303    28.069208 
   92600    244.02195   -280.02829    204420.41   -23113.287    1771.1778   -24884.465   -435.50231    749.67657    95.024674    14.618247    28.054902 
   92800    237.28684   -223.20467    204420.41   -23199.775    1722.2925   -24922.068   -259.09117    752.28188     95.02497     14.62178    28.035888 
   93000    236.97388   -340.57458    204420.41   -23204.783     1720.021   -24924.804   -640.64687    755.29161    95.026416    14.620292    28.023556 
   93200    240.31667   -338.31325    204420.41     -23198.1    1744.2838   -24942.384   -700.60116    757.21062    95.026383     14.61714    28.032765 
   93400    235.91319   -152.80707    204420.41    -23303.73    1712.3222   -25016.052   -48.369955    756.41573    95.026499    14.619342     28.03584 
   93600    243.00941   -457.55984    204420.41   -23263.428    1763.8285   -25027.256   -1064.6789    753.30022    95.028168    14.620374    28.036415 
   93800    237.83037   -325.18125    204420.41   -23295.828    1726.2376   -25022.066   -614.58444    752.95883    95.027871    14.618564     28.03553 
   94000    237.14175   -369.99621    204420.41   -23313.316    1721.2394   -25034.555      -785.43    756.02712    95.027262     14.61669    28.019745 
   94200    244.09485   -249.10688    204420.41   -23189.964    1771.7069   -24961.671    -325.1692    754.97454    95.026981    14.616801    28.011338 
   94400    239.98219   -383.42328    204420.41   -23224.751    1741.8561   -24966.607   -771.72659    756.59822    95.025215    14.619581    27.997637 
   94600    233.89148   -218.26428    204420.41   -23218.613    1697.6481   -24916.261   -278.88607    759.40169    95.026294     14.61947    28.000991 
   94800    241.39518   -347.27543    204420.41   -23202.489     1752.112   -24954.601   -718.88162    754.99456    95.025703    14.619505     27.98681 
   95000    246.43659   -442.37687    204420.41   -23281.037    1788.7039   -25069.741   -1028.3147    756.28686      95.0262    14.618482    27.985697 
   95200     238.0825   -348.61332    204420.41   -23249.274    1728.0676   -24977.342   -718.17116     758.4514    95.027388    14.618643    27.979692 
   95400    237.83347    -364.0473    204420.41   -23213.031    1726.2601   -24939.291    -760.6363    758.41729    95.029297     14.61755     27.95788 
   95600    242.27677   -294.48321    204420.41   -23173.539    1758.5108    -24932.05   -480.70243     756.2876    95.028806    14.617036    27.958824 
   95800    236.97935    -236.3746    204420.41   -23185.194    1720.0607   -24905.255   -309.06865    755.39549    95.029835    14.618154    27.948511 
   96000     240.8947   -355.27903    204420.41   -23197.786    1748.4794   -24946.265    -702.7854    758.66047     95.03036    14.618137    27.963283 
   96200    243.07808   -412.45058    204420.41   -23141.988    1764.3269   -24906.315   -925.11994    761.98065    95.030366    14.618717    27.976073 
   96400    242.00008   -302.70921    204420.41   -23244.997    1756.5025     -25001.5    -519.7206    760.42696    95.028739    14.619039     27.98171 
   96600    237.92778    -431.9534    204420.41   -23272.703    1726.9447   -24999.648   -939.61345    763.45568    95.029768    14.616984    27.969479 
   96800    240.10235   -475.24318    204420.41   -23264.414    1742.7283   -25007.142    -1159.996     768.0388     95.03001    14.617123    27.958418 
   97000    241.82446   -343.47474    204420.41   -23298.329    1755.2278   -25053.557   -694.36184    769.18525    95.031023    14.614446    27.956433 
   97200    234.40738    -442.8706    204420.41   -23254.742    1701.3926   -24956.135   -1019.9368    770.66951    95.031531    14.612772    27.962432 
   97400    238.44688   -426.07743    204420.41   -23235.906    1730.7124   -24966.619    -940.8315    768.22924    95.030628    14.614699    27.978527 
   97600    242.10087   -227.83099    204420.41   -23209.484    1757.2341   -24966.718   -242.64156    766.69073    95.031059     14.61599    27.994321 
   97800     242.3094   -234.60839    204420.41   -23233.552    1758.7476   -24992.299   -280.90153    762.63896    95.029578    14.617061    27.994959 
   98000    234.81087   -421.14857    204420.41   -23263.207    1704.3213   -24967.528   -949.89955    763.95139    95.027349    14.619908     27.97712 
   98200    240.34045   -89.994551    204420.41   -23285.269    1744.4565   -25029.725    200.24147     763.9018    95.024241    14.620313    27.981059 
   98400    243.33866    -244.6967    204420.41   -23206.185    1766.2183   -24972.403   -290.71055    769.97505    95.022392    14.619607    27.970608 
   98600    245.52014   -382.86268    204420.41   -23247.277    1782.0521    -25029.33   -811.73423     776.6895    95.019367    14.617847     27.96693 
   98800    237.79651   -380.56363    204420.41   -23220.677    1725.9919   -24946.669   -832.21986    776.90863    95.017386    14.618265    27.941153 
   99000    238.56352   -246.22942    204420.41   -23272.747     1731.559   -25004.306   -318.83633    774.93514    95.017498    14.620526     27.92277 
   99200    239.23715   -322.10117    204420.41   -23200.539    1736.4484   -24936.988   -583.74089    771.22978    95.017785    14.620851    27.922516 
   99400    239.64558   -511.71723    204420.41   -23176.697    1739.4129    -24916.11   -1254.1175    769.77023    95.019893    14.619077    27.909021 
   99600    232.44876   -371.84795    204420.41   -23188.261    1687.1764   -24875.437   -781.78567    771.22133     95.01912    14.619222     27.92397 
   99800    242.87392   -310.45701    204420.41   -23195.039    1762.8451   -24957.884    -568.3161    773.62688    95.020705    14.617922    27.908198 
  100000     237.5242   -292.68355    204420.41   -23215.851    1724.0154   -24939.866   -501.68393    772.96426    95.020277    14.617276     27.92011 
  100200    239.06169   -471.64713    204420.41   -23312.402    1735.1749   -25047.577   -1136.5862    774.60579    95.020666    14.618202    27.929943 
  100400    241.13937   -304.45082    204420.41   -23229.607    1750.2552   -24979.862   -546.13387    772.07474    95.020165    14.618079    27.925646 
  100600    239.97108    -505.2807    204420.41   -23230.892    1741.7755   -24972.668   -1267.6278    770.67126     95.01986     14.61747    27.910075 
  100800    236.70795   -227.66612    204420.41   -23276.855    1718.0908   -24994.946   -287.24585     771.9037    95.018558    14.617092    27.902231 
[...]
 5175800    226.78931    91.851132    204420.41   -25801.473    1646.0986   -27447.571    819.58546    11806.343    95.622585    14.838211    27.959309 
 5176000    224.67308   -47.668808    204420.41   -25816.905    1630.7384   -27447.643     279.0788    11808.903    95.623764    14.837846    27.960581 
 5176200    224.51655    69.099224    204420.41   -25833.915    1629.6023   -27463.518    696.72223    11808.347    95.624095    14.837706    27.958035 
 5176400     225.8719   -59.357766    204420.41   -25771.518    1639.4398   -27410.958    250.85512    11809.101    95.624513     14.83849    27.953293 
 5176600    229.71867     87.03123    204420.41   -25704.199    1667.3607    -27371.56    762.44019    11805.332    95.624555    14.838821    27.956041 
 5176800    224.64003   -102.13958    204420.41   -25759.013    1630.4985   -27389.512    123.48004    11809.718    95.624976     14.83865    27.951443 
 5177000    232.26336     106.8421    204420.41   -25736.228    1685.8307   -27422.059    805.87925    11808.988    95.625512    14.838258    27.952228 
 5177200    226.67921    10.431081    204420.41   -25703.225    1645.2995   -27348.524    521.91743    11811.303    95.626103    14.837121    27.955119 
 5177400    234.12184    64.110162    204420.41   -25658.444    1699.3201   -27357.764    738.33766    11805.449    95.626844     14.83649    27.960194 
 5177600    232.08985     71.95409    204420.41   -25761.607    1684.5714   -27446.178    739.83328    11807.423    95.627471    14.834382    27.955359 
 5177800    223.77817   -73.469769    204420.41    -25794.06    1624.2429   -27418.303     237.8274    11810.759     95.62903    14.833542    27.949244 
 5178000     224.8513    52.255005    204420.41   -25787.468     1632.032     -27419.5    664.56136    11809.949    95.629028    14.834072    27.949895 
 5178200    225.98523     19.23639    204420.41   -25784.307    1640.2624   -27424.569    492.84369    11808.674    95.629847    14.833547    27.950387 
 5178400    227.11755    33.623219    204420.41   -25796.723     1648.481   -27445.204    607.32075    11806.312    95.630318    14.833398    27.944758 
 5178600    228.01872   -36.038074    204420.41   -25757.047     1655.022   -27412.069    366.75607    11811.867    95.630845    14.833371    27.952411 
 5178800    228.31073     137.6115    204420.41   -25767.033    1657.1415   -27424.175    930.06769    11810.348    95.629665    14.834442    27.949268 
 5179000      222.054   -83.295739    204420.41   -25796.849    1611.7284   -27408.577    214.68485     11814.27    95.629271    14.834326    27.950076 
 5179200    227.27092    135.69805    204420.41    -25795.72    1649.5943   -27445.315    929.46848      11802.6    95.628745    14.835311    27.948477 
 5179400      231.944   -90.971048    204420.41   -25723.492    1683.5127   -27407.005    176.17237     11812.24    95.629695    14.833126    27.949242 
 5179600    219.73144    51.721145    204420.41   -25790.265    1594.8707   -27385.136    655.04156    11807.444    95.629181    14.833414    27.952053 
 5179800    228.97681    10.444942    204420.41   -25774.673    1661.9761    -27436.65    524.00749    11811.701    95.629626    14.833897    27.944162 
 5180000    222.62621    17.365769    204420.41   -25859.792    1615.8817   -27475.674    524.77391     11804.22    95.630246    14.835061    27.948578 
 5180200    220.02247   -12.322646    204420.41   -25839.163    1596.9831   -27436.146    436.68336    11806.387     95.63031    14.835467    27.951338 
 5180400    231.49565    84.700049    204420.41   -25766.972    1680.2585    -27447.23    795.93443    11810.582    95.629912    14.835792    27.945663 
 5180600    224.77326   -23.823894    204420.41   -25772.772    1631.4655   -27404.237    398.13014    11809.595    95.630076    14.837586    27.948408 
 5180800    224.29697   -73.460332    204420.41   -25803.815    1628.0086   -27431.823     187.0574    11808.814    95.631036    14.838888    27.949079 
 5181000    222.24365    97.454397    204420.41   -25852.196     1613.105   -27465.301    849.03279    11801.092    95.631229    14.838222    27.952452 
 5181200     228.8644   -111.94666    204420.41   -25824.863    1661.1601   -27486.023    86.296702    11815.081    95.632177    14.837732    27.950323 
 5181400     232.6706    180.17031    204420.41   -25735.364    1688.7866    -27424.15    1057.5477    11806.655    95.632457    14.839341    27.950066 
 5181600    219.88346    -162.9065    204420.41   -25854.884    1595.9741   -27450.858   -79.563293    11812.069    95.633093    14.840147    27.947579 
 5181800    226.93765    123.71669    204420.41   -25740.838    1647.1753   -27388.013    894.61967    11799.135     95.63372    14.840741    27.955099 
 5182000    225.76483   -156.59393    204420.41    -25770.07    1638.6626   -27408.733   -38.393351    11811.402    95.633694    14.839832    27.949478 
 5182200    232.54663    23.236646    204420.41   -25737.553    1687.8868   -27425.439    522.59591    11807.053    95.633862    14.838562    27.949006 
 5182400    220.88406    -46.49274    204420.41   -25815.077    1603.2367   -27418.313     288.5312    11809.261    95.633409    14.839151    27.948735 
 5182600    229.37547    84.838145    204420.41   -25780.669    1664.8696   -27445.539    783.13773    11801.516    95.633276    14.837077    27.948655 
 5182800    227.92996   -73.436348    204420.41   -25749.026    1654.3777   -27403.403    182.41433    11807.536    95.633221    14.837887     27.94572 
 5183000    229.96274    7.6295057    204420.41   -25726.012    1669.1322   -27395.144    508.02778    11811.618    95.633209    14.838048    27.948323 
 5183200    232.04389    28.728944    204420.41    -25747.52    1684.2378   -27431.758    566.98431    11808.001    95.633681    14.837626    27.951791 
 5183400    223.63984   -131.50615    204420.41   -25870.682    1623.2389   -27493.921    24.573727    11807.036      95.6339    14.837365    27.954537 
 5183600    222.07452    169.15205    204420.41    -25852.27    1611.8773   -27464.147    1074.2988    11800.938    95.633292     14.83632    27.950016 
 5183800    217.48459   -70.477673    204420.41   -25822.352    1578.5624   -27400.915    270.98931     11813.55    95.633137    14.835478    27.952018 
 5184000    230.47189    145.68436    204420.41    -25748.53    1672.8278   -27421.358    948.17322    11807.113    95.633929    14.834696    27.944858 
 5184200    225.64452   -49.249857    204420.41   -25766.371    1637.7894    -27404.16    329.16311    11807.363    95.632941    14.834961    27.953137 
 5184400    229.44433    129.52499    204420.41   -25745.283    1665.3695   -27410.652     929.8381    11804.422    95.633273    14.834042    27.953636 
 5184600    225.24041   -17.908591    204420.41   -25793.115    1634.8562   -27427.972    422.92416    11811.643    95.632913    14.833908    27.953399 
 5184800    226.08819   -20.669399    204420.41   -25767.534    1641.0097   -27408.544    379.48345    11806.514    95.633161    14.835152    27.954844 
 5185000    227.80942    2.1667988    204420.41   -25769.476    1653.5028   -27422.979    495.55596    11808.298    95.633865     14.83393    27.950959 
 5185200    223.50393    23.973198    204420.41    -25825.48    1622.2524   -27447.733    575.60063    11804.029     95.63454    14.833818    27.949022 
 5185400    226.60249    14.288258    204420.41   -25771.695    1644.7426   -27416.438    515.22649    11811.494    95.635182    14.832712    27.955363 
 5185600    227.44373    36.228639    204420.41    -25760.84    1650.8486   -27411.689     562.6976    11813.568    95.634828    14.834187    27.957658 
 5185800    226.37297     1.925624    204420.41   -25742.325    1643.0767   -27385.402    462.54199    11806.514    95.635327       14.833    27.957728 
 5186000    223.24149    -80.25556    204420.41   -25742.944    1620.3475   -27363.292    200.60874    11808.452    95.636437    14.831615    27.960814 
 5186200    224.04119    140.95899    204420.41    -25725.69     1626.152   -27351.842    963.89594    11804.427    95.636871    14.830676    27.945269 
 5186400    229.35485    -107.8721    204420.41   -25768.247      1664.72   -27432.967    73.748238    11818.393    95.637852    14.830735     27.94961 
 5186600    227.92988    107.13591    204420.41   -25763.092    1654.3772   -27417.469    827.46983    11805.253    95.637585     14.83138    27.954193 
 5186800    227.45027   -97.308685    204420.41   -25767.865    1650.8961   -27418.761    142.63192    11808.329     95.63777    14.831057    27.958017 
 5187000    231.18606    154.08655    204420.41   -25738.822    1678.0114   -27416.833    1015.5127    11803.057      95.6383    14.831038    27.957428 
 5187200    225.82045   -140.12436    204420.41   -25795.352    1639.0664   -27434.418   -42.309724    11816.768    95.638378    14.830648    27.954954 
 5187400    223.83285    60.208234    204420.41   -25818.128    1624.6398   -27442.768    667.95618    11809.266    95.638684    14.833404    27.951355 
 5187600    232.14163    19.342985    204420.41   -25741.402    1684.9472   -27426.349    577.11983    11808.178    95.638912    14.834493    27.953151 
 5187800    223.30094    44.455848    204420.41   -25787.066     1620.779   -27407.845    636.49327    11805.686    95.640211    14.834891    27.951598 
 5188000    229.39269    38.301814    204420.41   -25725.343    1664.9947   -27390.338    608.80595    11807.506     95.64062    14.835388    27.951797 
 5188200    232.62415    -64.72218    204420.41   -25761.918    1688.4495   -27450.367    254.26583    11816.371    95.641162    14.835908    27.960992 
 5188400    228.19499    73.249976    204420.41   -25767.484    1656.3014   -27423.785    754.11343    11804.736    95.640917    14.837597    27.966939 
 5188600    227.76201   -56.921847    204420.41   -25804.606    1653.1587   -27457.764    259.99611    11809.093     95.64213    14.837667    27.967039 
 5188800    225.25744    92.272551    204420.41    -25839.74    1634.9799    -27474.72    811.86558    11800.654    95.641193     14.83866    27.965843 
 5189000     220.7773   -150.94745    204420.41   -25791.678    1602.4618    -27394.14   -52.740818    11815.064    95.640572    14.839645    27.960319 
 5189200      217.865    184.49129    204420.41   -25903.123    1581.3236   -27484.446    1134.7688    11803.384    95.640417    14.841986    27.962783 
 5189400    222.35436   -99.351906    204420.41   -25843.762    1613.9086    -27457.67    146.23629    11808.765     95.64055    14.842369    27.961236 
 5189600    227.70513    101.87112    204420.41   -25774.052    1652.7459   -27426.798    822.38219    11805.483    95.640772    14.842667    27.955878 
 5189800    222.27589   -64.407525    204420.41   -25805.089     1613.339   -27418.428    221.84412    11810.375     95.64087    14.844022    27.956433 
 5190000    226.48355    65.643047    204420.41   -25791.827    1643.8793   -27435.707    731.65802      11808.9    95.641152    14.843979    27.961175 
 5190200    222.67436   -20.563498    204420.41   -25816.765    1616.2312   -27432.996    410.43298    11806.013    95.641018    14.844243    27.965026 
 5190400    225.19396   -33.639319    204420.41   -25713.586    1634.5192   -27348.106      336.986    11807.836    95.641249    14.843874     27.96468 
 5190600    231.59155    71.240045    204420.41   -25791.776    1680.9545    -27472.73    710.05474     11808.18    95.640699    14.845107    27.961469 
 5190800    231.41163   -44.273953    204420.41   -25765.562    1679.6487   -27445.211     311.5341    11809.416    95.641718    14.845307    27.950505 
 5191000    225.14156    83.315903    204420.41     -25791.1    1634.1388   -27425.238    762.88423    11805.235      95.6419    14.844973    27.961361 
 5191200    229.34611   -10.626981    204420.41   -25791.664    1664.6566   -27456.321    432.44125    11809.492    95.641782     14.84506     27.96135 
 5191400    224.67037   -43.407795    204420.41   -25768.919    1630.7187   -27399.637    313.88271    11809.577    95.641362    14.845359    27.969699 
 5191600    229.66329    14.686449    204420.41   -25791.992    1666.9587   -27458.951    497.22049    11807.682      95.6409    14.845472    27.971295 
 5191800     225.7111    80.462203    204420.41   -25737.722    1638.2727   -27375.995     782.7346    11806.304    95.640232    14.846014    27.962952 
 5192000    231.51436    1.0385798    204420.41   -25725.766    1680.3943   -27406.161    469.78757    11809.687    95.640437    14.846603    27.960877 
 5192200    221.89151   -2.6869645    204420.41   -25781.528     1610.549   -27392.077    491.70017     11810.41    95.641558    14.846403    27.967794 
 5192400    229.55185     13.40203    204420.41   -25786.192    1666.1498   -27452.342    517.23306    11809.966    95.641697    14.845854     27.96549 
 5192600    224.13787    15.080812    204420.41   -25812.956    1626.8537   -27439.809    544.60203    11807.455    95.641026    14.844831     27.95676 
 5192800    226.56907   -5.2532764    204420.41   -25768.654       1644.5   -27413.154     477.4908    11802.296    95.641329    14.843245    27.960332 
 5193000    224.07848   -30.844766    204420.41   -25837.329    1626.4227   -27463.752    388.90268    11809.476    95.641396     14.84078    27.956917 
 5193200    228.11826    79.446996    204420.41    -25773.72    1655.7445   -27429.464    753.75112    11808.073    95.641714    14.840025    27.961959 
 5193400    231.32685   -70.760245    204420.41   -25762.711    1679.0333   -27441.745    220.25269     11808.31    95.643148    14.839899    27.951556 
 5193600    236.57497    117.45657    204420.41   -25757.883    1717.1256   -27475.009    896.29497    11799.682    95.644018    14.838541     27.95617 
 5193800    231.20893   -49.403659    204420.41   -25780.735    1678.1774   -27458.913    325.52821    11809.324    95.644259    14.838286    27.962429 
 5194000    220.57238    90.098392    204420.41   -25884.006    1600.9745    -27484.98    764.09784    11805.606    95.644411    14.838078    27.957777 
 5194200    223.93096   -3.8400089    204420.41   -25823.411    1625.3519   -27448.763     522.7914    11805.833    95.643684    14.837272    27.959874 
 5194400    225.99813    30.380107    204420.41   -25763.254     1640.356    -27403.61    572.50786    11801.772    95.643532    14.836735    27.958394 
 5194600    226.46078    35.197552    204420.41   -25734.662     1643.714   -27378.376    618.18277    11806.154    95.644463    14.835782    27.961097 
 5194800    223.89185    4.7994574    204420.41   -25761.318    1625.0681   -27386.387    474.83718    11810.049    95.645232    14.835544    27.964078 
 5195000     220.7738   -23.060154    204420.41   -25770.887    1602.4364   -27373.323    401.13946    11806.686    95.646486    14.835474    27.964466 
 5195200    227.70952   -53.856823    204420.41   -25766.713    1652.7777    -27419.49    280.66708    11806.429    95.647209    14.835819    27.970538 
 5195400    228.91799    61.424921    204420.41   -25779.047    1661.5491   -27440.596    670.00975    11804.487    95.648322    14.836091     27.97607 
 5195600    223.15833   -43.233843    204420.41   -25818.741     1619.744   -27438.485    324.38175    11810.722     95.65007    14.836964    27.966218 
 5195800    232.13933    165.74959    204420.41   -25713.488    1684.9305   -27398.419    1058.3533    11802.883    95.649238    14.837516    27.964045 
 5196000    231.63907   -94.283574    204420.41   -25787.127    1681.2995   -27468.426    146.28225    11810.202     95.65004    14.838664    27.961544 
 5196200     223.5395    160.11499    204420.41   -25791.821    1622.5106   -27414.331    1068.1979    11802.268    95.649658    14.838075     27.96323 
 5196400    229.60873   -115.90274    204420.41   -25780.055    1666.5627   -27446.618    73.180757     11811.79     95.64953    14.839758    27.964512 
 5196600    226.33939    152.70589    204420.41   -25764.117     1642.833    -27406.95    1022.8412    11802.475    95.649912    14.840385    27.963198 
 5196800     225.4475   -83.737165    204420.41   -25757.249    1636.3593   -27393.608    168.77103    11808.767    95.650821    14.840769    27.965824 
 5197000    236.04022   -2.5575744    204420.41   -25711.753    1713.2442   -27424.997     469.0628    11801.999    95.652215    14.840254    27.970477 
 5197200    230.90811   -92.964297    204420.41   -25794.837     1675.994   -27470.831    126.04615     11810.87    95.652879     14.84081    27.973716 
 5197400     227.4548    2.9661828    204420.41   -25794.747    1650.9289   -27445.675    517.71238    11807.836    95.653084     14.84089    27.973786 
 5197600    221.10087    14.511975    204420.41   -25827.563    1604.8103   -27432.373    552.91758    11803.201     95.65425    14.840398    27.968479 
 5197800    219.85453    -49.56786    204420.41   -25848.385    1595.7641   -27444.149    341.39137    11803.568    95.655036    14.840435    27.973295 
 5198000    230.58243    2.9243309    204420.41   -25727.302    1673.6301   -27400.932    493.96583     11806.31     95.65568     14.83974    27.967365 
 5198200     229.2511    7.4890963    204420.41   -25741.818    1663.9669   -27405.785    528.24029    11809.663    95.656411    14.840793    27.971402 
 5198400    223.83012    69.606829    204420.41    -25810.74      1624.62    -27435.36    710.70152    11800.007    95.656518    14.841259    27.975316 
 5198600    218.42576   -151.52378    204420.41   -25844.082    1585.3937   -27429.475   -74.667083    11804.653    95.656966    14.841743    27.975904 
 5198800    226.26989     99.08125    204420.41   -25776.952    1642.3285    -27419.28    809.63137    11799.178    95.657549    14.842453    27.978442 
 5199000    227.60954   -48.325064    204420.41   -25714.539     1652.052   -27366.591    299.55235    11815.523     95.65703    14.843237    27.978183 
 5199200    225.48504    164.29827    204420.41   -25777.976    1636.6319   -27414.607    1060.2532     11801.25    95.657431    14.843125    27.979271 
 5199400    225.39199   -107.06791    204420.41   -25757.245    1635.9564   -27393.201     109.0285    11808.608    95.658252    14.841099    27.976191 
 5199600    229.63551    142.15744    204420.41   -25743.126    1666.7571   -27409.884    959.16001    11799.638    95.658885     14.84163    27.986032 
 5199800    227.57234    -45.63191    204420.41   -25764.222     1651.782   -27416.004    358.52283     11811.26    95.659416    14.841432    27.984538 
 5200000    228.97009    59.769371    204420.41   -25713.204    1661.9273   -27375.131    696.27947    11809.191     95.65951    14.841564    27.981676 
Loop time of 5580.28 on 64 procs for 5200000 steps with 8482 atoms

Performance: 805.120 ns/day, 0.030 hours/ns, 931.852 timesteps/s
100.0% CPU use with 64 MPI tasks x no OpenMP threads

MPI task timing breakdown:
Section |  min time  |  avg time  |  max time  |%varavg| %total
---------------------------------------------------------------
Pair    | 0.4195     | 1935.7     | 4232       |3692.1 | 34.69
Neigh   | 4.674      | 228.57     | 501.92     |1143.4 |  4.10
Comm    | 110.58     | 1121.8     | 3589       |2987.6 | 20.10
Output  | 137.62     | 137.69     | 137.9      |   0.3 |  2.47
Modify  | 209.03     | 2100.9     | 5269.2     |4507.6 | 37.65
Other   |            | 55.62      |            |       |  1.00

Nlocal:    132.531 ave 259 max 0 min
Histogram: 16 0 1 9 6 0 2 14 4 12
Nghost:    810.281 ave 1151 max 520 min
Histogram: 14 8 7 3 2 4 1 10 10 5
Neighs:    0 ave 0 max 0 min
Histogram: 64 0 0 0 0 0 0 0 0 0
FullNghs:  13240.1 ave 28755 max 0 min
Histogram: 16 16 0 0 0 0 2 8 11 11

Total # of neighbors = 847368
Ave neighs/atom = 99.9019
Neighbor list builds = 558736
Dangerous builds = 0
write_data 		${DIR}/data.${NAME}_run
write_data 		run_10/data.${NAME}_run
write_data 		run_10/data.ibeam_cooling_10_run
Total wall time: 1:33:11
