
### Dimensions ###


### IMPORT ATOMS ###
read_data ../Box_Setup/data.Ibeam_240K
  orthogonal box = (0 0 0) to (189.989 26.9999 39.8504)
  16 by 2 by 2 MPI processor grid
  reading atoms ...
  8482 atoms
  reading velocities ...
  8482 velocities
group water type 2
2436 atoms in group water
group graphite type 1
6046 atoms in group graphite


# Define potential
#
pair_style          sw
pair_coeff * * MLC_e.sw C mW

# Add velocity/set timestep
#

fix		1 graphite setforce 0.0 0.0 0.0
velocity 	graphite set 0.0 0.0 0.0
velocity            water create ${START_TEMP} ${SEED} rot yes dist gaussian
velocity            water create 240 ${SEED} rot yes dist gaussian
velocity            water create 240 23100 rot yes dist gaussian
timestep            5.0

# Define output
#
compute 1 water msd
compute 2 water temp


thermo	            100
thermo_style custom step c_2 press vol etotal ke pe c_1[4] density

# Neighbor lists
#
neigh_modify        delay 0 every 1 check yes


# Set fixes
#
fix                 2 water momentum 10 linear 1 1 1 rescale
fix                 3 all nve
fix                 4 water temp/csvr ${START_TEMP} ${START_TEMP} 500.0 928347
fix                 4 water temp/csvr 240 ${START_TEMP} 500.0 928347
fix                 4 water temp/csvr 240 240 500.0 928347

# Run 0.05 ns equilibration
#
dump                1 all custom 100 ${DIR}/eq.${NAME}.dump id type x y z vx vy vz
dump                1 all custom 100 run_10/eq.${NAME}.dump id type x y z vx vy vz
dump                1 all custom 100 run_10/eq.ibeam_cooling_10.dump id type x y z vx vy vz
run                 10000
Neighbor list info ...
  update every 1 steps, delay 0 steps, check yes
  max neighbors/atom: 2000, page size: 100000
  master list distance cutoff = 6.67472
  ghost atom cutoff = 6.67472
  binsize = 3.33736, bins = 57 9 12
  1 neighbor lists, perpetual/occasional/extra = 1 0 0
  (1) pair sw, perpetual
      attributes: full, newton on
      pair build: full/bin/atomonly
      stencil: full/bin/3d
      bin: standard
Per MPI rank memory allocation (min/avg/max) = 3.381 | 4.313 | 4.753 Mbytes
Step c_2 Press Volume TotEng KinEng PotEng c_1[4] Density 
       0          240   -262.64038    204420.41   -23347.773    1741.9854   -25089.758            0   0.94632332 
     100    236.46312   -274.15717    204420.41   -23350.161    1716.3138   -25066.474    0.8206579   0.94632332 
     200    236.34543   -529.73538    204420.41   -23379.069    1715.4595   -25094.528    1.2797624   0.94632332 
     300    237.38685   -351.72166    204420.41   -23368.847    1723.0185   -25091.865     1.668183   0.94632332 
     400    232.56812   -344.65433    204420.41   -23362.301    1688.0428   -25050.343    2.0697505   0.94632332 
     500    239.54373    -269.5354    204420.41   -23317.369    1738.6737   -25056.043    2.3812661   0.94632332 
     600     238.5685   -135.28682    204420.41   -23244.236    1731.5952   -24975.832     2.790967   0.94632332 
     700    234.11495   -150.08912    204420.41    -23256.72    1699.2701    -24955.99    3.2357924   0.94632332 
     800    237.64539   -309.06039    204420.41   -23234.111     1724.895   -24959.006    3.6877218   0.94632332 
     900    243.04361   -359.08398    204420.41   -23256.404    1764.0767    -25020.48    4.1578647   0.94632332 
    1000    239.53579   -107.25857    204420.41   -23287.296     1738.616   -25025.912    4.5371936   0.94632332 
    1100    241.23163   -354.77037    204420.41   -23272.675    1750.9249     -25023.6    4.8699466   0.94632332 
    1200    241.01218    -438.0601    204420.41   -23276.295    1749.3321   -25025.627    5.1280982   0.94632332 
    1300    244.41778   -326.28413    204420.41   -23215.769    1774.0509   -24989.819    5.6315003   0.94632332 
    1400    246.28445   -311.71408    204420.41    -23243.56    1787.5997    -25031.16    5.9303492   0.94632332 
    1500    238.46666   -158.86457    204420.41   -23264.155     1730.856   -24995.011    6.2651171   0.94632332 
    1600    238.32182   -178.64494    204420.41   -23245.114    1729.8047   -24974.919    6.6931457   0.94632332 
    1700    240.92532   -328.65656    204420.41    -23270.27    1748.7016   -25018.972     7.013947   0.94632332 
    1800    243.97146   -407.57774    204420.41   -23247.462    1770.8113   -25018.274    7.3738121   0.94632332 
    1900    246.34468   -372.63273    204420.41   -23202.028    1788.0368   -24990.064    7.9551066   0.94632332 
    2000    242.33917   -326.70797    204420.41     -23175.1    1758.9638   -24934.064    8.2522278   0.94632332 
    2100    237.19567   -311.79918    204420.41   -23277.244    1721.6308   -24998.875    8.6162311   0.94632332 
    2200    241.39603   -477.43377    204420.41   -23239.443    1752.1182   -24991.561    8.9757502   0.94632332 
    2300    242.05922   -230.08429    204420.41   -23211.351    1756.9318   -24968.283    9.4427991   0.94632332 
    2400    244.15463   -264.29871    204420.41   -23229.308    1772.1408   -25001.448    9.7959278   0.94632332 
    2500    237.64645   -312.00719    204420.41   -23267.414    1724.9027   -24992.317    10.057449   0.94632332 
    2600    236.57505    -273.7555    204420.41   -23274.213    1717.1262   -24991.339    10.401489   0.94632332 
    2700    239.02709   -401.63089    204420.41   -23264.692    1734.9238   -24999.616    10.439816   0.94632332 
    2800    243.48905   -342.55399    204420.41   -23210.205    1767.3099   -24977.515    10.787166   0.94632332 
    2900    241.25485   -348.59853    204420.41   -23205.169    1751.0934   -24956.263    11.077288   0.94632332 
    3000      239.945    -185.9009    204420.41   -23207.899    1741.5862   -24949.485    11.416058   0.94632332 
    3100    236.89261   -369.62229    204420.41   -23204.913    1719.4311   -24924.344    11.695575   0.94632332 
    3200    242.74058   -218.07585    204420.41   -23252.906    1761.8773   -25014.783    11.874443   0.94632332 
    3300    235.64796   -400.24972    204420.41    -23340.61    1710.3971   -25051.007    12.328343   0.94632332 
    3400     241.3542   -416.00245    204420.41   -23292.489    1751.8146   -25044.303    12.745643   0.94632332 
    3500    239.01684   -547.70251    204420.41   -23286.702    1734.8493   -25021.551    13.255716   0.94632332 
    3600    236.06167   -265.93686    204420.41   -23276.924    1713.3999   -24990.324    13.962894   0.94632332 
    3700    242.82452   -258.32818    204420.41    -23253.76    1762.4865   -25016.247    14.475766   0.94632332 
    3800    237.95998   -280.37077    204420.41   -23243.472    1727.1784    -24970.65    14.987775   0.94632332 
    3900    240.53066   -536.38373    204420.41   -23233.931    1745.8371   -24979.768    15.450257   0.94632332 
    4000     240.4278   -448.05647    204420.41   -23270.128    1745.0905   -25015.219    15.850676   0.94632332 
    4100    241.35883   -274.59383    204420.41   -23266.718    1751.8482   -25018.567    16.247987   0.94632332 
    4200    244.43811    -302.7144    204420.41    -23258.45    1774.1984   -25032.649    16.646951   0.94632332 
    4300    238.91375   -372.64555    204420.41   -23332.202    1734.1011   -25066.303    17.187178   0.94632332 
    4400    235.51597   -149.13494    204420.41   -23284.535    1709.4391   -24993.974    17.710389   0.94632332 
    4500    239.20062   -386.63856    204420.41   -23305.708    1736.1833   -25041.891    18.226435   0.94632332 
    4600    235.26128   -45.838189    204420.41   -23354.735    1707.5905   -25062.326    18.776054   0.94632332 
    4700     238.8771   -313.96045    204420.41   -23277.421    1733.8351   -25011.256    19.347925   0.94632332 
    4800    240.33362   -343.27025    204420.41   -23244.463    1744.4069    -24988.87    20.082493   0.94632332 
    4900    242.53977   -438.74443    204420.41   -23198.029    1760.4197   -24958.448    20.664088   0.94632332 
    5000    240.61925   -582.89252    204420.41   -23246.329    1746.4801   -24992.809    21.381786   0.94632332 
    5100    246.11656   -487.59826    204420.41   -23196.963    1786.3811   -24983.344    21.731313   0.94632332 
    5200    234.30067   -301.54549    204420.41   -23231.939    1700.6181   -24932.557    22.132954   0.94632332 
    5300    238.11069   -317.81248    204420.41   -23283.685    1728.2723   -25011.957    22.774652   0.94632332 
    5400    240.20326   -306.38777    204420.41   -23259.184    1743.4607   -25002.645    23.423432   0.94632332 
    5500    241.99425   -233.52251    204420.41    -23268.87    1756.4602   -25025.331    23.964848   0.94632332 
    5600    238.66521   -361.10775    204420.41   -23291.575    1732.2971   -25023.872    24.491193   0.94632332 
    5700    239.84162   -300.73889    204420.41   -23274.682    1740.8359   -25015.518    24.733048   0.94632332 
    5800     243.2363   -465.54123    204420.41   -23260.007    1765.4754   -25025.482    25.083066   0.94632332 
    5900    235.92643   -289.02634    204420.41   -23281.476    1712.4183   -24993.894    25.385647   0.94632332 
    6000    239.50384   -242.67444    204420.41   -23296.259    1738.3841   -25034.644    25.856233   0.94632332 
    6100    239.37464    -167.8742    204420.41   -23331.093    1737.4464   -25068.539    26.333665   0.94632332 
    6200    235.43098   -298.54977    204420.41   -23339.242    1708.8222   -25048.064    26.929772   0.94632332 
    6300      239.118   -145.74358    204420.41   -23267.378    1735.5836   -25002.961    27.655065   0.94632332 
    6400     237.2138   -312.15526    204420.41   -23310.159    1721.7624   -25031.922    28.194033   0.94632332 
    6500    237.25591   -264.99198    204420.41   -23315.965    1722.0681   -25038.033    28.691476   0.94632332 
    6600     240.0508   -474.66255    204420.41   -23321.634    1742.3541   -25063.988    29.448218   0.94632332 
    6700    243.17669   -257.67499    204420.41   -23359.432    1765.0427   -25124.475    29.604264   0.94632332 
    6800    237.08427   -297.85911    204420.41   -23347.474    1720.8223   -25068.296     30.33616   0.94632332 
    6900    239.49304   -430.27947    204420.41   -23299.286    1738.3058   -25037.592     30.84129   0.94632332 
    7000    233.09883   -267.88369    204420.41   -23294.403    1691.8948   -24986.298    31.293679   0.94632332 
    7100    240.03433   -426.49769    204420.41   -23297.855    1742.2345    -25040.09    31.778916   0.94632332 
    7200    237.64344   -207.33011    204420.41   -23349.868    1724.8808   -25074.749    32.262527   0.94632332 
    7300    231.78547   -258.91659    204420.41   -23369.254    1682.3621   -25051.616    32.918551   0.94632332 
    7400    236.12884   -324.75041    204420.41   -23319.376    1713.8875   -25033.264    33.308388   0.94632332 
    7500    238.25539   -464.06222    204420.41   -23283.477    1729.3226     -25012.8    33.462244   0.94632332 
    7600     236.6239   -216.24268    204420.41   -23231.229    1717.4807    -24948.71    33.956739   0.94632332 
    7700    237.45293   -263.77083    204420.41   -23250.863    1723.4981   -24974.362    34.549059   0.94632332 
    7800    233.41082   -355.44485    204420.41   -23307.544    1694.1594   -25001.703    34.542644   0.94632332 
    7900    240.90208   -363.36623    204420.41    -23284.85    1748.5329   -25033.383    34.983094   0.94632332 
    8000    242.85602   -271.98919    204420.41   -23230.503    1762.7152   -24993.218    35.475227   0.94632332 
    8100    244.05218   -268.10117    204420.41   -23226.565    1771.3972   -24997.962    35.748803   0.94632332 
    8200    243.52238   -358.93195    204420.41   -23252.052    1767.5518   -25019.603    35.718552   0.94632332 
    8300    245.12985   -355.63205    204420.41   -23228.762    1779.2192   -25007.982     36.30222   0.94632332 
    8400    241.35503     -434.185    204420.41   -23218.889    1751.8206   -24970.709    36.914431   0.94632332 
    8500    239.53744   -482.60877    204420.41   -23261.775     1738.628   -25000.403    37.247761   0.94632332 
    8600     247.4642   -510.63822    204420.41    -23272.85    1796.1626   -25069.012    37.926713   0.94632332 
    8700    242.43285   -308.66354    204420.41    -23305.12    1759.6437   -25064.763    38.207881   0.94632332 
    8800    239.77199   -152.64868    204420.41   -23310.168    1740.3305   -25050.498    38.586845   0.94632332 
    8900    243.34085   -248.65094    204420.41   -23346.595    1766.2342   -25112.829    39.020792   0.94632332 
    9000     239.9836   -308.51303    204420.41   -23314.196    1741.8663   -25056.063    39.447211   0.94632332 
    9100    236.58824   -303.65067    204420.41    -23344.98    1717.2219   -25062.202    40.244854   0.94632332 
    9200    242.04325   -284.48618    204420.41   -23309.797    1756.8158   -25066.613    40.686845   0.94632332 
    9300    240.07081   -505.91585    204420.41   -23379.783    1742.4993   -25122.282    40.947747   0.94632332 
    9400    237.61278   -277.73305    204420.41    -23348.03    1724.6583   -25072.688    41.251211   0.94632332 
    9500    240.45787   -268.13545    204420.41   -23376.939    1745.3087   -25122.247    41.867506   0.94632332 
    9600    236.93996   -341.56622    204420.41   -23382.995    1719.7748    -25102.77    42.145313   0.94632332 
    9700    235.73845   -254.28715    204420.41     -23335.2    1711.0539   -25046.254    42.723089   0.94632332 
    9800    241.36445   -165.52985    204420.41   -23266.647    1751.8889   -25018.536    43.331334   0.94632332 
    9900    241.38722    -212.8782    204420.41   -23299.163    1752.0542   -25051.217    43.977547   0.94632332 
   10000    238.84043   -238.09068    204420.41   -23301.961    1733.5689    -25035.53    44.542622   0.94632332 
Loop time of 10.6769 on 64 procs for 10000 steps with 8482 atoms

Performance: 404.611 ns/day, 0.059 hours/ns, 936.600 timesteps/s
100.0% CPU use with 64 MPI tasks x no OpenMP threads

MPI task timing breakdown:
Section |  min time  |  avg time  |  max time  |%varavg| %total
---------------------------------------------------------------
Pair    | 0.00080428 | 3.8641     | 8.6779     | 169.4 | 36.19
Neigh   | 0.0050234  | 0.23707    | 0.52401    |  36.7 |  2.22
Comm    | 0.1911     | 1.8991     | 6.9177     | 123.9 | 17.79
Output  | 0.16247    | 0.16253    | 0.16321    |   0.0 |  1.52
Modify  | 0.35601    | 4.4044     | 10.214     | 196.6 | 41.25
Other   |            | 0.1097     |            |       |  1.03

Nlocal:    132.531 ave 264 max 0 min
Histogram: 16 0 4 3 9 0 2 14 6 10
Nghost:    808.875 ave 1143 max 520 min
Histogram: 14 10 7 1 2 3 3 0 16 8
Neighs:    0 ave 0 max 0 min
Histogram: 64 0 0 0 0 0 0 0 0 0
FullNghs:  13295.1 ave 29222 max 0 min
Histogram: 17 15 0 0 0 0 2 13 7 10

Total # of neighbors = 850888
Ave neighs/atom = 100.317
Neighbor list builds = 579
Dangerous builds = 0
write_data 	    ${DIR}/data.${NAME}_eq
write_data 	    run_10/data.${NAME}_eq
write_data 	    run_10/data.ibeam_cooling_10_eq

undump              1
unfix               4



################################################
#######         Run Simulation         #########
################################################

reset_timestep      0
timestep	    10.0
log                 ${DIR}/log.run_${NAME}
log                 run_10/log.run_${NAME}
log                 run_10/log.run_ibeam_cooling_10
