
### Dimensions ###
variable Z_G equal 10.062000000000001
variable Z_W equal 23.803019087

variable	XDIM string 78.752
variable 	YDIM string 80.86108639999017


### IMPORT ATOMS ###
read_data ../Box_Setup/data.Ibeam_240K
Reading data file ...
  orthogonal box = (0.0000000 0.0000000 0.0000000) to (78.752000 80.861086 33.944269)
  8 by 8 by 2 MPI processor grid
  reading atoms ...
  9422 atoms
  reading velocities ...
  9422 velocities
  read_data CPU = 0.022 seconds
group water type 2
2126 atoms in group water
group graphite type 1
7296 atoms in group graphite


# Define potential
#
pair_style          sw
pair_coeff * * MLC_e.sw C mW

# Add velocity/set timestep
#

fix		1 graphite setforce 0.0 0.0 0.0
velocity 	graphite set 0.0 0.0 0.0
velocity            water create ${START_TEMP} ${SEED} rot yes dist gaussian
velocity            water create 235 ${SEED} rot yes dist gaussian
velocity            water create 235 31405 rot yes dist gaussian
timestep            5.0

# Define output
#
compute 1 water msd
compute 2 water temp


thermo	            100
thermo_style custom step c_2 press vol etotal ke pe c_1[4] density

# Neighbor lists
#
neigh_modify        delay 0 every 1 check yes


# Set fixes
#
fix                 2 water momentum 10 linear 1 1 1 rescale
fix                 3 all nve
fix                 4 water temp/csvr ${START_TEMP} ${START_TEMP} 500.0 928347
fix                 4 water temp/csvr 235 ${START_TEMP} 500.0 928347
fix                 4 water temp/csvr 235 235 500.0 928347

# Run 0.05 ns equilibration
#
dump                1 all custom 100 ${DIR}/eq.${NAME}.dump id type x y z vx vy vz
dump                1 all custom 100 run_3/eq.${NAME}.dump id type x y z vx vy vz
dump                1 all custom 100 run_3/eq.ibeam_cooling_3.dump id type x y z vx vy vz
run                 10000
Neighbor list info ...
  update every 1 steps, delay 0 steps, check yes
  max neighbors/atom: 2000, page size: 100000
  master list distance cutoff = 6.6747184
  ghost atom cutoff = 6.6747184
  binsize = 3.3373592, bins = 24 25 11
  1 neighbor lists, perpetual/occasional/extra = 1 0 0
  (1) pair sw, perpetual
      attributes: full, newton on
      pair build: full/bin/atomonly
      stencil: full/bin/3d
      bin: standard
Per MPI rank memory allocation (min/avg/max) = 3.605 | 4.456 | 4.732 Mbytes
Step c_2 Press Volume TotEng KinEng PotEng c_1[4] Density 
       0          235   -349.74665    216156.16   -20108.674     1488.542   -21597.216            0   0.96737059 
     100    238.02691    -321.3588    216156.16   -20129.084    1507.7151   -21636.799   0.88010417   0.96737059 
     200    229.13248   -488.58401    216156.16   -20167.404    1451.3759    -21618.78    1.3296434   0.96737059 
     300    233.55952   -306.75945    216156.16   -20175.161    1479.4177   -21654.579    1.7647267   0.96737059 
     400    241.50764   -342.17988    216156.16   -20185.836    1529.7629   -21715.599     2.221299   0.96737059 
     500    234.39931   -300.77927    216156.16    -20168.72    1484.7371   -21653.457    2.6564451   0.96737059 
     600     239.6774   -391.42125    216156.16   -20121.758    1518.1697   -21639.927    2.8925617   0.96737059 
     700    237.53968   -383.72389    216156.16    -20138.28    1504.6289   -21642.909    3.1125417   0.96737059 
     800    242.89991   -332.09628    216156.16   -20137.948    1538.5818    -21676.53    3.3332436   0.96737059 
     900    234.99329   -322.05905    216156.16   -20176.919    1488.4995   -21665.418    3.7666782   0.96737059 
    1000    235.11144   -390.28655    216156.16   -20239.252    1489.2479     -21728.5    4.0034921   0.96737059 
    1100    232.44089   -352.31652    216156.16   -20210.488     1472.332    -21682.82    4.3211548   0.96737059 
    1200     230.7355   -320.88626    216156.16   -20217.275    1461.5297   -21678.805     4.571664   0.96737059 
    1300    237.31171   -444.09964    216156.16   -20165.711    1503.1849   -21668.896    4.8973631   0.96737059 
    1400    234.68473   -409.39492    216156.16   -20191.012     1486.545   -21677.557    5.1155884   0.96737059 
    1500    228.56259   -364.75044    216156.16   -20211.046     1447.766   -21658.812    5.4725042   0.96737059 
    1600    235.11915    -453.2186    216156.16   -20188.835    1489.2967   -21678.132    5.8448855   0.96737059 
    1700    240.00654   -258.50449    216156.16   -20202.128    1520.2545   -21722.382    6.1343691   0.96737059 
    1800    238.88515   -379.01037    216156.16   -20192.613    1513.1514   -21705.764    6.5149269   0.96737059 
    1900    235.77037   -406.84089    216156.16   -20147.364    1493.4217   -21640.785     6.794061   0.96737059 
    2000     243.2535     -389.075    216156.16   -20127.524    1540.8215   -21668.345    7.0479831   0.96737059 
    2100    230.95887   -330.52563    216156.16   -20216.309    1462.9446   -21679.253    7.3408507   0.96737059 
    2200    241.14277   -256.54195    216156.16   -20198.137    1527.4517   -21725.589    7.7204353   0.96737059 
    2300    231.61314   -267.91425    216156.16   -20179.872    1467.0889   -21646.961    8.0943193   0.96737059 
    2400      240.806   -367.40241    216156.16   -20184.006    1525.3185   -21709.325    8.3086227   0.96737059 
    2500    235.13338   -351.39592    216156.16   -20194.416    1489.3869   -21683.803    8.7614412   0.96737059 
    2600    235.47343   -276.81389    216156.16   -20200.766    1491.5408   -21692.307    9.1046801   0.96737059 
    2700    240.70855   -337.62574    216156.16   -20175.018    1524.7012   -21699.719     9.220315   0.96737059 
    2800    239.97657   -440.81077    216156.16    -20117.27    1520.0647   -21637.334     9.589062   0.96737059 
    2900    239.39984   -391.62895    216156.16   -20127.864    1516.4116   -21644.275    9.8677534   0.96737059 
    3000    233.77089   -509.19531    216156.16   -20121.768    1480.7566   -21602.525    10.087326   0.96737059 
    3100    236.15845   -488.83603    216156.16   -20121.515    1495.8799   -21617.394    10.440316   0.96737059 
    3200    238.79017   -485.55432    216156.16   -20180.836    1512.5498   -21693.386    10.926663   0.96737059 
    3300    228.35309   -293.82391    216156.16   -20249.812     1446.439   -21696.251    11.368179   0.96737059 
    3400    235.46203   -216.38894    216156.16   -20197.686    1491.4686   -21689.155    11.557773   0.96737059 
    3500    238.69315   -388.61631    216156.16   -20216.148    1511.9352   -21728.083    11.916681   0.96737059 
    3600    229.51997   -605.02976    216156.16   -20217.014    1453.8303   -21670.844    12.322938   0.96737059 
    3700    239.08131   -207.64899    216156.16   -20185.205    1514.3939   -21699.599     12.33166   0.96737059 
    3800    233.82555   -301.22735    216156.16   -20187.049    1481.1028   -21668.152    12.489285   0.96737059 
    3900    237.11436   -456.02575    216156.16   -20203.024    1501.9349   -21704.958    12.721757   0.96737059 
    4000    233.93227    -425.0918    216156.16   -20230.437    1481.7788   -21712.216    13.093764   0.96737059 
    4100    238.05868   -232.44491    216156.16    -20220.49    1507.9164   -21728.406    13.032341   0.96737059 
    4200    230.31941   -383.93574    216156.16   -20206.558    1458.8941   -21665.453     13.30754   0.96737059 
    4300     228.4262   -338.59513    216156.16   -20252.164    1446.9021   -21699.066    13.652302   0.96737059 
    4400    232.13015   -235.55547    216156.16   -20206.593    1470.3638   -21676.957     13.90838   0.96737059 
    4500    232.21823    -360.2141    216156.16   -20253.345    1470.9217   -21724.267    14.556936   0.96737059 
    4600    233.57789   -394.20376    216156.16   -20276.915    1479.5341   -21756.449     15.07872   0.96737059 
    4700    233.81241   -488.69296    216156.16   -20209.486    1481.0195   -21690.506    15.235115   0.96737059 
    4800    240.64756    -160.9275    216156.16   -20176.467    1524.3149   -21700.782    15.544629   0.96737059 
    4900    241.42807    -208.0174    216156.16   -20137.822    1529.2588   -21667.081    15.801881   0.96737059 
    5000     239.3811   -450.80799    216156.16   -20195.507    1516.2929     -21711.8    16.207406   0.96737059 
    5100    237.55709   -378.27287    216156.16   -20173.358    1504.7392   -21678.097     16.85442   0.96737059 
    5200    234.38386   -272.87031    216156.16   -20201.588    1484.6392   -21686.227    17.223041   0.96737059 
    5300    236.89374   -410.24079    216156.16    -20253.27    1500.5374   -21753.807    17.403253   0.96737059 
    5400    232.56337   -432.62765    216156.16   -20240.792    1473.1079     -21713.9     17.46373   0.96737059 
    5500    233.74526   -287.63925    216156.16   -20238.463    1480.5942   -21719.057    17.628695   0.96737059 
    5600    236.16041   -298.20532    216156.16   -20262.817    1495.8923    -21758.71     17.76568   0.96737059 
    5700    224.12155   -548.23714    216156.16   -20244.963    1419.6355   -21664.599    17.966077   0.96737059 
    5800    232.84539   -278.08019    216156.16   -20218.726    1474.8943    -21693.62    18.047758   0.96737059 
    5900    231.91082    -424.1961    216156.16   -20246.329    1468.9745   -21715.304    18.226257   0.96737059 
    6000    232.20207    -456.6861    216156.16    -20249.44    1470.8193   -21720.259    18.201737   0.96737059 
    6100    231.96776   -339.47559    216156.16   -20272.179    1469.3351   -21741.514      18.6854   0.96737059 
    6200    234.58327   -321.71274    216156.16   -20270.541    1485.9023   -21756.443    19.026111   0.96737059 
    6300    235.44493   -394.25786    216156.16   -20215.984    1491.3603   -21707.344    19.464439   0.96737059 
    6400    232.03656   -295.61106    216156.16   -20259.938    1469.7709   -21729.709    19.649395   0.96737059 
    6500    232.72076   -508.28857    216156.16   -20269.391    1474.1048   -21743.496     20.11376   0.96737059 
    6600    229.88265   -524.54429    216156.16   -20280.153    1456.1276    -21736.28    20.178221   0.96737059 
    6700    234.57043   -480.48412    216156.16   -20317.082     1485.821   -21802.903    20.337242   0.96737059 
    6800    229.36775   -256.08137    216156.16   -20308.646    1452.8661   -21761.513    20.333093   0.96737059 
    6900    237.76617   -463.61169    216156.16   -20256.424    1506.0636   -21762.488    20.225318   0.96737059 
    7000    232.20567   -407.55886    216156.16   -20252.374    1470.8421   -21723.217     20.59007   0.96737059 
    7100    233.40407   -297.52749    216156.16   -20267.915     1478.433   -21746.348    20.782569   0.96737059 
    7200    229.68171   -365.16094    216156.16   -20322.657    1454.8548   -21777.512    20.849025   0.96737059 
    7300    226.74864   -275.10452    216156.16   -20352.587    1436.2761   -21788.864    21.059093   0.96737059 
    7400    234.08144   -320.34344    216156.16   -20315.279    1482.7237   -21798.003    21.422283   0.96737059 
    7500    234.46527   -244.07914    216156.16   -20280.025    1485.1549    -21765.18    21.660854   0.96737059 
    7600    233.33454   -449.79936    216156.16   -20232.008    1477.9926   -21710.001    22.138564   0.96737059 
    7700    235.76513    -467.5095    216156.16    -20269.72    1493.3885   -21763.109    22.393773   0.96737059 
    7800    238.16877   -272.41126    216156.16   -20322.808    1508.6137   -21831.422    22.435431   0.96737059 
    7900    235.04277   -269.36257    216156.16    -20299.88    1488.8129   -21788.693    22.675354   0.96737059 
    8000    234.85819   -191.37862    216156.16   -20253.751    1487.6437   -21741.394    22.958936   0.96737059 
    8100    234.61677    -393.2402    216156.16   -20235.168    1486.1146   -21721.283    23.082807   0.96737059 
    8200     233.6674    -426.7998    216156.16   -20250.105     1480.101   -21730.207    23.236192   0.96737059 
    8300    236.32822    -301.5334    216156.16   -20217.098    1496.9552   -21714.053    23.575917   0.96737059 
    8400    236.14769   -410.96593    216156.16   -20196.212    1495.8118   -21692.023    23.632043   0.96737059 
    8500    231.70412   -426.88814    216156.16   -20248.437    1467.6652   -21716.102     23.84629   0.96737059 
    8600    235.84903   -412.38401    216156.16   -20259.673      1493.92   -21753.593    23.934806   0.96737059 
    8700      235.389   -470.07429    216156.16   -20278.291     1491.006   -21769.297    24.362508   0.96737059 
    8800    231.59277   -506.80545    216156.16    -20268.75    1466.9599    -21735.71    24.806237   0.96737059 
    8900    232.63278   -307.97525    216156.16   -20273.173    1473.5475   -21746.721    25.167023   0.96737059 
    9000     232.3074   -314.66434    216156.16   -20246.249    1471.4865   -21717.735    25.655116   0.96737059 
    9100    233.26713   -338.12588    216156.16   -20261.437    1477.5656   -21739.002    26.209781   0.96737059 
    9200    234.49973   -344.38512    216156.16   -20211.771    1485.3732   -21697.144     26.46242   0.96737059 
    9300    233.28339   -551.70664    216156.16   -20264.777    1477.6686   -21742.445      26.6651   0.96737059 
    9400    231.88171   -152.88613    216156.16    -20244.03    1468.7901    -21712.82    26.930275   0.96737059 
    9500    233.91486   -262.90777    216156.16   -20271.915    1481.6685   -21753.583    27.266341   0.96737059 
    9600    233.56836   -409.83742    216156.16   -20275.287    1479.4737   -21754.761    27.755326   0.96737059 
    9700     237.1794   -373.52313    216156.16    -20224.49    1502.3468   -21726.837    27.987403   0.96737059 
    9800    228.06377   -345.56431    216156.16   -20193.356    1444.6064   -21637.962    28.071253   0.96737059 
    9900    236.52832   -286.62298    216156.16   -20212.056    1498.2227   -21710.278     27.92323   0.96737059 
   10000    231.80834   -530.42933    216156.16   -20215.171    1468.3253   -21683.496    28.059408   0.96737059 
Loop time of 6.4553 on 128 procs for 10000 steps with 9422 atoms

Performance: 669.218 ns/day, 0.036 hours/ns, 1549.115 timesteps/s
96.5% CPU use with 128 MPI tasks x no OpenMP threads

MPI task timing breakdown:
Section |  min time  |  avg time  |  max time  |%varavg| %total
---------------------------------------------------------------
Pair    | 0.00066042 | 1.9526     | 4.8652     | 124.5 | 30.25
Neigh   | 0.0029824  | 0.1381     | 0.31596    |  29.0 |  2.14
Comm    | 0.16675    | 1.7052     | 4.948      |  89.1 | 26.42
Output  | 0.15717    | 0.15724    | 0.15814    |   0.0 |  2.44
Modify  | 0.23311    | 2.4238     | 6.0534     | 142.2 | 37.55
Other   |            | 0.07837    |            |       |  1.21

Nlocal:        73.6094 ave         152 max           0 min
Histogram: 34 2 10 15 3 0 6 24 22 12
Nghost:        619.914 ave         872 max         417 min
Histogram: 19 13 19 11 15 6 12 6 13 14
Neighs:         0.00000 ave           0 max           0 min
Histogram: 128 0 0 0 0 0 0 0 0 0
FullNghs:      7491.97 ave       16968 max           0 min
Histogram: 43 21 0 0 0 0 5 24 22 13

Total # of neighbors = 958972
Ave neighs/atom = 101.78009
Neighbor list builds = 570
Dangerous builds = 0
write_data 	    ${DIR}/data.${NAME}_eq
write_data 	    run_3/data.${NAME}_eq
write_data 	    run_3/data.ibeam_cooling_3_eq
System init for write_data ...

undump              1
unfix               4



################################################
#######         Run Simulation         #########
################################################

reset_timestep      0
timestep	    10.0
log                 ${DIR}/log.run_${NAME}
log                 run_3/log.run_${NAME}
log                 run_3/log.run_ibeam_cooling_3
