
# Set production fixes - Nose/Hoover
#
fix                 4 water temp/csvr ${START_TEMP} ${END_TEMP} 500.0 928347
fix                 4 water temp/csvr 235 ${END_TEMP} 500.0 928347
fix                 4 water temp/csvr 235 225 500.0 928347


## divide "droplet" into core and surface
#region		core_reg cylinder z 135 135 44.6 20 INF units box
#region		surface_reg cylinder z 135 135 44.6 20 INF units box side out
#group		core dynamic all region core_reg
#group		surface dynamic all region surface_reg

## compute pressure core
#compute        peratom_core core stress/atom NULL
#compute        p_core core reduce sum c_peratom_core[1] c_peratom_core[2] c_peratom_core[3]
#variable       press_core equal -(c_p_core[1]+c_p_core[2]+c_p_core[3])/(3*1249982.5)


## compute pressure surface
#compute        peratom_surf surface stress/atom NULL
#compute        p_surf surface reduce sum c_peratom_surf[1] c_peratom_surf[2] #c_peratom_surf[3]
#variable       press_surf equal -(c_p_surf[1]+c_p_surf[2]+c_p_surf[3])/(3*42395)

## compute total pressure of drop
compute        peratom water stress/atom NULL
compute        p water reduce sum c_peratom[1] c_peratom[2] c_peratom[3]
variable       press equal -(c_p[1]+c_p[2]+c_p[3])/(3*50402)


# compute order parameter
compute        3 all orientorder/atom nnn NULL cutoff 3.5

# compute center of mass of bridge
compute 	4 water com

# Run simulation
thermo_style        custom step c_2 press vol etotal ke pe v_press c_1[4] c_4[*]
thermo              200
dump		     1 water custom 400 ${DIR}/prod.${NAME}.dump id type x y z vx vy vz c_3[*] c_peratom[*]
dump		     1 water custom 400 run_3/prod.${NAME}.dump id type x y z vx vy vz c_3[*] c_peratom[*]
dump		     1 water custom 400 run_3/prod.ibeam_cooling_3.dump id type x y z vx vy vz c_3[*] c_peratom[*]
run                 ${STEPS}
run                 4000000
Neighbor list info ...
  update every 1 steps, delay 0 steps, check yes
  max neighbors/atom: 2000, page size: 100000
  master list distance cutoff = 6.6747184
  ghost atom cutoff = 6.6747184
  binsize = 3.3373592, bins = 24 25 11
  2 neighbor lists, perpetual/occasional/extra = 1 1 0
  (1) pair sw, perpetual
      attributes: full, newton on
      pair build: full/bin/atomonly
      stencil: full/bin/3d
      bin: standard
  (2) compute orientorder/atom, occasional, copy from (1)
      attributes: full, newton on
      pair build: copy
      stencil: none
      bin: none
Per MPI rank memory allocation (min/avg/max) = 6.132 | 6.744 | 7.258 Mbytes
Step c_2 Press Volume TotEng KinEng PotEng v_press c_1[4] c_4[1] c_4[2] c_4[3] 
       0    231.80834   -530.42933    216156.16   -20215.171    1468.3253   -21683.496    -1607.295    28.059408    39.425721    39.233205    23.727417 
     200    226.41569   -361.19718    216156.16   -20241.439    1434.1671   -21675.606   -884.27588    28.611841    39.427296     39.23309     23.71945 
     400    234.70311   -298.17888    216156.16   -20213.567    1486.6614   -21700.229   -650.20497    29.243053    39.427299    39.236459    23.711004 
     600    237.81981   -345.49218    216156.16   -20121.252    1506.4033   -21627.655   -771.96599    30.246791    39.429766    39.239397    23.679859 
     800    236.22895   -472.47287    216156.16   -20134.004    1496.3264    -21630.33   -1382.3884    31.491126    39.431895    39.242831    23.674908 
    1000    230.95729   -219.93561    216156.16   -20207.406    1462.9346    -21670.34   -326.53748    32.608042    39.434072     39.24395    23.664939 
    1200    234.29415   -281.56062    216156.16   -20177.644     1484.071   -21661.716   -569.27227    33.733521     39.43369    39.243052    23.641901 
    1400    235.14777   -509.85853    216156.16   -20151.823     1489.478   -21641.301   -1544.5199     34.75534    39.431903    39.241694    23.634787 
    1600    240.79421   -345.01169    216156.16   -20182.909    1525.2438   -21708.153   -818.40345    35.672407     39.43163    39.242568    23.624176 
    1800    237.11813   -626.48685    216156.16   -20179.726    1501.9587   -21681.685   -2030.0152    36.374269    39.430919    39.245066    23.607309 
    2000    236.33582   -317.09412    216156.16   -20118.125    1497.0034   -21615.128   -705.67656    38.154126    39.429616    39.246232     23.59666 
    2200     233.2661   -166.50726    216156.16   -20181.055    1477.5591   -21658.614   -51.937649    38.634578    39.430025    39.250488     23.58402 
    2400     237.4172   -280.97877    216156.16    -20191.89    1503.8531   -21695.743   -532.24753    39.633739    39.430339    39.251193    23.563683 
    2600    238.91579   -445.68153    216156.16   -20237.402    1513.3455   -21750.748   -1211.7601    40.579349      39.4325    39.251674     23.56026 
    2800    247.03537   -199.61047    216156.16   -20129.047    1564.7767   -21693.824   -163.07455     41.31547    39.431706    39.253264    23.567083 
    3000    244.35525   -366.98894    216156.16   -20147.184    1547.8002   -21694.984   -878.64357      42.4645    39.431132    39.255197     23.57359 
    3200    230.34114   -484.47321    216156.16   -20226.783    1459.0318   -21685.814   -1376.5292    43.550815     39.43186     39.25618    23.586584 
    3400    232.31907   -428.26467    216156.16   -20230.613    1471.5604   -21702.173   -1165.0606    43.961792     39.43261    39.258266    23.575163 
    3600    232.69585   -434.63525    216156.16   -20212.242     1473.947   -21686.189   -1188.6734    45.128315    39.430137     39.25756    23.574986 
    3800    239.65604   -468.48499    216156.16   -20187.021    1518.0344   -21705.056   -1345.5068    46.292588    39.428031     39.25577    23.586282 
    4000    238.06471   -271.48426    216156.16    -20201.46    1507.9546   -21709.414   -480.30016    46.268338    39.429887     39.25401    23.598951 
    4200    237.35078   -394.70962    216156.16   -20171.224    1503.4324   -21674.657   -1045.3182    47.698456    39.431938    39.255336     23.59422 
    4400    234.83407   -218.30158    216156.16   -20177.147     1487.491   -21664.638   -266.38924    48.143432    39.432372    39.256497     23.59287 
    4600     232.6799   -458.59715    216156.16   -20250.152     1473.846   -21723.998   -1294.0664    49.529089    39.433793    39.257987    23.593046 
    4800    235.07132    -460.2864    216156.16    -20093.72    1488.9938   -21582.714   -1265.4311    50.489327    39.435494    39.258572    23.581094 
    5000    231.96247   -396.81016    216156.16   -20134.217    1469.3016   -21603.519   -1056.7792    51.190583    39.435946    39.256285    23.588113 
    5200    234.37214   -278.31067    216156.16   -20132.121     1484.565   -21616.686   -581.06401      53.5242    39.438615     39.25626    23.601455 
    5400    233.37217   -329.71595    216156.16   -20191.922     1478.231   -21670.153     -676.748    54.788123    39.440956    39.257612    23.594982 
    5600     234.3503   -463.35801    216156.16    -20217.58    1484.4267   -21702.007    -1310.796    55.767948    39.442198    39.259756    23.589441 
    5800    242.63459   -324.74693    216156.16   -20193.152    1536.9012   -21730.053   -713.07381     56.60577    39.442241    39.258756    23.579351 
    6000    231.50401   -225.54859    216156.16   -20212.216    1466.3977   -21678.614   -292.11578    57.636205    39.441731    39.255696    23.578148 
    6200    231.34675   -381.02298    216156.16   -20199.646    1465.4015   -21665.047   -951.90345    60.624147     39.44118    39.257266    23.572706 
    6400    238.55438   -328.99357    216156.16    -20184.34    1511.0563   -21695.396   -717.01663    61.214522    39.441278    39.257542    23.591975 
    6600    232.28965   -550.95545    216156.16   -20194.936    1471.3741    -21666.31   -1670.7814    62.530324    39.440925    39.256567    23.625866 
    6800      233.783   -459.42515    216156.16   -20160.169    1480.8333   -21641.002    -1300.443    63.353158    39.439307    39.258604    23.657307 
    7000    242.56868     -425.523    216156.16   -20163.895    1536.4837   -21700.379   -1176.5183    64.260297    39.438506    39.259617     23.66474 
    7200    231.57546   -386.67792    216156.16   -20279.194    1466.8502   -21746.045   -975.55685    65.334073    39.439103    39.258652    23.674429 
    7400    234.17008   -414.71986    216156.16   -20247.529    1483.2851   -21730.814   -1076.7995    66.192487     39.43882    39.260752    23.690865 
    7600    241.24367   -373.65023    216156.16   -20127.392    1528.0908   -21655.483   -1024.3947    67.989909    39.437514    39.261128    23.708621 
    7800    231.25122   -435.94467    216156.16   -20268.888    1464.7964   -21733.685   -1200.0696    68.497176     39.43947    39.264682    23.710024 
    8000    243.45211   -368.93485    216156.16   -20155.581    1542.0795   -21697.661   -895.76169    68.734098     39.44178      39.2669    23.699539 
    8200    233.17856   -425.68166    216156.16   -20167.998    1477.0046   -21645.002   -1114.6942    68.735796    39.446457    39.268674    23.704128 
    8400     242.6755   -373.49245    216156.16    -20117.49    1537.1603   -21654.651   -967.11208    69.954465    39.449266    39.269884    23.677769 
    8600    234.97427   -453.38465    216156.16   -20167.686     1488.379   -21656.065   -1281.2135    70.457569    39.450252    39.270444    23.680445 
    8800    232.85168   -347.34172    216156.16   -20191.025    1474.9341   -21665.959    -839.5735    71.861925    39.450653      39.2741    23.683449 
    9000    233.64855   -153.28281    216156.16    -20164.13    1479.9816   -21644.112   -29.398195    71.972006    39.449797    39.277099    23.678673 
    9200    237.74752    -368.3169    216156.16   -20133.151    1505.9454   -21639.097   -957.44572    73.341507    39.451438    39.278011    23.672375 
    9400    237.19442   -421.70993    216156.16   -20181.151     1502.442   -21683.593   -1155.3284    74.201009    39.454383    39.278865     23.65559 
    9600    238.55764   -560.85728    216156.16   -20213.984    1511.0769   -21725.061   -1766.1448    74.653623    39.453724    39.279902     23.65427 
    9800    234.54138   -350.93151    216156.16   -20128.276     1485.637   -21613.913   -899.62315    76.182225    39.453226    39.280593    23.646208 
   10000    227.30666   -342.17303    216156.16    -20197.46    1439.8107    -21637.27   -800.95672    77.541982    39.454636     39.28098    23.628638 
   10200    241.62781   -294.99602    216156.16    -20125.03     1530.524   -21655.554   -618.85758    78.706038    39.454459    39.278593    23.640745 
   10400    239.87943   -408.35369    216156.16   -20165.498    1519.4494   -21684.947    -1066.875    79.186429    39.454219    39.276387    23.653911 
   10600    230.28893   -350.41012    216156.16   -20222.371    1458.7011   -21681.072   -851.30408    80.340327     39.45347    39.276196     23.67126 
   10800    230.01986   -338.00483    216156.16   -20274.354    1456.9967   -21731.351   -792.90187    81.572738    39.451661    39.274629    23.668105 
   11000    231.12208   -456.56133    216156.16   -20234.552    1463.9784    -21698.53   -1304.2043    81.664407    39.450626    39.275791    23.673584 
   11200     234.5803   -444.69412    216156.16   -20249.098    1485.8835   -21734.982   -1205.3123    82.838941    39.448176    39.277339    23.661554 
   11400    229.06773   -408.79316    216156.16   -20244.919    1450.9657   -21695.884   -1042.9236    84.512963    39.448043    39.277939     23.66984 
   11600    242.89606   -339.81593    216156.16   -20174.575    1538.5574   -21713.132   -825.93333     84.09189    39.450211    39.277941    23.658436 
   11800     237.6781   -377.83732    216156.16   -20185.841    1505.5057   -21691.347   -911.12585    85.868715    39.451451    39.279953    23.659639 
   12000     238.5901   -337.12879    216156.16   -20179.964    1511.2825   -21691.246   -758.94043    87.181619    39.452107    39.279511    23.656909 
   12200     239.0679   -288.45492    216156.16    -20205.11     1514.309   -21719.419   -549.64033    88.472591    39.452306    39.277965    23.641668 
   12400     234.7751   -363.96492    216156.16   -20219.431    1487.1175   -21706.548   -906.39328    89.234882    39.450519    39.276587    23.622481 
   12600    237.02414   -419.81168    216156.16   -20140.637    1501.3634   -21642.001   -1146.6929    90.789044    39.450377    39.277343    23.621871 
   12800    238.58761   -341.62461    216156.16   -20204.196    1511.2668   -21715.463   -810.45052    91.240519    39.450715     39.27948    23.623501 
   13000    230.44305   -532.32389    216156.16   -20223.799    1459.6773   -21683.477     -1659.21    92.625369    39.449418      39.2821     23.63527 
   13200    234.10751   -474.62943    216156.16   -20265.096    1482.8888   -21747.985   -1397.4639    94.103434    39.449505    39.282513    23.652755 
   13400    228.29177   -289.28023    216156.16   -20315.834    1446.0506   -21761.885   -639.30739    95.966652    39.448908    39.281022    23.659815 
   13600    235.72103   -250.47118    216156.16   -20264.828    1493.1092   -21757.937   -418.83351    96.545455    39.449051     39.28204    23.665437 
   13800    235.98723   -318.26675    216156.16   -20193.263    1494.7953   -21688.059   -671.12322    98.838208    39.447813    39.285259    23.653516 
   14000    234.74755   -340.43097    216156.16   -20126.079    1486.9429   -21613.022   -805.63921    100.41949    39.446517    39.286451    23.634291 
   14200    247.57299   -463.67131    216156.16   -20187.089    1568.1821   -21755.271    -1340.785    101.24088    39.442438    39.286606    23.627119 
   14400    239.53102   -443.22315    216156.16   -20254.635    1517.2425   -21771.877   -1245.0508    101.71897    39.440562    39.285874    23.619247 
   14600    230.19567   -404.44509    216156.16   -20246.189    1458.1103   -21704.299   -1090.2771    103.67464    39.440855     39.28449    23.633296 
   14800    232.77792   -381.43314    216156.16    -20185.71    1474.4669   -21660.177   -953.56034    105.02699    39.444779    39.286184    23.629617 
   15000    236.31017   -393.09906    216156.16   -20240.373    1496.8409   -21737.214   -1025.7025     105.1834    39.442342     39.28722    23.624338 
   15200    235.44206   -261.96405    216156.16   -20163.801    1491.3421   -21655.143   -455.68148    105.75559    39.442625    39.288367     23.62334 
   15400    234.41065   -322.91116    216156.16    -20272.91    1484.8089   -21757.719   -714.68828    106.15251    39.443396    39.288342    23.608796 
   15600    240.71417   -396.84192    216156.16   -20118.323    1524.7369    -21643.06   -1055.4997    106.31839    39.441863     39.28765    23.604094 
   15800    243.97591   -342.69273    216156.16   -20176.087    1545.3974   -21721.484   -787.69731    106.43316    39.442965    39.285432    23.591549 
   16000     239.9157   -416.52624    216156.16   -20240.392    1519.6791   -21760.071   -1150.6981     107.2803    39.444443     39.28403    23.607198 
   16200    233.76573   -318.37512    216156.16   -20220.774    1480.7239   -21701.498   -746.93771     107.2687    39.445032    39.282723    23.598305 
   16400    236.10881   -406.32307    216156.16    -20253.89    1495.5655   -21749.455   -1108.4731    108.41808    39.444141    39.281926    23.589094 
   16600    243.46961   -406.50973    216156.16   -20173.607    1542.1904   -21715.797   -1093.1342    109.64356    39.443249    39.281656    23.575614 
   16800     233.2974   -366.09361    216156.16   -20238.702    1477.7574   -21716.459   -907.63352     110.7903    39.441859    39.280269    23.588059 
   17000    235.31436   -314.90261    216156.16   -20289.474    1490.5333   -21780.008   -669.53055    112.31362    39.440621    39.279667    23.601044 
   17200     236.3657   -417.63708    216156.16   -20258.156    1497.1926   -21755.349   -1144.9822    113.61279    39.441345    39.277527    23.602301 
   17400    236.17296   -302.90656    216156.16   -20309.083    1495.9718   -21805.054   -624.63451    115.99302    39.438428    39.275838    23.605603 
   17600    233.81581    -188.0059    216156.16   -20244.305    1481.0411   -21725.346   -176.24166    117.38708    39.434554    39.276969     23.58959 
   17800    226.51587   -452.52295    216156.16   -20228.971    1434.8016   -21663.772   -1328.6671    117.47817    39.430792    39.276707     23.57275 
   18000    235.10295   -321.62781    216156.16   -20164.924    1489.1941   -21654.118   -727.56233    118.26986    39.431765    39.277815    23.580683 
   18200    240.07915   -298.17223    216156.16   -20177.506    1520.7145   -21698.221   -655.09443    118.64018    39.432322    39.279254    23.584115 
   18400    233.35154   -516.25783    216156.16   -20171.685    1478.1003   -21649.786   -1577.5737    119.02187    39.433346    39.278182    23.578516 
   18600    236.23678   -403.46624    216156.16   -20151.748    1496.3761   -21648.124   -1067.2617    119.78494    39.431322    39.278421    23.581553 
   18800    236.53714   -262.40033    216156.16   -20199.954    1498.2786   -21698.233   -474.97007     120.5792    39.432582      39.2797    23.583727 
   19000    237.05527   -424.51727    216156.16   -20156.635    1501.5605   -21658.196   -1157.8946    121.08128    39.434079    39.280272    23.585776 
   19200    234.87777   -355.01371    216156.16    -20194.33    1487.7678   -21682.098   -885.94717    123.15386    39.433434    39.280203     23.59836 
   19400    237.57381   -348.70342    216156.16   -20142.947    1504.8451   -21647.792   -895.66915    124.07353     39.43494    39.281731    23.600499 
   19600    237.41083   -460.92859    216156.16   -20170.196    1503.8128   -21674.009   -1321.1797     125.3381    39.435415    39.282472    23.608011 
   19800    242.03636   -419.50992    216156.16    -20153.88    1533.1119   -21686.992   -1125.4532    126.08476    39.436196     39.28067    23.599412 
   20000    235.57337   -335.64381    216156.16    -20164.53    1492.1739   -21656.704   -799.37767    126.21872    39.433817    39.281678    23.613386 
   20200    234.09343   -233.32641    216156.16   -20208.487    1482.7996   -21691.287   -329.75044    127.20425    39.434883    39.280346     23.60025 
   20400    238.16611   -275.96778    216156.16   -20115.731    1508.5968   -21624.328   -527.67417    127.03679    39.434863    39.281695    23.606113 
   20600    233.27063   -464.48389    216156.16   -20195.482    1477.5878    -21673.07   -1305.3214    128.14466    39.435495    39.282845    23.610918 
   20800    237.73581   -442.13509    216156.16   -20130.655    1505.8712   -21636.526   -1226.2306     128.9157    39.434696    39.283783    23.590315 
   21000    234.52021   -262.76213    216156.16   -20165.887    1485.5029   -21651.389   -426.38302    128.82072    39.435408    39.283287    23.573809 
   21200    237.14226   -324.05919    216156.16    -20116.28    1502.1116   -21618.392   -695.66493    131.22659    39.436349    39.283789    23.577609 
   21400    226.02101     -319.495    216156.16    -20146.55    1431.6671   -21578.217    -698.9537    132.68597    39.436757    39.288908    23.579289 
   21600    243.09189   -357.11723    216156.16    -20043.19    1539.7978   -21582.987   -910.09522    133.39122    39.437207    39.287043    23.599424 
   21800     229.1224   -345.09279    216156.16   -20157.582     1451.312   -21608.894   -819.49116     133.4366    39.439348    39.284207      23.5901 
   22000    227.93848   -257.15602    216156.16   -20167.759    1443.8128   -21611.572   -442.65244    135.25296     39.44085    39.283439    23.589318 
   22200    228.34333   -339.48727    216156.16   -20243.028    1446.3772   -21689.405   -803.96429    137.50601    39.439486    39.281431    23.581385 
   22400    243.46558   -288.13746    216156.16   -20126.208    1542.1649   -21668.373   -561.03962    139.00082    39.440621    39.281373    23.583626 
   22600    235.20297   -549.75199    216156.16   -20154.096    1489.8277   -21643.924   -1667.4956    141.56495    39.443327    39.280462    23.576588 
   22800    235.17946   -179.58072    216156.16   -20140.927    1489.6788   -21630.605   -106.70999    142.21421    39.440596    39.277984    23.559975 
   23000    235.00111   -283.10991    216156.16   -20180.717    1488.5491   -21669.266   -577.67481    143.68477    39.440944    39.277992    23.565879 
   23200    242.47856   -384.02013    216156.16   -20134.559    1535.9129   -21670.472   -950.90923    144.93137    39.440395     39.27867    23.569881 
   23400    235.24881   -428.34287    216156.16    -20143.54    1490.1181   -21633.658   -1202.6302    148.20284    39.440099    39.277096    23.556511 
   23600    243.84384   -331.20213    216156.16   -20074.465    1544.5609   -21619.026   -783.30336    150.93675    39.439491    39.277242    23.563846 
   23800    244.19269   -181.95904    216156.16   -20099.223    1546.7706   -21645.993   -97.538825    151.69343    39.442091    39.279138    23.580237 
   24000    233.59547   -245.23025    216156.16   -20162.784    1479.6454   -21642.429   -425.02126    152.60517    39.443113     39.27871    23.592286 
   24200    236.75071   -353.05662    216156.16   -20171.153    1499.6314   -21670.784   -909.13096    152.63056    39.443934    39.278767    23.615264 
   24400    234.70603   -364.34154    216156.16    -20196.32      1486.68       -21683   -881.95548    154.39636    39.443745    39.280295    23.601301 
   24600    234.82194   -436.59352    216156.16   -20203.904    1487.4142   -21691.318   -1189.1715    155.50195    39.444765    39.280966    23.596023 
   24800    238.86257   -326.00312    216156.16   -20185.989    1513.0084   -21698.997    -758.3923    157.28161    39.445026      39.2821    23.588494 
   25000    233.78295   -290.45781    216156.16   -20179.975     1480.833   -21660.808   -630.40789    158.80364    39.446191    39.281508    23.585748 
   25200    226.89035   -328.54969    216156.16   -20295.282    1437.1737   -21732.455   -745.70263    158.15437    39.448107    39.281111    23.570354 
   25400    238.33158   -338.56467    216156.16   -20177.446     1509.645   -21687.091   -786.75197    158.12511      39.4486    39.280142    23.575686 
   25600    243.21654   -315.48104    216156.16   -20074.619    1540.5874   -21615.207   -693.58596    158.04423     39.44687    39.279496     23.56948 
   25800    243.51992   -249.57788    216156.16   -20123.314    1542.5091   -21665.823   -468.67259     159.0326    39.445518    39.277466    23.574121 
   26000    231.84979   -299.88623    216156.16   -20190.713    1468.5879   -21659.301    -657.4063    159.91678     39.44651    39.277831    23.593675 
   26200    241.65092    -269.0057    216156.16    -20193.81    1530.6704   -21724.481    -461.9211    160.73797     39.44415    39.278205    23.609208 
   26400    232.61453   -527.38392    216156.16   -20216.597    1473.4319   -21690.029   -1616.6993    162.74969    39.444574    39.276893    23.603132 
   26600    239.94431   -351.42056    216156.16   -20123.037    1519.8604   -21642.897    -807.9022    164.84874    39.443742    39.278476    23.597617 
   26800    237.98036   -289.18122    216156.16   -20151.312    1507.4203   -21658.733   -556.65958    164.66756    39.441868    39.278044    23.598287 
   27000    237.87131   -494.70909    216156.16   -20093.549    1506.7295   -21600.278   -1448.8525    164.75734    39.441498    39.277525    23.594589 
   27200    240.16396   -298.15651    216156.16   -20114.181    1521.2517   -21635.433    -623.8297    165.53348    39.444235    39.279076    23.617555 
   27400    238.72301   -504.17634    216156.16   -20082.552    1512.1244   -21594.676   -1484.9484     168.3134    39.446943    39.281203    23.634503 
   27600    232.56403   -340.37877    216156.16   -20209.915    1473.1121   -21683.027   -823.38411    170.14407    39.451366    39.281417    23.629873 
   27800      236.642   -450.67663    216156.16   -20119.829    1498.9428   -21618.772   -1247.4844     171.0181    39.452564    39.281542    23.625102 
   28000    230.61718   -342.60549    216156.16    -20220.78    1460.7803    -21681.56   -809.58803    172.94342     39.45256    39.282216    23.606491 
   28200    229.03644   -364.78475    216156.16   -20212.281    1450.7675   -21663.049    -888.4064    173.94791    39.453897    39.283472    23.608126 
   28400    236.75124   -361.79336    216156.16   -20197.472    1499.6348   -21697.107   -876.34498    173.32783    39.453714    39.283053    23.606389 
   28600    232.10325   -329.31915    216156.16   -20221.928    1470.1934   -21692.122   -803.97013     172.1481    39.453797    39.280792    23.593141 
   28800    234.43353    -350.8483    216156.16   -20198.438    1484.9539   -21683.392   -862.08368    172.32581    39.454799    39.283202    23.589853 
   29000    234.23155   -454.34882    216156.16   -20140.059    1483.6745   -21623.734   -1284.3036    172.74513    39.452914    39.284745    23.594003 
   29200    240.12457   -266.95907    216156.16   -20125.101    1521.0022   -21646.104   -461.31506    172.58489    39.451859    39.287709    23.608767 
   29400    236.28439   -443.63257    216156.16   -20163.766    1496.6776   -21660.443   -1182.9886    173.47844    39.452312    39.288547    23.626199 
   29600    233.89462   -503.39132    216156.16    -20171.14    1481.5403    -21652.68   -1504.6224    174.25393    39.454192    39.289481    23.633537 
   29800    228.01956   -288.15554    216156.16   -20237.848    1444.3263   -21682.175   -554.29606    175.91354    39.457531     39.29108    23.648659 
   30000    231.51439   -462.86059    216156.16   -20277.208    1466.4634   -21743.672   -1295.7809    176.14437    39.457965    39.291288    23.628358 
   30200    233.35974   -323.69526    216156.16   -20249.251    1478.1522   -21727.403   -721.92362    176.58807    39.456264    39.292332    23.628465 
   30400    235.22829   -298.69185    216156.16   -20241.138     1489.988   -21731.126   -609.91465    176.52525    39.459047    39.291014    23.646369 
   30600    227.57847   -328.82612    216156.16   -20309.553    1441.5324   -21751.086   -714.22787    177.83447    39.462585    39.289073    23.665844 
   30800    232.77113   -518.31385    216156.16   -20259.073    1474.4239   -21733.497    -1528.893    177.96892    39.465834    39.285217    23.678643 
   31000    225.22152   -523.39252    216156.16   -20258.027     1426.603    -21684.63   -1475.1276    179.96167    39.468561     39.28315    23.659097 
   31200    242.32874    -355.8244    216156.16   -20219.032    1534.9639   -21753.995   -859.41429    179.49388    39.471265    39.281338     23.66117 
   31400    235.62389   -455.67728    216156.16   -20198.097    1492.4939   -21690.591   -1273.9931    179.81568    39.473079    39.281652    23.669995 
   31600    230.50473   -364.09013    216156.16   -20240.945     1460.068   -21701.013   -855.25001    180.47054    39.472911    39.280805    23.681899 
   31800    235.79046   -283.88334    216156.16   -20174.982     1493.549   -21668.531   -577.67949    183.12023    39.474342    39.280046    23.700294 
   32000    237.84687   -397.42998    216156.16   -20261.821    1506.5747   -21768.395   -1028.6737     182.8654    39.476202    39.278429    23.706925 
   32200    227.86532   -523.85496    216156.16   -20271.215    1443.3494   -21714.564   -1526.2767    182.78818    39.475346     39.27791    23.681152 
   32400    232.59207   -419.14491    216156.16   -20252.454    1473.2896   -21725.744   -1117.3375    183.56302     39.47553    39.278629    23.676039 
   32600    238.64257   -303.28681    216156.16    -20184.64    1511.6149   -21696.255   -600.85191    184.80537    39.476331    39.278428    23.664307 
   32800    236.72811   -511.14531    216156.16   -20171.999    1499.4883   -21671.488    -1481.742     185.7522    39.477599    39.278873    23.651107 
   33000    233.76935   -165.34312    216156.16   -20160.219    1480.7468   -21640.966   -12.704661     185.4709    39.479843    39.277114    23.641682 
   33200      233.586   -392.62651    216156.16   -20188.368    1479.5854   -21667.954   -1033.1976    187.45792    39.478121     39.27512     23.61922 
   33400    235.64799   -411.99975    216156.16   -20214.148    1492.6465   -21706.794   -1088.1043    188.42628    39.473803    39.274011    23.602659 
   33600     230.7749   -270.60578    216156.16   -20222.627    1461.7793   -21684.407   -478.77427    188.63016    39.473324    39.274217     23.61129 
   33800    244.07624   -454.63538    216156.16   -20092.447    1546.0329    -21638.48   -1257.4488    189.96963    39.471791    39.272424    23.607054 
   34000    231.71361   -413.21769    216156.16   -20188.538    1467.7253   -21656.263   -1152.0791    190.05614    39.472057    39.274662    23.614012 
   34200    237.48689   -222.96752    216156.16   -20169.759    1504.2946   -21674.053   -231.29048    190.56482    39.471429     39.27478    23.617332 
   34400    229.25544   -248.36746    216156.16    -20197.04    1452.1547   -21649.195   -395.72868    190.91908    39.473257    39.275744    23.620448 
   34600    238.99571   -380.60088    216156.16   -20095.524    1513.8517   -21609.375   -966.68201    192.58716    39.475518    39.276532    23.608474 
   34800    234.45218   -252.82522    216156.16   -20170.454     1485.072   -21655.526   -385.38006    192.42337    39.475814     39.27658    23.610328 
   35000    229.59693   -314.88611    216156.16   -20197.158    1454.3178   -21651.475   -658.17263    192.91064    39.479323    39.276613    23.568937 
   35200    239.88393   -377.15802    216156.16   -20096.332    1519.4779    -21615.81    -969.9877    193.76026    39.480235    39.276838    23.570116 
   35400    237.22586   -445.82808    216156.16   -20143.311    1502.6411   -21645.953   -1268.6369    194.72422    39.479144    39.276955    23.557741 
   35600    237.32498   -340.74681    216156.16   -20166.896    1503.2689   -21670.165   -793.16634    195.97562    39.476228    39.276449    23.546099 
   35800    240.21496   -177.80851    216156.16   -20097.893    1521.5747   -21619.468   -153.91733    195.74008    39.475309    39.277915    23.537626 
   36000    228.76133   -410.01812    216156.16   -20236.537    1449.0249   -21685.562   -1109.5769    197.06565    39.475409    39.280154    23.522258 
   36200    238.29481   -239.19833    216156.16   -20228.433    1509.4121   -21737.845    -349.3895     196.5549    39.475274    39.279211     23.52045 
   36400    234.74731    -524.8011    216156.16   -20162.091    1486.9414   -21649.032   -1576.4952    198.84923    39.474462     39.28207    23.517051 
   36600    230.33101   -209.51591    216156.16   -20170.692    1458.9676   -21629.659   -278.41643    198.65978    39.476733    39.283634    23.519121 
   36800    232.83659   -411.81171    216156.16   -20191.943    1474.8385   -21666.781   -1051.5952    199.76014    39.476068    39.282112    23.525914 
   37000    228.54843   -323.67565    216156.16   -20197.394    1447.6764    -21645.07   -723.27701    200.75962    39.476998    39.282717    23.504746 
   37200    227.33397   -439.32466    216156.16    -20213.83    1439.9837   -21653.814   -1213.4125    201.86901    39.476074    39.281436    23.508464 
   37400    230.87256   -597.62877    216156.16   -20215.367    1462.3979   -21677.765   -1902.5856    203.84844    39.475545    39.278998    23.490331 
   37600    232.16952   -614.54946    216156.16   -20251.074    1470.6132   -21721.687   -1949.9144    204.72905    39.476725    39.279825    23.479272 
   37800    234.44327   -322.37923    216156.16   -20293.464    1485.0156    -21778.48   -767.29963    204.80416    39.478483    39.280869    23.502115 
   38000    235.72495   -339.12465    216156.16   -20195.098     1493.134   -21688.232   -777.77033    205.46408    39.479952      39.2824    23.518436 
   38200    240.51676   -446.14474    216156.16   -20201.378    1523.4864   -21724.864   -1277.1498    206.21425    39.481527    39.279848    23.537847 
   38400    237.03539   -356.99852    216156.16   -20162.516    1501.4346   -21663.951   -889.70866    207.13335    39.483416    39.281072    23.535373 
   38600    237.63711   -436.75865    216156.16   -20205.232    1505.2461   -21710.478   -1231.8947    207.21097    39.483615    39.280634    23.559668 
   38800    236.89881   -353.97486    216156.16    -20181.83    1500.5695     -21682.4   -851.36772    208.56193    39.485138    39.280435    23.575025 
   39000    240.39805   -329.47377    216156.16   -20140.634    1522.7345   -21663.369   -805.97899    211.24247    39.487808    39.280165    23.578999 
   39200    231.22339   -293.06078    216156.16   -20209.883    1464.6201   -21674.503   -588.78108    212.56256    39.488342    39.280375    23.575608 
   39400    228.18953   -366.45543    216156.16   -20176.042     1445.403   -21621.445   -916.65453    214.08012    39.490207     39.27986    23.563949 
   39600    241.89377   -426.04068    216156.16   -20134.139    1532.2087   -21666.348   -1167.7376    215.31149    39.491046    39.280429    23.561772 
   39800    229.74553   -409.73988    216156.16   -20196.641     1455.259     -21651.9   -1114.1517    216.51401    39.490482    39.279739    23.529373 
   40000    234.29542   -475.15657    216156.16    -20157.75    1484.0791   -21641.829    -1391.955    217.34171    39.489433     39.28094    23.505267 
   40200    237.21245   -442.14578    216156.16   -20136.679    1502.5561   -21639.235   -1269.4633    217.39464    39.491921    39.281351    23.503887 
   40400    237.90334   -436.69472    216156.16   -20160.859    1506.9324   -21667.792   -1226.5428    218.35968    39.491286     39.27958     23.49797 
   40600    230.92225   -456.06548    216156.16   -20101.893    1462.7126   -21564.606   -1286.9138      219.509    39.491277    39.280585    23.492238 
   40800    230.21726   -316.76463    216156.16    -20182.69    1458.2471   -21640.937   -660.64127    220.54185    39.489613    39.281187    23.479234 
   41000    235.66795   -417.84479    216156.16   -20186.715    1492.7729   -21679.488   -1158.7593    221.28755    39.486757    39.280858    23.469726 
   41200    241.97651    -417.9599    216156.16   -20115.002    1532.7328   -21647.734   -1145.8577    221.25649    39.487872    39.279633    23.477926 
   41400    233.59368   -335.35401    216156.16   -20131.634     1479.634   -21611.268   -793.94846    223.29476    39.487598    39.280422      23.4973 
   41600    237.24718   -412.09432    216156.16   -20106.641    1502.7762   -21609.417   -1149.0842    223.70015    39.487442    39.281051    23.497334 
   41800    240.16808   -420.09164    216156.16   -20153.698    1521.2778   -21674.976   -1100.7986    223.49719    39.489081    39.279855    23.475724 
   42000    232.00845    -613.0267    216156.16   -20160.466    1469.5929   -21630.059    -1952.791    224.75052    39.488845    39.280545    23.474751 
   42200    227.92402   -439.39249    216156.16   -20223.156    1443.7212   -21666.878   -1221.4946    223.64389    39.489423    39.278877    23.498642 
   42400    240.10046   -465.30217    216156.16   -20192.957    1520.8494   -21713.807   -1322.8432    223.35457    39.486775    39.278448     23.51926 
   42600     234.5277   -410.62219    216156.16   -20253.503    1485.5504   -21739.053   -1118.2606    225.40371    39.484131    39.275987    23.515411 
   42800    237.47716   -441.38378    216156.16   -20221.622    1504.2329   -21725.854   -1247.7234    226.74483    39.485458    39.274652    23.518359 
   43000    232.72373    -259.6391    216156.16   -20227.917    1474.1236   -21702.041    -484.1651    227.20839    39.487156     39.27562    23.530905 
   43200    234.37094    -397.8371    216156.16   -20242.959    1484.5574   -21727.516   -1053.7028    228.79056    39.488155    39.274771    23.527594 
   43400     238.4918   -366.35111    216156.16   -20194.943    1510.6599   -21705.603   -897.46977    230.08637    39.488667    39.276998    23.526365 
   43600    233.13649   -226.44672    216156.16   -20228.412    1476.7381    -21705.15   -350.87792    230.38812    39.488398    39.277104    23.511876 
   43800    226.16731   -363.34349    216156.16     -20246.5    1432.5938   -21679.094   -920.49565    231.66575    39.486486    39.274955    23.495067 
   44000    227.76818   -316.86835    216156.16   -20294.545    1442.7341   -21737.279   -734.16779    232.18823    39.485248    39.272491     23.48698 
   44200    235.83719   -422.69276    216156.16    -20255.05     1493.845   -21748.895   -1151.8701    232.75946    39.485189    39.271704    23.479439 
   44400     232.7353   -239.80727    216156.16   -20247.858    1474.1969   -21722.055   -319.32721    232.86043    39.483697    39.270094    23.494459 
   44600    229.89323   -305.76828    216156.16   -20283.354    1456.1946   -21739.549   -634.53214    233.89425    39.483199    39.266701    23.486636 
   44800    231.13964   -410.15475    216156.16   -20298.985    1464.0897   -21763.075   -1087.5944    235.33374    39.481957    39.264515    23.477339 
   45000    229.25648   -333.76119    216156.16   -20242.744    1452.1613   -21694.906   -783.22502    237.62139    39.481761    39.265461    23.452729 
   45200    239.67155   -246.86916    216156.16   -20211.493    1518.1326   -21729.626   -437.65358    238.53035    39.483653    39.264242    23.456724 
   45400    227.99645   -432.54524    216156.16   -20244.887      1444.18   -21689.067   -1194.6235    240.82684    39.484479    39.261815    23.467957 
   45600    236.48468   -346.95481    216156.16   -20198.938    1497.9463   -21696.884    -854.8782    240.80284    39.484357    39.258374    23.466728 
   45800    237.00791   -240.18164    216156.16   -20225.794    1501.2606   -21727.055   -327.14677    241.16461    39.484237    39.257763    23.471957 
   46000    230.53136   -396.05509    216156.16   -20136.706    1460.2367   -21596.942   -1004.4653    242.82216    39.485919    39.259258    23.461732 
   46200    234.77926   -449.29287    216156.16   -20108.609    1487.1438   -21595.752   -1283.3724    243.99902    39.486008    39.260386    23.441456 
   46400    234.61184   -423.05545    216156.16   -20193.272    1486.0833   -21679.355   -1167.3066    245.15198    39.487092    39.259214     23.44178 
   46600    233.07938   -410.55588    216156.16   -20202.893    1476.3764   -21679.269    -1118.086    247.84694    39.487332    39.259111    23.442122 
   46800    229.87711   -455.19151    216156.16   -20165.452    1456.0925   -21621.545   -1257.3195    248.27042    39.485424    39.260461    23.443222 
   47000    234.92393   -400.50054    216156.16   -20168.306    1488.0602   -21656.366    -1080.225    250.59891    39.486253    39.260084    23.448288 
   47200     235.1468    -250.0798    216156.16   -20262.047    1489.4719   -21751.519   -387.78245    249.91917    39.487475    39.261056    23.444776 
   47400    236.71425   -440.52937    216156.16   -20161.966    1499.4004   -21661.367   -1228.0936    252.47619    39.484767    39.259625    23.435822 
   47600    235.16946   -440.05934    216156.16   -20200.066    1489.6154   -21689.682   -1169.7816    253.02464    39.485225    39.260628    23.451784 
   47800    230.44353   -511.79955    216156.16   -20177.483    1459.6803   -21637.163   -1524.6316     254.1467    39.487744    39.258178    23.441082 
   48000    237.65046   -418.33859    216156.16   -20167.571    1505.3306   -21672.902   -1099.3469    255.40514    39.489959    39.259599    23.453171 
   48200    232.09851   -444.09044    216156.16     -20161.7    1470.1633   -21631.864    -1267.661    254.95393    39.489645    39.259571    23.442255 
   48400    229.95617   -312.26322    216156.16   -20133.987    1456.5933    -21590.58   -645.10212    254.69625    39.489873    39.259013    23.437459 
   48600    237.14176   -443.10067    216156.16     -20216.4    1502.1084   -21718.509    -1261.613    257.02945    39.491853    39.260899    23.435572 
   48800    231.76685   -391.06936    216156.16   -20200.383    1468.0626   -21668.446   -979.87182    257.58461    39.489655    39.262756    23.437691 
   49000     239.1754   -464.90017    216156.16   -20218.725    1514.9899   -21733.715   -1334.8932    258.16525    39.488163    39.263295     23.45403 
   49200    233.90718   -529.70017    216156.16   -20173.141    1481.6199   -21654.761    -1605.323    258.31671    39.488687     39.26627    23.457812 
   49400    231.71084   -404.30401    216156.16   -20262.097    1467.7077   -21729.805   -1133.2618    258.32309    39.490348    39.268254    23.458333 
   49600    231.58129   -353.24628    216156.16    -20209.59    1466.8871   -21676.477   -859.17117    258.91873    39.490614    39.268933    23.462582 
   49800    237.09655   -427.74301    216156.16   -20191.069     1501.822   -21692.891   -1186.3645    261.49808    39.489717    39.270366    23.473155 
   50000    228.27324   -330.30513    216156.16   -20208.334    1445.9332   -21654.267   -725.68657    262.01769    39.488315    39.270104    23.472918 
   50200    234.91792   -464.98812    216156.16   -20117.943    1488.0221   -21605.965   -1309.7443    262.66366    39.486854    39.272129    23.489257 
   50400    236.57259   -258.74528    216156.16   -20193.595    1498.5032   -21692.098   -466.23526    262.26423    39.487144    39.275268    23.457384 
   50600    240.80914   -417.67864    216156.16   -20108.974    1525.3384   -21634.312   -1121.2584    263.85975    39.485208    39.278567    23.451992 
   50800    224.26205   -426.63276    216156.16   -20266.858    1420.5254   -21687.384   -1190.2566    265.70304     39.48475    39.276155    23.466273 
   51000    231.86979   -328.98999    216156.16     -20198.3    1468.7146   -21667.014   -734.94864    268.11903    39.482534    39.277241    23.459727 
   51200    233.15048   -278.91825    216156.16   -20216.212    1476.8267   -21693.038   -559.70061    268.52438     39.48135    39.277294    23.447273 
   51400    234.93833   -321.05016    216156.16   -20195.365    1488.1514   -21683.517   -694.55097    268.89337    39.478311    39.276165    23.439556 
   51600     228.4769   -385.01368    216156.16   -20230.921    1447.2233   -21678.144   -979.60171    269.93255    39.475206    39.275428    23.430518 
   51800    232.04853   -406.57755    216156.16       -20174    1469.8467   -21643.847   -1084.6377    270.70415    39.474215    39.276289    23.454162 
   52000    232.55656   -426.99467    216156.16   -20217.723    1473.0647   -21690.787   -1172.9783    271.75943    39.475178    39.276648    23.470227 
   52200    231.51648   -314.67285    216156.16   -20214.515    1466.4766   -21680.992   -697.67602    273.00751    39.476063    39.277732    23.455718 
   52400    227.08707   -434.48211    216156.16   -20263.821    1438.4198    -21702.24   -1192.5028    274.95084    39.478908    39.279878     23.46384 
   52600    237.14176    -430.7062    216156.16   -20174.755    1502.1084   -21676.863   -1204.3283     276.5017    39.476068     39.27805    23.473985 
   52800    240.08176   -355.88953    216156.16    -20164.67     1520.731   -21685.401   -865.33481    277.15528    39.476716     39.27436    23.469587 
   53000    232.37943   -573.68717    216156.16   -20163.241    1471.9427   -21635.184    -1799.218    278.91453    39.479061    39.274299    23.490316 
   53200       228.68   -259.70486    216156.16   -20243.377    1448.5097   -21691.886    -412.6407    279.05142     39.48103    39.273722    23.507244 
   53400    233.16066   -425.44444    216156.16   -20204.827    1476.8912   -21681.718   -1134.6292    280.67761    39.481065    39.272852    23.528554 
   53600    230.15878   -466.98946    216156.16   -20271.955    1457.8767   -21729.831   -1328.5274    281.41272    39.482458    39.272213    23.550127 
   53800    234.25768   -294.28328    216156.16   -20219.257      1483.84   -21703.097   -617.60013    281.14918    39.482833    39.270996    23.547348 
   54000    234.15871   -405.66185    216156.16   -20216.949    1483.2131   -21700.162   -1074.4683    283.43421    39.482332    39.269881    23.532599 
   54200     233.7618   -407.75586    216156.16   -20189.159     1480.699   -21669.858   -1083.7971    287.12237    39.481142    39.269486    23.522518 
   54400    240.34693   -447.27389    216156.16   -20128.135    1522.4107   -21650.546   -1268.8059    286.25276    39.481901    39.270612    23.519764 
   54600    237.49282   -377.88151    216156.16   -20186.976    1504.3321   -21691.308   -920.43808    286.08919    39.482783    39.270976    23.504763 
   54800    236.51068   -521.63816    216156.16   -20163.767     1498.111   -21661.878   -1601.8903    288.13854    39.483828    39.271284    23.471917 
   55000    236.82087   -544.95007    216156.16   -20124.925    1500.0758   -21625.001   -1690.9157    288.76331    39.483558    39.270601    23.457584 
   55200    232.62832   -579.54369    216156.16   -20266.789    1473.5193   -21740.308   -1857.6328    289.74864    39.483291    39.272183    23.463434 
   55400    236.45841   -415.72442    216156.16   -20220.672    1497.7799   -21718.452   -1079.3578    290.51463    39.482988    39.273174    23.471499 
   55600    233.42782   -299.61596    216156.16    -20191.76    1478.5835   -21670.344   -660.18061    290.91046    39.481242    39.272477    23.481683 
   55800    246.86241   -99.714869    216156.16   -20101.133    1563.6812   -21664.814    270.04367    291.82904    39.482161    39.273428    23.500604 
   56000     237.7424     -430.825    216156.16   -20119.378     1505.913   -21625.291   -1192.8836    291.40605    39.482336    39.273957    23.505692 
   56200    237.12088    -291.1024    216156.16   -20117.202    1501.9762   -21619.178    -590.0069    292.42345    39.483012    39.273724    23.508188 
   56400    233.13677   -435.96221    216156.16   -20199.074    1476.7399   -21675.814   -1197.5741    294.69652    39.483786    39.277129    23.491241 
   56600    227.61239   -563.08616    216156.16   -20236.941    1441.7473   -21678.689    -1715.376    296.18823    39.484312    39.276013    23.492911 
   56800    230.90869   -391.57293    216156.16   -20128.016    1462.6267   -21590.643   -976.95303    295.66365    39.483316    39.275878    23.498435 
   57000    228.94773    -523.2127    216156.16   -20184.731    1450.2056   -21634.937   -1556.4645    296.58107    39.485381    39.273787    23.486296 
   57200    239.20758   -345.37507    216156.16   -20127.973    1515.1938   -21643.167   -807.12542     298.8197    39.485652    39.273926    23.482301 
   57400    232.30207   -287.56324    216156.16   -20157.067    1471.4527    -21628.52   -595.47588    299.34242    39.486722    39.273044    23.501269 
   57600    225.08762   -321.59336    216156.16   -20203.345    1425.7548     -21629.1   -793.92883    299.87383    39.485902    39.272735    23.528585 
   57800    238.07159   -400.48182    216156.16   -20153.117    1507.9981   -21661.115   -1039.7177    300.73989    39.487954    39.273088    23.531126 
   58000    233.90397   -448.62622    216156.16   -20153.723    1481.5995   -21635.322    -1263.926       301.74    39.489722    39.273619    23.534143 
   58200    238.72301    -414.6848    216156.16   -20131.124    1512.1244   -21643.248   -1135.3378     303.0936    39.489006    39.274484    23.563016 
   58400     233.2234   -404.24083    216156.16   -20146.232    1477.2887    -21623.52   -1062.6465    303.34013    39.489592    39.271195    23.554064 
   58600    228.88716   -354.90913    216156.16   -20187.098    1449.8219    -21636.92   -896.97605     302.8755      39.4876    39.270607    23.571099 
   58800    231.83758    -345.6045    216156.16   -20162.992    1468.5105   -21631.502   -808.13034    302.52686     39.48625    39.269613    23.596034 
   59000    234.34463   -349.83468    216156.16   -20088.741    1484.3907   -21573.132   -841.65853    302.78249    39.488309     39.26563    23.612314 
   59200    232.29304   -442.15549    216156.16   -20152.335    1471.3956   -21623.731   -1206.3166    301.27604    39.489812    39.266244    23.620506 
   59400     238.1463   -315.75083    216156.16   -20146.765    1508.4714   -21655.236   -635.21001    301.13672    39.489711    39.265722    23.631691 
   59600    230.77607   -262.49335    216156.16   -20229.073    1461.7867    -21690.86   -495.25114    302.66825    39.491256     39.26995    23.623124 
   59800    235.79249   -469.15817    216156.16   -20158.417    1493.5618   -21651.979   -1327.7997    302.99209    39.493975    39.271402    23.638247 
   60000    239.52143   -301.89711    216156.16   -20166.079    1517.1817   -21683.261   -634.50319    301.51933    39.492551    39.273722    23.639065 
   60200    236.19459   -270.85681    216156.16   -20195.982    1496.1088   -21692.091   -457.55954    302.67778    39.493562    39.277316    23.635731 
   60400     236.7832   -394.21635    216156.16   -20163.831    1499.8372   -21663.668   -1056.9128    304.50944    39.490561     39.27849    23.666712 
   60600    239.03569   -260.32934    216156.16   -20134.638     1514.105   -21648.743    -418.8672    307.24437    39.487745     39.27919    23.671753 
   60800    236.79849   -475.72785    216156.16   -20111.631     1499.934   -21611.565   -1409.5974    308.56994    39.486341    39.279812    23.684894 
   61000    230.45607   -493.88878    216156.16   -20179.453    1459.7598   -21639.213     -1426.21      308.603    39.486293    39.280389    23.697632 
   61200    239.95005    -216.9197    216156.16   -20136.682    1519.8967   -21656.579   -254.77731    307.48528     39.48616    39.280733    23.699808 
   61400     236.5787   -470.09545    216156.16   -20175.763    1498.5418   -21674.305   -1319.6358    310.33057    39.484178    39.279213    23.714777 
   61600    230.53425   -544.39538    216156.16   -20183.223     1460.255   -21643.478   -1644.9925    311.24116     39.48385    39.277349    23.728162 
   61800    230.20812   -294.69642    216156.16   -20236.458    1458.1892   -21694.647    -589.7753    312.04443    39.484207    39.277504    23.739879 
   62000    232.04399   -517.77807    216156.16   -20177.797     1469.818   -21647.615   -1573.8479    310.86651    39.483554    39.279236    23.743722 
   62200    243.13631    -363.9683    216156.16   -20149.291    1540.0792    -21689.37   -908.45819    311.91592    39.485867    39.278756    23.761983 
   62400    230.89763   -481.12238    216156.16   -20154.465    1462.5567   -21617.021    -1404.411    312.61875    39.485549      39.2781    23.744149 
   62600    236.47246   -246.94645    216156.16    -20144.24    1497.8689   -21642.109   -422.55365    314.43508    39.483942    39.276299    23.745809 
   62800    234.85939   -370.65634    216156.16   -20232.421    1487.6513   -21720.072   -893.17708    314.29475    39.484086    39.277024    23.740834 
   63000    233.57624   -333.57096    216156.16   -20145.013    1479.5236   -21624.537    -788.7276     315.0349    39.484521    39.277609    23.745377 
   63200    241.16257    -393.9627    216156.16   -20164.277    1527.5771   -21691.855    -1052.396    316.43137    39.484374    39.276337    23.734223 
   63400    230.92301   -310.04403    216156.16   -20243.663    1462.7174   -21706.381   -674.89468    315.95901    39.484352    39.273387    23.745311 
   63600     231.0024   -350.47553    216156.16   -20236.815    1463.2204   -21700.035   -843.40272    318.70469    39.484884    39.272535    23.753985 
   63800    229.15855   -300.01838    216156.16   -20280.548     1451.541   -21732.089   -635.53299    321.53503    39.485581    39.270862    23.771226 
   64000    236.71981   -356.02794    216156.16   -20200.579    1499.4357   -21700.014   -925.04366    322.55926    39.483708    39.268747    23.770321 
   64200    236.27435    -436.4959    216156.16   -20214.481     1496.614   -21711.095   -1162.4761    323.24969    39.483869    39.267319    23.788791 
   64400    230.20623   -494.22881    216156.16   -20223.041    1458.1772   -21681.218   -1462.0984    326.11967    39.483592    39.267595     23.80586 
   64600    225.46022   -325.84106    216156.16   -20277.239    1428.1149   -21705.354   -699.60159    326.54541    39.484248    39.270389    23.792104 
   64800    227.84913   -318.13038    216156.16   -20265.972    1443.2468   -21709.219   -688.37527    327.38014    39.484712    39.270234     23.78059 
   65000    243.34838    -210.3907    216156.16    -20196.03    1541.4225   -21737.453   -257.69726    327.78672     39.48308    39.272249    23.782071 
   65200    234.89518   -380.49058    216156.16       -20238    1487.8781   -21725.878   -949.00362    329.69755    39.484705    39.274853    23.776016 
   65400    237.13751    -335.5175    216156.16   -20230.898    1502.0815    -21732.98   -794.72769    329.16023    39.485068    39.276847     23.75216 
   65600    238.87224   -390.95811    216156.16   -20171.565    1513.0697   -21684.635   -1008.5403    328.52204    39.487597    39.276482    23.759326 
   65800    231.63026   -333.31432    216156.16   -20193.614    1467.1973   -21660.811    -747.5624    328.08028    39.489505    39.278164    23.754215 
   66000    245.79846   -406.00292    216156.16   -20235.189    1556.9419   -21792.131   -1084.5574    329.09481    39.489096    39.279048    23.753068 
   66200    229.28589   -291.83138    216156.16   -20295.399    1452.3476   -21747.747   -606.16821    328.31572    39.490289     39.27827    23.767887 
   66400    229.80164    -517.8238    216156.16    -20251.06    1455.6145   -21706.675   -1585.8764    328.84758    39.489905    39.278346    23.774536 
   66600    229.29678   -275.72167    216156.16   -20272.519    1452.4165   -21724.935   -497.73538    330.80183    39.488695    39.278883    23.763558 
   66800    236.41956   -280.35469    216156.16    -20271.36    1497.5338   -21768.894   -529.28562    330.65889     39.48873      39.2793    23.770705 
   67000    221.63522   -320.27732    216156.16   -20314.539    1403.8865   -21718.426    -722.4235    331.09243    39.491574     39.27776    23.744035 
   67200    234.15749   -375.19302    216156.16   -20248.794    1483.2054       -21732   -914.95052    331.36391    39.491727    39.281046     23.74226 
   67400    231.14365   -336.55194    216156.16   -20218.793     1464.115   -21682.908   -796.65394    332.17304    39.489627    39.280815    23.719082 
   67600     234.9509   -464.52702    216156.16   -20149.899     1488.231    -21638.13   -1310.1685    332.23268    39.488873    39.278488     23.69886 
   67800    230.49367   -320.62266    216156.16   -20167.253    1459.9979   -21627.251   -722.96595    333.14023    39.488045     39.27735     23.70118 
   68000    239.02215   -187.07573    216156.16   -20229.512    1514.0192   -21743.532   -149.83318    335.48532    39.485672    39.277275     23.69853 
   68200    233.85491   -456.22912    216156.16     -20215.7    1481.2887   -21696.989    -1281.651    337.09062    39.485584    39.278719    23.693003 
   68400    236.69492   -384.69782    216156.16   -20186.398     1499.278   -21685.676   -1000.6683    336.29189    39.490826    39.279409    23.685138 
   68600     238.7272   -416.32781    216156.16   -20201.099    1512.1509    -21713.25   -1137.0327    336.75443    39.492377    39.281337    23.684434 
   68800    240.68956   -280.63178    216156.16   -20196.794     1524.581   -21721.375   -520.56365    336.90845    39.492629    39.283008     23.69625 
   69000    241.41614   -423.86886    216156.16   -20168.671    1529.1832   -21697.854   -1116.8695    336.96338    39.490948    39.285517     23.69849 
   69200     232.4475   -250.42783    216156.16   -20292.332    1472.3739   -21764.706   -426.54259    338.92424    39.492129    39.288866    23.681697 
   69400    233.09284   -336.33285    216156.16   -20340.914    1476.4617   -21817.375   -798.08936    340.99075    39.492843    39.288987    23.676569 
   69600    241.10182   -410.94869    216156.16   -20133.735    1527.1923   -21660.927    -1048.374    341.57309    39.494067    39.289339    23.669051 
   69800    234.25003   -426.26627    216156.16   -20221.658    1483.7915   -21705.449   -1205.9592    342.87378    39.494947    39.289881    23.669763 
   70000    236.64643   -350.88617    216156.16   -20195.935    1498.9709   -21694.906    -820.9195    342.97913    39.495561    39.288415    23.681092 
   70200    237.83532   -489.38559    216156.16   -20170.896    1506.5015   -21677.398   -1431.7501    343.68118    39.497456    39.288408    23.653843 
   70400    237.40938    -266.8577    216156.16   -20139.978    1503.8036   -21643.781   -477.36068    343.73635    39.498312    39.290364     23.64111 
   70600    237.08649   -419.97722    216156.16   -20202.066    1501.7583   -21703.824   -1124.3202    344.43015     39.49772    39.294734    23.638666 
   70800    232.15497   -441.92033    216156.16   -20193.674     1470.521   -21664.195   -1230.4569    344.40269    39.497783    39.292701    23.627385 
   71000    237.78622   -437.83759    216156.16   -20210.627    1506.1905   -21716.818   -1225.2857    345.02327    39.501189    39.289995     23.64772 
   71200    236.05327   -408.28766    216156.16   -20208.307    1495.2136   -21703.521   -1111.8453     345.1033     39.50293    39.290971     23.63921 
   71400    238.22798    -564.6143    216156.16   -20247.643    1508.9888   -21756.632   -1730.1447    346.90233    39.503945    39.290713    23.630301 
   71600    243.41756   -249.27001    216156.16   -20212.696    1541.8607   -21754.556   -409.43518    346.56706    39.504385    39.288846     23.62592 
   71800    224.65108   -393.31487    216156.16   -20298.785    1422.9897   -21721.775   -1055.8721    347.45679    39.504165    39.289648    23.612703 
   72000    231.29269   -496.30626    216156.16   -20289.729    1465.0591   -21754.788   -1468.9045     348.3798    39.504639    39.287107     23.62526 
   72200    243.28445   -528.89601    216156.16    -20136.96    1541.0176   -21677.978   -1650.9583    349.67786    39.503579    39.287001    23.638356 
   72400    239.33726   -329.81703    216156.16   -20208.885    1516.0152     -21724.9   -766.11132    349.08246    39.503852    39.287886    23.645735 
   72600     232.8555   -363.65894    216156.16   -20197.842    1474.9583     -21672.8   -882.80009    351.09955    39.502751    39.287795    23.642324 
   72800    237.14133   -397.74197    216156.16   -20223.805    1502.1057   -21725.911    -1083.503    352.19289     39.50394    39.287316    23.631358 
   73000    228.82791    -470.3488    216156.16   -20272.118    1449.4466   -21721.565   -1365.5387     352.5489    39.503184    39.288597    23.623535 
   73200    239.46346   -318.19579    216156.16   -20192.537    1516.8146   -21709.352   -722.64597    353.03935    39.505905    39.289941     23.63544 
   73400    235.14953   -313.34238    216156.16   -20200.913    1489.4892   -21690.403   -713.82363    353.48815    39.508156    39.291222    23.648156 
   73600    239.87136   -245.30773    216156.16   -20191.028    1519.3983   -21710.426   -380.53195    353.23495    39.506548    39.291372    23.618374 
   73800     232.4939   -335.78504    216156.16   -20286.388    1472.6678   -21759.056   -801.31807    353.94771    39.504234    39.293998    23.604329 
   74000    237.73175     -417.004    216156.16   -20289.642    1505.8455   -21795.488   -1106.6762    356.18091     39.50392    39.293946    23.593981 
   74200    232.01024   -591.47134    216156.16   -20194.568    1469.6042   -21664.172   -1867.5756    359.12033    39.504784    39.294162    23.588845 
   74400    233.82712   -436.03877    216156.16   -20223.951    1481.1127   -21705.064   -1177.6293    357.86241    39.506181    39.293347    23.608767 
   74600    233.69386   -358.16264    216156.16   -20271.845    1480.2686   -21752.113   -892.45826    359.77769    39.504128    39.292819     23.61004 
   74800    237.23735   -469.57037    216156.16   -20278.473    1502.7139   -21781.187   -1346.3435    359.11104    39.500982    39.291129    23.620598 
   75000    234.52645   -331.94198    216156.16    -20280.53    1485.5424   -21766.072   -784.53574    360.05229    39.501077    39.289236    23.614439 
   75200    235.67764   -363.25295    216156.16   -20185.973    1492.8344   -21678.808      -922.24    360.22455     39.50046    39.290621    23.588103 
   75400    230.26991   -336.24849    216156.16   -20255.363    1458.5806   -21713.943   -738.08942    360.49207    39.499673    39.291421    23.594057 
   75600    240.59686   -402.87509    216156.16   -20228.141    1523.9938   -21752.135    -1076.643    360.06628    39.498326    39.292239    23.608005 
   75800    236.06332   -440.92673    216156.16     -20176.9    1495.2774   -21672.178   -1227.5469    363.21621    39.498006    39.292018    23.621365 
   76000    230.81322   -430.26043    216156.16   -20172.267    1462.0221    -21634.29   -1159.9874    364.81199    39.496891    39.291242    23.628779 
   76200     233.2577   -338.77847    216156.16   -20257.446    1477.5059   -21734.952   -797.67755    364.32189    39.495575    39.290965    23.646746 
   76400    237.90663    -297.8719    216156.16   -20232.682    1506.9533   -21739.635   -609.71537    364.62616    39.493953    39.289929    23.644838 
   76600    237.70948   -332.30815    216156.16    -20184.83    1505.7044   -21690.534   -778.54183    366.94133    39.493752    39.289681    23.629871 
   76800    229.29833    -343.1314    216156.16   -20199.484    1452.4264    -21651.91   -833.26686    367.77903    39.490672    39.289599    23.638241 
   77000    233.80586   -404.25521    216156.16   -20196.244    1480.9781   -21677.222   -1079.4258    367.49612    39.490879    39.288707    23.633355 
   77200    235.03544   -534.71401    216156.16    -20166.74    1488.7665   -21655.506   -1600.7722     368.3482    39.492177    39.285948    23.644776 
   77400    230.20168   -441.38173    216156.16   -20168.219    1458.1484   -21626.368   -1245.7901    369.93248    39.494741    39.286501    23.650512 
   77600    231.79842   -333.29543    216156.16   -20194.083    1468.2625   -21662.345   -754.78816    372.96963    39.494912    39.285224    23.661668 
   77800    241.93434   -599.58163    216156.16   -20164.333    1532.4657   -21696.799   -1896.5956    375.01785      39.4945    39.286854    23.671022 
   78000    233.40929   -439.78324    216156.16   -20214.544    1478.4661    -21693.01   -1218.3452    375.99242    39.493068    39.287023    23.655757 
   78200    241.65438   -519.85571    216156.16   -20138.148    1530.6923   -21668.841   -1595.3295    376.10159    39.491399     39.28666    23.639888 
   78400    237.51334   -348.99921    216156.16   -20124.746    1504.4621   -21629.208   -824.67913    376.04125    39.490795     39.28674     23.64756 
   78600    237.29289   -345.81257    216156.16   -20129.235    1503.0657     -21632.3   -814.56288    377.41715    39.490905    39.289083    23.641687 
   78800    238.76122   -275.90913    216156.16   -20134.698    1512.3664   -21647.064   -527.93044    378.01073    39.488053    39.287854    23.653201 
   79000    240.05813   -473.77988    216156.16   -20126.495    1520.5813   -21647.076   -1347.2195    378.65414    39.490401    39.291296    23.668836 
   79200    233.51129   -498.31564    216156.16   -20100.352    1479.1122   -21579.464   -1476.0359    377.88101    39.490738    39.290668    23.653636 
   79400    234.67115   -345.54937    216156.16    -20110.97     1486.459   -21597.429   -809.14588    378.42182    39.494369    39.290821    23.636142 
   79600    231.51963   -308.76499    216156.16   -20219.603    1466.4966     -21686.1   -644.93113    379.06493    39.496007    39.290929    23.649423 
   79800    232.93072   -399.90912    216156.16   -20205.278    1475.4348   -21680.713   -1012.7252    377.77203    39.496841    39.290602    23.656171 
   80000    232.75788   -429.09469    216156.16   -20233.428    1474.3399   -21707.768   -1209.3301    379.99654    39.494254    39.290841    23.645281 
   80200    233.06559   -596.82341    216156.16   -20244.869     1476.289   -21721.158   -1871.1919    381.17661    39.493727    39.289906    23.660699 
   80400    230.98538   -432.23029    216156.16   -20228.994    1463.1126   -21692.106   -1200.2126    383.40889    39.492553    39.290926    23.658252 
   80600    232.63836    -304.9083    216156.16   -20200.205    1473.5828   -21673.787   -614.97096    382.63625    39.490917    39.292432    23.668919 
   80800    232.11239   -420.60593    216156.16   -20196.598    1470.2512   -21666.849   -1133.8302    384.68225    39.490672    39.292076    23.689228 
   81000    233.40922   -458.31681    216156.16   -20165.402    1478.4657   -21643.868   -1305.6062    385.11524    39.492443    39.291251    23.678571 
   81200    242.41461   -366.81332    216156.16   -20171.878    1535.5078   -21707.386    -890.1849    386.61922    39.491624    39.288931    23.671827 
   81400    232.38999   -292.39556    216156.16   -20184.317    1472.0096   -21656.327   -539.21731    386.14195    39.490346    39.292745    23.667142 
   81600    228.23432   -279.23841    216156.16   -20228.843    1445.6867   -21674.529   -519.74759    387.07989    39.489374    39.295388    23.655844 
   81800    232.00609   -366.14026    216156.16   -20266.464    1469.5779   -21736.042   -865.14443    389.41486    39.489772    39.294695    23.649275 
   82000    237.24973   -468.35356    216156.16   -20207.081    1502.7923   -21709.873   -1322.1653    389.63181    39.486677    39.293809    23.629708 
   82200    234.19464   -428.26576    216156.16   -20138.666    1483.4407   -21622.106   -1168.3888    390.30267    39.485952    39.293557     23.64218 
   82400    235.47342    -394.5452    216156.16   -20172.117    1491.5408   -21663.657   -1041.8025    390.46632    39.486334     39.29214    23.668218 
   82600    232.83036   -566.96359    216156.16   -20075.291     1474.799    -21550.09   -1821.2186    391.72078    39.483925    39.294776     23.68787 
   82800    236.82084   -267.76907    216156.16   -20173.815    1500.0756    -21673.89   -459.91811    392.33187    39.482391    39.291745    23.693138 
   83000    239.40684   -365.00652    216156.16   -20109.885    1516.4559   -21626.341   -855.49294    393.05739    39.482422    39.291728    23.697308 
   83200    233.74163   -459.94076    216156.16   -20163.879    1480.5712    -21644.45   -1351.7629    393.79665    39.484839    39.293587     23.70028 
   83400    238.02808   -413.70046    216156.16   -20200.132    1507.7225   -21707.854   -1104.0042    395.03351    39.484561    39.293953    23.684836 
   83600    234.11927   -422.96538    216156.16    -20228.55    1482.9633   -21711.513   -1131.0402    395.79416    39.482563       39.296    23.669436 
   83800    234.11954   -459.52623    216156.16    -20196.94     1482.965   -21679.905   -1350.2885     395.2269    39.481371    39.296837    23.658211 
   84000    235.15177   -312.95163    216156.16   -20184.838    1489.5034   -21674.341   -674.86454     395.2825    39.482252    39.297434    23.666557 
   84200     234.6317   -344.08164    216156.16   -20166.944    1486.2091   -21653.153   -791.97452    397.39412    39.481545    39.300146    23.674071 
   84400    238.72319   -299.37741    216156.16    -20222.93    1512.1255   -21735.056   -632.20797    399.68557    39.481335    39.302415    23.674142 
   84600    233.25145   -462.03255    216156.16   -20167.565    1477.4663   -21645.031   -1363.0442    402.06655    39.478827    39.302484    23.656278 
   84800    237.80565    -353.9185    216156.16   -20215.671    1506.3136   -21721.985   -859.26449    402.45255    39.476797    39.302331    23.651997 
   85000    231.30863   -392.74303    216156.16   -20191.138      1465.16   -21656.298   -1056.9612    402.18886     39.47723    39.303643    23.658275 
   85200    234.10543    -542.6106    216156.16   -20237.357    1482.8756   -21720.232   -1678.5314    402.36155     39.47767    39.302586    23.677764 
   85400    234.12301   -395.09252    216156.16   -20254.439     1482.987   -21737.426   -1013.4218    401.20277    39.477992     39.30153     23.67309 
   85600    229.62225   -441.17671    216156.16   -20236.603    1454.4782   -21691.081   -1253.7802    400.66256    39.476476    39.301357    23.674803 
   85800    233.51823   -334.67114    216156.16    -20147.84    1479.1561   -21626.996   -723.93609    402.53546    39.476034    39.300233    23.646127 
   86000    238.82367   -371.60845    216156.16   -20163.577     1512.762   -21676.339   -948.41758    402.50277    39.477946    39.298938     23.65458 
   86200      241.222   -547.77442    216156.16     -20173.3    1527.9535   -21701.253   -1658.1158    403.06833    39.477041    39.298876    23.650061 
   86400    233.19096   -342.47746    216156.16   -20240.477    1477.0832   -21717.561   -764.15393    402.82763    39.477087    39.297356    23.652403 
   86600    234.15574   -230.41225    216156.16   -20163.441    1483.1943   -21646.635   -344.45893    404.41503    39.475811    39.295887    23.634177 
   86800    231.42415   -397.94496    216156.16   -20260.808    1465.8918   -21726.699    -1044.556    404.95266    39.474705    39.292961    23.625755 
   87000    237.79771   -461.18144    216156.16    -20188.07    1506.2634   -21694.334   -1270.1789    405.81291    39.475027     39.29113    23.650271 
   87200    233.75474   -395.25434    216156.16   -20174.636    1480.6543    -21655.29   -1015.5104    406.09809    39.476746    39.290782     23.66324 
   87400      230.896   -245.95417    216156.16   -20249.347    1462.5464   -21711.893   -334.85876    407.27924    39.475697    39.289964    23.642668 
   87600    239.26409   -322.96721    216156.16   -20160.288    1515.5517    -21675.84   -689.48296    408.63532    39.477772    39.291057    23.638946 
   87800    233.52918   -394.69292    216156.16    -20197.49    1479.2255   -21676.716   -1048.6537    408.14893    39.474505    39.290597    23.638031 
   88000    238.57623     -451.068    216156.16   -20168.448    1511.1947   -21679.643   -1185.0543    407.04566    39.475032    39.290318    23.634121 
   88200    229.14731   -354.84309    216156.16    -20198.02    1451.4698   -21649.489   -838.59387    405.79837    39.472113    39.288628     23.63249 
   88400    237.48166    -563.5899    216156.16   -20124.463    1504.2614   -21628.725   -1787.5319    406.23326    39.471473    39.290421    23.633572 
   88600    232.61509    -350.6051    216156.16   -20167.915    1473.4355    -21641.35   -874.15379    406.03448    39.471917    39.288631    23.638668 
   88800    230.86784   -226.00154    216156.16   -20202.588     1462.368   -21664.956   -328.14409    406.69738    39.472085    39.286216    23.642277 
   89000    237.12241   -341.66577    216156.16   -20220.192    1501.9859   -21722.178   -789.73056    408.70408    39.470866    39.284361    23.641322 
   89200    237.71974   -302.38411    216156.16   -20196.451    1505.7695   -21702.221   -661.07143    409.04126    39.470873    39.283725    23.640612 
   89400    235.54277   -343.63687    216156.16   -20198.284      1491.98   -21690.264   -777.22259    410.00421    39.471203    39.284784    23.640791 
   89600    228.17737   -447.39666    216156.16   -20333.699     1445.326   -21779.025   -1262.5727    411.55141    39.471469    39.284488    23.655361 
   89800     237.2838   -350.03206    216156.16    -20224.65    1503.0081   -21727.658   -784.71636    410.80203    39.470285     39.28631    23.641587 
   90000    238.41793   -416.46238    216156.16   -20222.836     1510.192   -21733.028   -1193.7362    411.29047    39.468206      39.2861    23.651929 
   90200    231.68902   -330.44161    216156.16   -20258.518    1467.5695   -21726.088   -798.84669    412.13834    39.465406    39.285839    23.649629 
   90400     234.2346   -312.84357    216156.16   -20221.819    1483.6938   -21705.513   -714.85487    413.08078    39.463488    39.285379    23.664415 
   90600    237.30336   -330.75915    216156.16   -20214.858     1503.132    -21717.99    -737.4454    412.72253    39.462631    39.284059    23.670512 
   90800    234.15639   -382.11755    216156.16   -20205.624    1483.1984   -21688.823   -969.46376    413.59163    39.459377    39.284442    23.646125 
   91000    234.02667   -257.57654    216156.16   -20233.812    1482.3767   -21716.189   -464.39961    414.18959    39.459239    39.283824    23.643168 
   91200    227.02928   -398.29345    216156.16   -20312.336    1438.0537    -21750.39   -1038.0349    414.06504    39.457432    39.284742    23.645802 
   91400    236.43384   -330.89564    216156.16   -20216.602    1497.6243   -21714.227   -764.07098    415.82452    39.457182    39.285546     23.66018 
   91600    239.52572   -282.91933    216156.16   -20142.927     1517.209   -21660.136   -586.34827    415.09672    39.454886    39.284877    23.659375 
   91800    235.95297   -553.50096    216156.16   -20192.601    1494.5783    -21687.18   -1716.5073    415.69853    39.453909    39.284505    23.631753 
   92000     237.4913    -341.3739    216156.16   -20169.605    1504.3225   -21673.928   -786.69201    414.95243    39.452318    39.285734    23.616846 
   92200    234.81339   -437.23885    216156.16   -20185.653      1487.36   -21673.013   -1237.5344    416.93447    39.453755    39.285307    23.606361 
   92400    237.40274    -409.6138    216156.16   -20156.585    1503.7615   -21660.346    -1077.974    418.12509    39.453581    39.285918    23.605193 
   92600    236.31006   -428.40964    216156.16   -20111.618    1496.8403   -21608.459   -1194.4338    416.51785    39.454544    39.285685    23.579129 
   92800    231.34787   -306.94816    216156.16   -20195.214    1465.4086   -21660.622    -637.0098    417.11992    39.456775    39.285955    23.606044 
   93000    233.77902   -444.97653    216156.16   -20248.894    1480.8081   -21729.702   -1271.3458    416.98544    39.455678    39.286207     23.60084 
   93200    231.72208   -316.78581    216156.16   -20237.699     1467.779   -21705.478   -724.40762    418.09339    39.457087     39.28607    23.581819 
   93400    228.19438   -498.34854    216156.16   -20302.932    1445.4337   -21748.366   -1477.2517    417.29244     39.45871    39.287782    23.600312 
   93600    241.05758    -315.1363    216156.16   -20274.023    1526.9121   -21800.935   -738.39027    417.64728    39.460463    39.288197    23.603267 
   93800    232.70701    -402.7811    216156.16    -20309.92    1474.0177   -21783.938   -1053.0941    417.29872    39.458873    39.290334    23.593437 
   94000    237.49715    -474.8387    216156.16   -20289.603    1504.3595   -21793.963   -1359.3327    418.73326    39.458369    39.290265    23.609937 
   94200    233.63188   -357.99283    216156.16   -20197.763    1479.8761   -21677.639   -909.48896    418.37533    39.459568    39.291308    23.591132 
   94400    232.56512   -376.28825    216156.16   -20217.541     1473.119    -21690.66   -966.28464    418.24577    39.459519    39.290119    23.618836 
   94600    232.93617   -293.99506    216156.16   -20226.202    1475.4693   -21701.671   -603.45731     421.1371    39.459456    39.289451     23.61043 
   94800    234.73514   -343.06905    216156.16   -20198.607    1486.8643   -21685.471   -778.44369    422.45867    39.457833    39.288931    23.610172 
   95000    233.70551   -276.35861    216156.16   -20241.558    1480.3425     -21721.9   -485.97341    422.63872    39.458781    39.288757    23.605351 
   95200    233.16502   -302.83889    216156.16   -20192.862    1476.9188   -21669.781   -624.27234    424.09651    39.456775    39.287895    23.623321 
   95400    242.13659   -354.94276    216156.16   -20114.072    1533.7467   -21647.819   -859.26004    423.65271    39.457836    39.288009    23.620937 
   95600    236.25578    -244.8631    216156.16   -20123.429    1496.4964   -21619.925    -365.6949    426.92833    39.456347    39.290031      23.6152 
   95800    240.85089   -345.24428    216156.16   -20146.281    1525.6029   -21671.884   -818.11746    426.63754     39.45388    39.292148    23.622867 
   96000    241.15314    -395.8312    216156.16   -20139.232    1527.5174   -21666.749   -1043.0095    427.07412    39.454985    39.293492    23.619966 
   96200     239.5577   -451.85091    216156.16   -20076.022    1517.4115   -21593.434     -1215.54    428.07187      39.4545    39.293422    23.602896 
   96400    236.87009   -455.18402    216156.16   -20161.558    1500.3876   -21661.945   -1289.1654    429.84963    39.452714    39.293722    23.601715 
   96600    226.16163   -316.88386    216156.16   -20176.233    1432.5579   -21608.791   -687.30771    430.86706    39.451054    39.294619    23.605335 
   96800    237.27999   -471.31416    216156.16   -20120.443     1502.984   -21623.427   -1411.7564    432.81583    39.449136    39.294782    23.592454 
   97000    235.24032   -350.87637    216156.16   -20164.155    1490.0643   -21654.219   -847.14787    436.08339     39.44798    39.294131    23.574708 
   97200    235.65197   -329.75458    216156.16   -20191.608    1492.6717    -21684.28   -747.74175    439.28243    39.449123    39.293277     23.58188 
   97400    232.65993   -394.02247    216156.16   -20154.775    1473.7195   -21628.495   -1044.9948    442.24116    39.449462    39.294856    23.573282 
   97600    237.54467   -241.09914    216156.16   -20094.645    1504.6605   -21599.306   -373.98201    440.37937    39.449704    39.291991    23.578075 
   97800    229.57409   -300.19969    216156.16   -20105.776    1454.1731   -21559.949   -629.01224    441.64757    39.448095    39.293373    23.571729 
   98000    230.30584   -399.89639    216156.16    -20171.71    1458.8082   -21630.518   -1032.1805    444.62448    39.445365    39.295564    23.588619 
   98200    237.35958   -543.71437    216156.16   -20166.539    1503.4881   -21670.027   -1665.2096     446.0392    39.443079    39.296057    23.601081 
   98400    234.18363   -346.49535    216156.16   -20130.987    1483.3709   -21614.358   -850.03113    446.12104    39.442515    39.296246    23.603235 
   98600    237.47555   -359.70764    216156.16   -20157.168    1504.2227   -21661.391   -897.44653    444.45755    39.440502     39.29272     23.59075 
   98800    237.88969   -140.75998    216156.16   -20140.086    1506.8459   -21646.932    49.249276    446.14037    39.440455    39.289607    23.568253 
   99000    242.84101    -299.3735    216156.16   -20196.914    1538.2087   -21735.122   -593.08612    446.62588     39.43837     39.28704    23.607921 
   99200    233.12647   -172.74356    216156.16   -20170.614    1476.6746   -21647.289    -83.43227    449.41035    39.436695    39.285827    23.633051 
   99400    236.04629    -391.0457    216156.16   -20152.856    1495.1694   -21648.025   -1007.6535    449.45579     39.43452    39.284006    23.640867 
   99600     239.7659   -372.93793    216156.16   -20154.024    1518.7303   -21672.754   -922.83594    450.33875    39.431067    39.283433     23.63189 
   99800    229.97799   -385.41513    216156.16   -20174.517    1456.7315   -21631.249   -1000.4666    451.56709    39.430921    39.282057     23.65194 
  100000     233.3437   -226.96905    216156.16   -20182.948    1478.0506   -21660.999   -323.13257    451.00774    39.429815    39.283283    23.634845 
  100200    228.52358   -395.71029    216156.16   -20234.416    1447.5189   -21681.935   -1049.1941    451.78662    39.428365    39.285913    23.641826 
  100400    240.43781   -334.17845    216156.16   -20141.076    1522.9863   -21664.062   -805.77678    453.93318    39.426868    39.286478    23.660659 
  100600    235.86791   -394.05984    216156.16   -20118.661    1494.0395   -21612.701   -1016.6429    455.72564    39.428228    39.289664    23.673964 
  100800    236.42529   -471.84478    216156.16   -20238.231    1497.5701   -21735.801   -1350.0721    456.76956    39.426957    39.293632    23.671328 
[...]
 3976000    221.46858   -172.76855    216156.16   -22140.728     1402.831   -23543.559   -54.436236    5381.3797    38.273729     38.43194    23.823283 
 3976200    217.23833   -110.94984    216156.16   -22147.539    1376.0356   -23523.575    195.86166     5379.072    38.274697    38.432826    23.824809 
 3976400    227.41973    -183.5136    216156.16   -22149.793    1440.5269    -23590.32    -105.3132    5380.9313    38.274419    38.431023    23.822564 
 3976600    221.83786   -316.66761    216156.16   -22149.487    1405.1701   -23554.657   -670.23504    5381.3996    38.275962    38.429877    23.823387 
 3976800    219.66233   -112.68267    216156.16   -22101.285    1391.3898   -23492.675    200.40157    5380.4102    38.276591    38.429797    23.826498 
 3977000    216.92976   -168.62422    216156.16   -22196.787    1374.0811   -23570.869   -40.382025    5380.3944    38.276296    38.429085    23.823312 
 3977200     226.0988   -145.03623    216156.16   -22110.388    1432.1599   -23542.548    68.436287    5382.6276    38.277111    38.427668     23.83059 
 3977400    224.63516    -202.5858    216156.16    -22109.79    1422.8888   -23532.679   -219.46801    5382.0001    38.278815    38.425119    23.827551 
 3977600    221.20634   -191.46796    216156.16   -22135.702    1401.1699   -23536.872   -143.53597    5381.9123     38.28017    38.424385    23.821471 
 3977800    220.34766   -133.88405    216156.16   -22145.141    1395.7309   -23540.872    95.312004    5381.4291    38.280267    38.423317    23.823034 
 3978000      223.384   -115.08443    216156.16   -22165.227    1414.9637   -23580.191    176.30714    5380.7312    38.280407    38.422915    23.831621 
 3978200    228.60441    -139.5028    216156.16   -22099.532    1448.0309   -23547.563    81.546014    5380.8927    38.281398    38.422983     23.82652 
 3978400    219.45307   -263.31541    216156.16   -22166.512    1390.0643   -23556.576   -487.81166    5381.7927    38.282166    38.421707     23.83501 
 3978600    223.14952   -249.38911    216156.16    -22124.81    1413.4785   -23538.289   -391.69725    5382.2074    38.283075    38.421144    23.831612 
 3978800    226.75928   -81.389823    216156.16   -22105.457    1436.3435   -23541.801    334.37183     5379.785    38.285041    38.420646    23.832829 
 3979000    227.76283   -207.82244    216156.16    -22131.66    1442.7002    -23574.36   -248.43112    5380.9685    38.285454    38.420326     23.83573 
 3979200    224.61985   -185.51634    216156.16   -22154.974    1422.7919   -23577.766   -126.68893    5381.3423      38.2862    38.419755    23.831744 
 3979400    222.47632    -183.4871    216156.16   -22115.826    1409.2143   -23525.041   -131.49121    5380.9835    38.287541    38.418896    23.826857 
 3979600    226.75891   -174.80588    216156.16   -22142.603    1436.3411   -23578.944   -128.11411    5382.0051    38.288206    38.418155     23.82141 
 3979800    225.16373    -175.6285    216156.16   -22130.364    1426.2369   -23556.601   -119.79613     5382.734    38.289427    38.418601    23.823866 
 3980000    222.89415   -177.03554    216156.16   -22146.129    1411.8609   -23557.989   -94.839645    5380.7347    38.289333    38.417659    23.825205 
 3980200    224.92726   -180.14487    216156.16   -22151.462     1424.739   -23576.202    -103.3366    5381.0845    38.290985    38.417517    23.822969 
 3980400    223.56506   -117.40326    216156.16   -22115.931    1416.1106   -23532.042    167.86482    5380.9937    38.291376    38.416864    23.827579 
 3980600    230.35354   -101.75662    216156.16   -22064.663    1459.1103   -23523.773    269.99121    5380.3435    38.292782    38.416138     23.83053 
 3980800    227.96644   -179.33927    216156.16   -22107.589    1443.9899   -23551.579   -113.17177    5380.7621    38.292533    38.416563    23.825353 
 3981000    226.48637   -259.52766    216156.16   -22132.688    1434.6148   -23567.303   -492.49523    5383.1872    38.291996    38.415121    23.828129 
 3981200    229.22287   -217.62652    216156.16   -22121.964    1451.9484   -23573.913   -247.34204    5380.6319    38.292851    38.414543    23.828843 
 3981400    228.16859   -81.280353    216156.16   -22102.416    1445.2704   -23547.686    317.11816    5380.2933    38.294445    38.414511    23.825765 
 3981600    224.21149   -116.85925    216156.16   -22160.535    1420.2052    -23580.74    204.42137    5380.3749    38.294369    38.414892    23.817129 
 3981800    221.06374   -243.81743    216156.16   -22147.212    1400.2666   -23547.479   -392.11961    5381.6449    38.294636    38.414184    23.821961 
 3982000    223.12097   -216.81171    216156.16   -22185.227    1413.2976   -23598.524   -264.15146    5381.7466    38.295511    38.414934    23.824092 
 3982200    220.30207   -173.19869    216156.16   -22234.342    1395.4421   -23629.784   -71.150714    5382.3013     38.29637    38.414977    23.820824 
 3982400    222.74861   -179.28994    216156.16   -22146.685     1410.939   -23557.624   -100.28048    5379.8839    38.295297    38.414446    23.817351 
 3982600    219.03485   -140.82119    216156.16   -22161.865    1387.4152    -23549.28    38.032542     5381.229    38.296399    38.414681    23.820215 
 3982800    224.87138   -222.98063    216156.16   -22111.567    1424.3851   -23535.952   -313.60286    5381.1776    38.296977    38.414246    23.820037 
 3983000    229.65282   -148.37249    216156.16    -22084.06    1454.6718   -23538.731    13.979975    5379.4339    38.296786    38.413433    23.826253 
 3983200    230.19383    -168.6881    216156.16   -22115.001    1458.0987     -23573.1   -91.481138    5379.8075    38.297903    38.413444    23.826168 
 3983400    226.11005   -282.11449    216156.16   -22074.263    1432.2311   -23506.494   -522.78564    5380.0807    38.297373    38.413564    23.823858 
 3983600    224.19277   -169.85795    216156.16   -22135.115    1420.0866   -23555.202   -30.617491    5380.3092    38.298522    38.415383      23.8179 
 3983800    223.32305   -131.53378    216156.16   -22131.074    1414.5776   -23545.651    166.36536    5379.7202    38.299473    38.416325    23.823186 
 3984000     219.9177   -161.16967    216156.16   -22130.518    1393.0074   -23523.526   -41.427529    5379.4665    38.300916    38.416026    23.822798 
 3984200    226.84837   -135.68488    216156.16   -22105.383    1436.9078   -23542.291    90.107979    5379.7348    38.300981    38.416788     23.82502 
 3984400    223.44923   -236.12083    216156.16   -22150.826    1415.3769   -23566.203   -330.90313    5381.1247    38.301091    38.417297    23.814419 
 3984600    222.69645   -181.72409    216156.16    -22147.53    1410.6086   -23558.139   -83.437955    5381.1862    38.302992    38.418132    23.818563 
 3984800    222.59139   -113.33508    216156.16   -22121.251    1409.9432   -23531.194    201.28576    5380.5303    38.302223    38.418139    23.818613 
 3985000    222.31664   -326.15908    216156.16   -22165.809    1408.2028   -23574.012   -726.62063    5380.7311    38.302903    38.417849    23.822836 
 3985200    218.64491   -200.39154    216156.16   -22120.088    1384.9453   -23505.033   -147.11527    5380.8147     38.30306     38.41776    23.828278 
 3985400    222.91252   -254.66608    216156.16   -22123.747    1411.9773   -23535.724   -381.38077    5381.4472    38.303641    38.416754      23.8273 
 3985600    229.38114   -125.00457    216156.16   -22080.463    1452.9509   -23533.413    110.50785    5379.7408     38.30526    38.416425     23.83073 
 3985800    221.76587   -232.48401    216156.16   -22099.877    1404.7141   -23504.591   -366.24885     5379.996    38.306412    38.416407    23.829305 
 3986000    233.63823   -300.30702    216156.16   -22024.461    1479.9163   -23504.377   -621.09447    5380.5045    38.308275    38.415501     23.83277 
 3986200    231.03094   -246.47331    216156.16   -22065.197    1463.4011   -23528.598   -340.59366    5380.0661     38.30967    38.414872    23.828224 
 3986400    224.87675   -83.308255    216156.16   -22158.419    1424.4191   -23582.838    327.04127    5380.3944    38.312011    38.413557    23.825201 
 3986600    223.67377   -75.653633    216156.16   -22126.263    1416.7992   -23543.062    370.18463    5380.4304    38.312892    38.412756    23.828435 
 3986800    228.36252   -255.54639    216156.16   -22122.452    1446.4988   -23568.951   -417.85274    5382.0141    38.312774    38.411093    23.830942 
 3987000    222.86396   -319.95737    216156.16   -22101.729    1411.6696   -23513.399   -685.28015    5382.1923     38.31381    38.410723    23.825305 
 3987200    214.80167   -178.57099    216156.16   -22195.917    1360.6013   -23556.518   -56.325547    5379.7201    38.314848    38.410438    23.824687 
 3987400    219.08103    -141.2102    216156.16   -22142.104    1387.7077   -23529.812    47.414562    5380.6001     38.31495    38.410338    23.832128 
 3987600    221.98561   -194.44362    216156.16   -22082.393     1406.106   -23488.499    -170.0093    5379.8447    38.316183    38.409407    23.829205 
 3987800    225.68775   -157.79724    216156.16   -22136.969    1429.5561   -23566.525   -17.440731    5382.3573    38.317405     38.40859    23.833204 
 3988000    221.80062   -296.92802    216156.16   -22091.785    1404.9342   -23496.719   -602.35917    5380.9854    38.317313    38.407296    23.835909 
 3988200    227.89367   -201.13023    216156.16   -22129.862    1443.5289   -23573.391   -175.51682    5380.6491    38.318196    38.407028    23.834957 
 3988400    225.63376   -189.08406    216156.16   -22105.197    1429.2142   -23534.411   -156.46071    5381.2301    38.317946    38.405553    23.833678 
 3988600    218.74033   -182.68626    216156.16   -22164.081    1385.5497    -23549.63   -136.62071     5381.504    38.317613    38.404589    23.840555 
 3988800     223.2914   -267.26649    216156.16   -22166.984    1414.3771   -23581.361   -458.27808    5382.5117    38.319018    38.404507    23.838455 
 3989000    234.18134   -245.06389    216156.16   -22086.659    1483.3564   -23570.015    -381.8089    5382.1817    38.320237    38.404649    23.841515 
 3989200    226.14601   -154.29514    216156.16   -22116.109    1432.4589   -23548.568    9.1057231    5381.0558    38.320448    38.403876    23.838534 
 3989400    226.05713   -85.237792    216156.16   -22159.701    1431.8959   -23591.597    277.44082    5379.7974     38.32046     38.40381    23.835194 
 3989600    225.44886   -175.71463    216156.16   -22068.787     1428.043    -23496.83   -93.742582    5382.5453    38.320947     38.40391    23.830543 
 3989800    228.58643   -246.04605    216156.16   -22086.928     1447.917   -23534.845    -379.8022    5382.6208    38.321651    38.404826    23.831056 
 3990000    221.27033   -176.66955    216156.16   -22148.759    1401.5752   -23550.334    -124.9255    5381.5146    38.321476    38.404583    23.836302 
 3990200    223.96937    -93.04132    216156.16   -22145.824    1418.6715   -23564.495    246.73951    5380.4892    38.321681    38.404764    23.838354 
 3990400    228.26469   -226.07814    216156.16   -22112.085    1445.8791   -23557.964   -267.44388    5381.1758    38.322917    38.403786    23.840098 
 3990600    224.72266    -211.4522    216156.16   -22154.233    1423.4431   -23577.676   -244.72724    5381.2057    38.323114    38.403656    23.831189 
 3990800    224.09583   -188.13233    216156.16   -22125.542    1419.4726   -23545.014   -122.03767    5380.8041    38.324116     38.40459    23.830667 
 3991000    227.80919   -255.59311    216156.16   -22083.263    1442.9938   -23526.257   -453.21135    5382.3974    38.323695     38.40496    23.833501 
 3991200    230.56933   -170.15715    216156.16   -22068.015    1460.4772   -23528.492   -37.999271    5379.4165    38.322895    38.405014     23.82835 
 3991400    229.51651   -131.28845    216156.16    -22067.09    1453.8084   -23520.899     99.93857    5378.9068    38.324321    38.406516    23.826479 
 3991600    230.42538   -203.23601    216156.16   -22118.477    1459.5653   -23578.042   -213.99227    5380.2425    38.324376    38.406239    23.839122 
 3991800    224.53616   -216.62684    216156.16   -22192.994    1422.2618   -23615.256   -281.64016    5381.3787    38.323791    38.406021    23.846638 
 3992000    223.81642   -206.09147    216156.16   -22133.816    1417.7027   -23551.519   -199.80246    5379.3153    38.325434    38.406665    23.839914 
 3992200    225.16654   -177.20451    216156.16   -22125.122    1426.2547   -23551.377   -73.363628    5380.4971    38.325334    38.407965    23.840483 
 3992400    225.02701   -134.23276    216156.16   -22130.257    1425.3709   -23555.628    78.591546     5378.731    38.326397    38.407857    23.846763 
 3992600    226.41965   -234.99661    216156.16   -22126.154    1434.1922   -23560.346   -352.27311    5379.6849    38.325856    38.407726    23.841046 
 3992800     227.2757   -189.65186    216156.16   -22128.385    1439.6146       -23568   -120.08377    5381.1098    38.325497    38.407422    23.845409 
 3993000    218.18561   -168.62785    216156.16    -22217.19     1382.036   -23599.226   -32.688825    5380.4424    38.324433    38.407645    23.843826 
 3993200    227.04655   -229.98094    216156.16   -22132.818    1438.1631   -23570.981   -298.34521    5380.4822    38.324464     38.40802    23.843907 
 3993400    226.77497    -224.1752    216156.16   -22091.088    1436.4429   -23527.531   -321.73694    5379.9058    38.324009    38.408558    23.838008 
 3993600    226.93888    -105.3761    216156.16   -22105.199    1437.4811   -23542.681    227.90486    5378.9527    38.323843    38.408981    23.837472 
 3993800    226.36911   -75.488668    216156.16   -22125.942     1433.872   -23559.814    353.84855     5379.551    38.324993    38.408582    23.841806 
 3994000    227.03547    -147.2587    216156.16    -22133.61    1438.0929   -23571.703    31.426683    5377.4369    38.325856    38.409116    23.845313 
 3994200    221.20571   -174.32658    216156.16   -22153.533    1401.1659   -23554.699   -92.529597    5379.2841    38.326241    38.410688    23.840461 
 3994400    225.17978   -302.66771    216156.16   -22128.313    1426.3386   -23554.652   -639.30038    5379.4272    38.326445    38.410575    23.839502 
 3994600    220.17388   -126.00851    216156.16    -22192.99    1394.6301    -23587.62     96.64647    5379.7889    38.326892    38.410579    23.833859 
 3994800     228.9057   -88.991743    216156.16   -22099.491    1449.9394    -23549.43    274.16889    5379.0845    38.328002    38.410835    23.832995 
 3995000     224.1067   -212.58071    216156.16   -22110.251    1419.5414   -23529.793    -229.4606    5380.2807    38.328504    38.410864    23.835092 
 3995200    222.02861   -218.91994    216156.16   -22151.318    1406.3784   -23557.696   -262.15767     5380.026    38.327923    38.410968    23.834817 
 3995400    221.35217   -233.59892    216156.16   -22097.822    1402.0936   -23499.916   -302.93623    5378.5963    38.328724    38.411408    23.838334 
 3995600    232.44917   -189.78683    216156.16   -22047.878    1472.3845   -23520.263   -159.83009    5378.1642     38.32944     38.41275    23.835372 
 3995800    229.64589   -95.280182    216156.16   -22077.699    1454.6279   -23532.327    214.14898    5378.9051    38.330381    38.411726    23.834727 
 3996000    233.48514   -198.96613    216156.16   -22016.809    1478.9465   -23495.756    -180.8617    5380.3683    38.330825    38.411389    23.830786 
 3996200    227.83285   -267.19046    216156.16   -22098.724    1443.1437   -23541.868   -465.23029    5379.2365    38.329405    38.411946    23.835931 
 3996400    230.38472   -142.38014    216156.16   -22131.958    1459.3078   -23591.266    38.363026    5379.7506    38.329827    38.411534    23.835324 
 3996600    227.03353   -160.65554    216156.16   -22109.026    1438.0806   -23547.106   -37.821577    5378.1977    38.329498    38.410864    23.833234 
 3996800    226.84989   -171.99218    216156.16   -22139.617    1436.9174   -23576.535   -54.231285    5379.7044    38.329118    38.410244    23.835738 
 3997000    237.02376   -182.03996    216156.16   -22033.898     1501.361   -23535.259   -109.21075    5380.9159    38.329796    38.409337    23.839253 
 3997200    223.85161   -185.18166    216156.16   -22092.185    1417.9256   -23510.111   -83.887407    5379.8457    38.329469     38.40804    23.836192 
 3997400    222.75186   -54.519471    216156.16   -22143.295    1410.9596   -23554.255    438.27911    5379.6004    38.330215     38.40829    23.838191 
 3997600    228.62262   -239.11526    216156.16   -22064.385    1448.1463   -23512.532   -356.61576    5380.6948    38.328562    38.408467    23.837822 
 3997800    220.46377    -292.2393    216156.16   -22194.389    1396.4663   -23590.855   -541.87042    5379.1673    38.327789    38.407549    23.837404 
 3998000    225.28781   -171.23613    216156.16   -22124.611    1427.0229   -23551.633   -72.401164     5379.904    38.327858     38.40757    23.838816 
 3998200    226.93328   -123.78742    216156.16   -22172.817    1437.4456   -23610.263    111.44648     5379.449     38.32693    38.407233    23.840054 
 3998400    233.62896   -232.98459    216156.16    -22041.22    1479.8576   -23521.078   -307.62205    5380.3609    38.327232    38.406532     23.84086 
 3998600    222.70114   -277.77754    216156.16   -22128.892    1410.6383    -23539.53   -496.45718         5380    38.326772    38.406941    23.830748 
 3998800    226.33899   -229.07686    216156.16   -22130.009    1433.6813    -23563.69   -325.46643    5379.6686    38.327973    38.408002     23.82924 
 3999000    227.64182   -200.60128    216156.16   -22071.203    1441.9337   -23513.136   -180.38413    5377.9739    38.327197    38.408212    23.827668 
 3999200    224.66712   -178.98017    216156.16   -22130.594    1423.0913   -23553.685   -83.714513    5380.6437    38.327277    38.408699    23.826272 
 3999400    214.92575   -216.66914    216156.16   -22160.065    1361.3873   -23521.453   -196.64231    5378.2372    38.328261    38.407782    23.825286 
 3999600    225.54549   -276.87009    216156.16   -22164.262    1428.6551   -23592.917   -514.43693    5380.8289    38.329593    38.407454    23.822676 
 3999800    228.86817   -123.99707    216156.16   -22083.794    1449.7016   -23533.496    131.44465    5379.2417    38.330205    38.407536    23.816831 
 4000000    226.77944   -74.437593    216156.16   -22081.015    1436.4712   -23517.486    346.30251    5378.6386    38.331307    38.408526    23.819027 
Loop time of 2584.79 on 128 procs for 4000000 steps with 9422 atoms

Performance: 1337.050 ns/day, 0.018 hours/ns, 1547.512 timesteps/s
96.6% CPU use with 128 MPI tasks x no OpenMP threads

MPI task timing breakdown:
Section |  min time  |  avg time  |  max time  |%varavg| %total
---------------------------------------------------------------
Pair    | 0.28268    | 726.42     | 1839.4     |2390.1 | 28.10
Neigh   | 2.2395     | 99.394     | 231.67     | 779.6 |  3.85
Comm    | 73.238     | 715.49     | 1485.3     |1702.7 | 27.68
Output  | 61.039     | 61.075     | 61.253     |   0.3 |  2.36
Modify  | 116.46     | 954.01     | 2420.5     |2863.0 | 36.91
Other   |            | 28.41      |            |       |  1.10

Nlocal:        73.6094 ave         146 max           0 min
Histogram: 32 3 8 16 5 0 4 16 23 21
Nghost:        618.500 ave         867 max         417 min
Histogram: 21 8 25 10 11 7 10 9 13 14
Neighs:         0.00000 ave           0 max           0 min
Histogram: 128 0 0 0 0 0 0 0 0 0
FullNghs:      7429.62 ave       16450 max           0 min
Histogram: 42 22 0 0 0 0 4 18 21 21

Total # of neighbors = 950992
Ave neighs/atom = 100.93314
Neighbor list builds = 424476
Dangerous builds = 0
write_data 		${DIR}/data.${NAME}_run
write_data 		run_3/data.${NAME}_run
write_data 		run_3/data.ibeam_cooling_3_run
System init for write_data ...
Total wall time: 0:43:11
