LAMMPS data file via write_data, version 29 Oct 2020, timestep = 50654

4260 atoms
1 atom types

0.0 78.752 xlo xhi
0.0 68.92587069519459 ylo yhi
0.0984904565747442 23.901509543425576 zlo zhi

Masses

1 18.015

Atoms # atomic

188 1 0.22579399658953242 10.5130665145692 13.696338182683693 0 0 0
3179 1 1.3186995537319743 0.6096172447787046 0.4105365383899702 1 0 1
70 1 5.354785060334867 2.1221625801483746 2.057524143472328 0 0 0
720 1 12.930709152238155 1.6458809471943774 1.1275918558169462 0 1 1
332 1 15.405615273008726 2.241267175584854 1.0499776587463652 0 0 0
3400 1 19.430524951306584 0.7833123564384066 1.5250121048195413 1 0 0
471 1 3.3482639680584425 22.500394180933053 2.1808026469849784 0 0 1
711 1 7.231884381667197 1.64559363361491 11.23166388878813 0 1 1
252 1 7.148394531254314 20.25205819057325 20.23210403267579 0 0 -1
123 1 3.627801488339129 6.893090145145658 2.5753011193688105 0 0 1
686 1 7.294303780134671 4.426133304877701 2.0914050098075387 0 1 0
101 1 7.646285664631259 4.2773362306693405 23.0676454036628 0 0 -1
1168 1 13.575018614976456 4.766875389669533 23.331553387948542 0 0 -1
82 1 15.479945152603614 4.881052682028734 1.769613245041107 0 0 0
1354 1 18.060391838337363 4.934938485301026 0.9236171030509581 0 0 1
723 1 1.9152625845665194 5.396941656531753 4.297197770624192 0 1 1
3474 1 2.522256460983812 9.462858819254194 3.3895233295273823 1 0 0
6 1 4.267763055367765 7.427928859952652 23.421472721247856 0 0 0
1229 1 7.348167520476291 10.309851334130856 3.0348919259726244 0 0 0
544 1 9.006823130105694 9.033395239089403 1.111691657671004 0 0 0
99 1 11.518585299975989 7.865753161444541 1.7989821745683552 0 0 1
875 1 12.373572783007555 7.097921324426101 22.78861799794207 0 1 -1
1090 1 13.967181987360169 9.191643121749962 21.92854695537648 0 0 0
1360 1 18.258138101214875 7.59176555980915 0.9931745784126614 0 0 1
49 1 1.054266406441191 11.831801580862164 2.7233665240894696 0 0 1
392 1 4.78413216222855 10.639170948206164 1.9464088956578938 0 0 0
525 1 13.760869286809655 9.46773950956251 2.0055242108479785 0 0 1
42 1 16.15927097260969 8.940987378476802 0.2304431775840055 0 0 0
1365 1 17.508196843592533 10.91470125297942 23.234927105822873 0 0 0
315 1 3.901222073728834 13.481784041239345 1.9555342139717622 0 0 0
219 1 4.4396326418601 14.55452105177649 23.142861390675783 0 0 -2
30 1 8.916939673355008 13.504327824153728 2.066953883026536 0 0 0
182 1 13.06647950211378 12.02456730091988 2.0755597312035383 0 0 0
3293 1 11.879298494171366 18.44998679897471 1.2956380617158907 1 0 1
1167 1 14.58453645238066 13.668191311029595 4.018783657102359 0 0 1
3212 1 1.1065992623286927 15.964265361978567 3.321844637571767 1 0 1
638 1 3.428388960998656 18.22882247923073 2.6677802057273814 0 0 0
3204 1 5.7163629574222785 16.584376273207663 0.8631867314379024 1 0 1
1252 1 3.7421250769710896 18.13594359314758 23.62154034008003 0 0 -1
3413 1 9.807962162688996 16.282098221406414 2.388318319614499 1 0 0
117 1 11.13963301332585 20.71571561887531 2.382462827954006 0 0 0
1103 1 8.210330161499675 18.03166868197621 0.7609820090965624 0 0 1
1327 1 14.628002385685123 15.99047050562085 2.5488110736157914 0 0 1
1388 1 12.297758832697445 17.0027175058406 3.9561457236758812 0 0 1
1122 1 16.75209077366276 14.574324604630394 1.1510963367214544 0 0 1
167 1 1.5694530337308203 20.702994483653836 1.5862857165223607 0 0 1
228 1 8.378119393987786 20.948983505510217 1.2258150842810331 0 0 0
3519 1 2.312106382614642 10.079472746233714 15.527639972413331 1 0 0
265 1 0.9187725406145395 18.59032774896414 23.164668293400407 0 0 0
1261 1 15.743367508126735 18.621354372017958 3.2402106812915497 0 0 0
507 1 17.484045316674194 20.225919220434534 1.823191792330662 0 0 1
93 1 19.056649345400523 16.10767685146524 0.903222347971209 0 0 0
2063 1 19.31270111845251 0.3541614734339941 16.720337616697925 0 1 -1
3391 1 1.0402310605116307 1.2544988872674525 8.015035795269121 1 0 1
257 1 5.122448079547508 1.0139702831582909 6.43932383936841 0 0 0
86 1 11.759111335406555 0.26749239381306816 13.333377201228682 0 0 0
225 1 9.298494274125337 3.524649480965859 3.8010471472378597 0 0 1
325 1 12.119555216349346 3.0066606204765804 3.1426540789490325 0 0 1
267 1 12.363448860625038 1.3908188895564086 5.515159941519888 0 0 0
865 1 17.669115583977856 1.297875288295773 4.66698394234632 0 1 0
3457 1 1.2980601639336826 0.10569669649956043 10.594416583148892 1 0 1
828 1 2.3702037692123796 2.5936119581874286 3.463109499028818 0 1 0
728 1 3.6913735881136804 13.125733152155757 19.871297904091353 0 1 0
822 1 5.7222275909620945 5.920457166742074 3.962664650294193 0 1 1
3257 1 10.759081339289311 4.7628881082362815 5.777662829858902 1 0 0
45 1 12.740408351327455 5.656118724353202 2.9295875779231855 0 0 0
1223 1 16.699765120013325 4.117507733940621 4.634075439984739 0 0 0
251 1 15.85551108740486 3.135760837759935 7.306033403573477 0 0 0
160 1 13.73570898491193 5.006686879110297 6.673046882369621 0 0 0
1924 1 19.34908599295955 4.693909074496634 3.531106084707952 0 1 0
138 1 2.1464626990846805 10.525282047765048 6.076762678683818 0 0 0
28 1 10.05191950363425 7.144328361318932 4.512373776500125 0 0 0
279 1 7.23325783306874 8.120551036971282 4.8254102175543645 0 0 0
164 1 11.631417910554045 9.223018228438757 5.548099347912753 0 0 0
1248 1 14.778311706709735 6.666359103331961 4.613465902018429 0 0 0
1056 1 17.76962681302994 7.011430884592728 5.071479021149888 0 0 0
841 1 19.105736620285356 8.748231705747953 3.308185989133864 0 1 0
897 1 10.860181149494993 1.9399388596002112 7.817906187532085 0 1 0
1078 1 6.38115781583349 13.538008242250884 3.054007890696813 0 0 1
552 1 7.102120155243312 12.113767163142931 5.497799990406659 0 0 0
88 1 9.848650448205866 11.10869695621502 6.033695191146256 0 0 0
426 1 14.022821235472739 9.69556840567339 4.693450974684624 0 0 0
1825 1 14.81257384955486 10.877702730382545 6.997482336219645 0 1 0
1200 1 19.164875858230555 11.085029574117675 5.015958170491032 0 0 0
157 1 3.274562933417254 15.586472531278895 5.094701795344473 0 0 0
126 1 8.195222018008511 16.72684861306013 4.631689611665277 0 0 1
484 1 10.701042350626384 12.75167318476974 3.916230416727058 0 0 0
581 1 13.407499783728207 13.588106222179263 6.56518258562813 0 0 0
1096 1 17.108618463883943 12.44395641113793 2.98193863236818 0 0 0
1291 1 18.436234421600073 14.559539990036258 4.484494132500243 0 0 0
223 1 1.656062107903446 18.253486514320176 6.176495881881401 0 0 0
181 1 5.758545279681206 16.146060687061276 3.6579245499103563 0 0 1
3655 1 6.491840729075752 17.10496291405771 7.102180036761113 1 0 0
1158 1 10.916726730861443 14.863257028197673 5.616164441727409 0 0 0
478 1 11.597864455486617 20.511937422099084 5.127575307798419 0 0 0
1527 1 13.51392150424882 17.636673545502425 6.5248168987907835 0 0 1
579 1 15.368900949638999 15.535272247992355 7.559028701991824 0 0 0
476 1 16.580999383411836 16.282487438754572 5.153122331199175 0 0 0
657 1 19.1234860219418 21.817164960661792 10.438773586910406 0 0 0
650 1 5.533980379671769 20.72482486652697 2.034864539386101 0 0 0
856 1 2.3042195338993334 0.5463616105498355 5.604235926348554 0 1 0
236 1 19.376099119855034 5.42110328972435 11.67651880204335 0 0 -1
3395 1 0.14175127231874907 16.050889834236994 0.44549471799815743 1 0 1
656 1 14.28891151992391 19.949054606439596 5.105128427684282 0 0 0
371 1 14.962569469603112 22.232331908593654 6.554817653702129 0 0 0
97 1 18.429539645034627 18.6623776271395 4.64493993289672 0 0 0
4171 1 2.2690602670399715 3.9764832861194295 8.75292778039651 1 1 0
862 1 16.859026234199465 0.16032275890562012 2.3033841086376876 0 1 0
1099 1 7.965263093219557 3.049572025846373 6.466048760230833 0 0 0
283 1 12.574325367638925 22.936686697921154 8.136821856927401 0 0 0
864 1 9.76469161760124 3.0838857312416743 10.838784348478361 0 1 0
871 1 16.060839450963716 1.3247856397924815 9.770015598571797 0 1 0
1094 1 19.50097948806474 18.743765399986238 12.223712686340665 0 0 0
912 1 1.5164047259424829 1.2893164695224915 17.29352862538838 0 1 -1
298 1 1.5212559641639614 8.255855760805986 7.6105486365001545 0 0 0
3192 1 5.216252585928614 3.9236188862026027 5.905160091263246 1 0 0
5 1 6.446842872180803 4.810931950089425 8.785708790480497 0 0 1
261 1 9.263385077157306 4.623558310784465 8.41123489732299 0 0 0
132 1 10.082834492890498 7.774250129134024 9.275855102124222 0 0 0
48 1 12.314614227271461 4.395910956326288 9.148513497030104 0 0 0
331 1 18.56448286031844 2.319251171542643 10.43533264494953 0 0 0
27 1 5.3802601076980565 7.017722321922604 7.322214643704993 0 0 0
220 1 4.208404480585212 10.646190559520713 8.110960663833412 0 0 0
1387 1 12.441281462930224 7.428220172714012 7.718201054057042 0 0 0
54 1 14.709504619466236 8.543053327843625 8.604757115208585 0 0 0
667 1 16.93986814499271 7.198663285996383 7.964355769450391 0 0 0
1131 1 17.38915767456818 4.732101255326749 9.02633150418588 0 0 0
258 1 0.05483200574635422 12.147541494210826 6.691355498634109 0 0 1
3406 1 0.5559206844991251 13.166906339396363 9.005292847931042 1 0 0
3294 1 4.730894528939254 13.28543756854903 6.199575907159186 1 0 0
78 1 6.717768797134201 9.835694882596169 7.021964868570797 0 0 0
174 1 10.187515804572824 13.067992098270611 8.2677252594538 0 0 0
1267 1 17.49893479879639 11.399387228229052 7.2147186411967485 0 0 0
77 1 13.404752425172045 12.06322280396892 9.456009720814562 0 0 0
2099 1 18.29284502467656 9.534147793642969 8.897373778075037 0 0 -1
3531 1 1.231039062621123 15.862378620461454 9.206143710130778 1 0 0
3281 1 3.5532497964492773 16.839747963300233 7.865415239514764 1 0 0
129 1 4.708150723990998 14.528368593976612 8.471926442037475 0 0 0
168 1 8.321200332040206 14.443658284554477 6.874754099937859 0 0 0
1337 1 17.773933434792664 14.061523098189744 7.958050702176744 0 0 0
22 1 1.657959305304537 18.86909696784767 20.368817286156414 0 0 0
91 1 5.12657147126359 19.918835701928053 4.794334412355326 0 0 0
151 1 8.497239423068548 17.391614922200766 9.578030746079548 0 0 0
133 1 8.657568274597272 19.184513914314184 5.696407520320633 0 0 0
322 1 11.054344439036402 18.60596875587863 7.467728898517596 0 0 1
130 1 16.646401240134516 19.070140507455097 6.890773944114374 0 0 1
296 1 18.634432173059032 22.88329689858124 6.3438828139851475 0 0 0
139 1 2.513659232755083 22.370851285778926 15.221927526787207 0 0 -1
3299 1 2.8241696572091386 20.772429072651903 6.393792838549136 1 0 0
324 1 4.103035991288989 22.493714601649003 21.964351646725802 0 0 -1
242 1 6.465678443194325 19.91388799757603 8.015809200857653 0 0 0
3464 1 4.069127934167238 21.346088128502853 8.672025521744144 1 0 1
1093 1 18.107650782483077 8.548069349699963 17.697472868045814 0 0 0
1305 1 17.204514822053593 20.026435672421044 11.544062794897716 0 0 0
284 1 16.44170657476894 0.15475744120455498 6.909680810292002 0 0 -1
3530 1 1.3033156291415455 7.698114731314391 10.692716093871937 1 0 0
292 1 15.047177630160501 18.27778876398066 20.49953418640661 0 0 0
729 1 3.9323144988398573 0.6849589404138365 11.027385251050923 0 1 0
869 1 8.107627691843408 0.7715445351004692 2.50894312229053 0 1 1
1039 1 11.259415298937293 0.06811802776333374 10.523316151401081 0 1 0
170 1 7.685141500026814 3.6789297671373586 13.386030162358075 0 0 0
570 1 0.6179196241358209 18.791126486945007 16.62822242152432 0 0 -1
605 1 18.67752765782532 22.255111654364043 21.82687306463144 0 0 -1
691 1 13.20450613808739 2.669720086446447 13.437273722897478 0 1 0
1395 1 17.81264158625215 18.357133966531155 23.5335137973448 0 0 0
161 1 1.95370989014511 4.3351017570503565 13.956662774790534 0 0 0
287 1 4.443634954644066 3.530454055944974 10.70045677943524 0 0 -1
3449 1 4.859765599393202 4.186601912170063 13.509271482449757 1 0 0
226 1 7.626886079080609 5.531501135424777 11.392548346998526 0 0 -1
1177 1 10.398557649208783 7.023610507030388 11.904206357814953 0 0 0
4246 1 10.840029099118896 4.345540433787412 13.378495712840403 1 1 0
928 1 14.294315414187801 3.172080941771611 10.787136743283527 0 1 0
775 1 1.7668860490494693 7.167082223901943 13.51216724698539 0 1 1
305 1 4.660875316128124 7.279105488490631 14.084549641379784 0 0 0
159 1 3.8683360386143004 8.42496066219445 9.676075127660202 0 0 1
233 1 7.667958552858724 9.334097194913639 9.422799735982903 0 0 1
210 1 8.595726874542002 8.663179509477356 13.177238039459578 0 0 0
1060 1 14.933432579457907 8.232417641708825 11.220620338193262 0 0 0
143 1 15.928904610237808 5.430070639476898 11.54282370671819 0 0 0
473 1 3.0728818137431015 12.382335875947938 9.825755815583745 0 0 0
89 1 8.67549525852687 11.988545425408413 10.185941959148018 0 0 0
299 1 6.758174484518994 13.08922009006403 11.863264718017312 0 0 0
1344 1 11.692005719215377 10.173259642948572 10.372547388317463 0 0 0
1355 1 15.521353579483897 11.88437610799189 11.113741509804976 0 0 0
584 1 17.449776336735937 9.637806332359572 11.385470627271959 0 0 0
597 1 6.477383739962589 22.3784553914362 5.251574064117168 0 0 1
377 1 10.977572992874338 18.97309769903162 22.339613212876444 0 0 -1
125 1 3.8231450202675794 13.671144875654885 12.139820904766898 0 0 0
243 1 2.8854686828164233 16.12089954865136 11.26318938290669 0 0 0
1666 1 7.290223835287008 14.748252170392613 9.521491745034169 0 0 0
80 1 14.083528506131007 13.285467347248158 13.090480910680762 0 0 0
3438 1 12.111914996222138 14.734323789487378 9.012229548894888 1 0 0
413 1 16.32275907825484 17.117197568482343 13.40395985785667 0 0 -1
221 1 17.1781080419311 13.99253294973234 10.560206900950194 0 0 0
408 1 13.190623190073305 22.063033020542456 19.584284565386973 0 0 -1
169 1 0.7993709292501268 16.43049795314278 13.192086190270532 0 0 0
3187 1 5.202451677881279 17.740405031271237 10.959802799291635 1 0 0
163 1 11.352447189749109 16.93517966065423 10.24402554521244 0 0 0
191 1 13.210692329887701 18.7493649670584 11.132067103413709 0 0 1
378 1 13.554408330796914 17.754781386447274 13.84129281853912 0 0 0
1217 1 17.50052388168432 16.522053147317386 10.954078997013351 0 0 0
566 1 18.768521224515037 19.267354223723107 19.689411917387865 0 0 0
3507 1 1.6998400014239103 20.958119223425 12.84196832898389 1 0 0
3456 1 3.6251116335012323 20.037176796529664 10.84386762131484 1 0 1
1095 1 5.540059313247611 21.54123373034318 12.182111653123748 0 0 0
202 1 7.430435196926083 19.61940995289062 10.91206766483915 0 0 0
627 1 11.701282821231272 20.72199582870682 9.630012370152787 0 0 0
119 1 9.10101516411338 21.617704258729965 9.858814876295375 0 0 0
1678 1 15.65322740948325 17.976052903393533 9.44230015208043 0 0 0
1081 1 16.77151221327849 21.23093013112457 8.548432187955084 0 0 0
285 1 0.28030394617175175 19.096432925389397 3.229336342424897 0 0 0
1117 1 15.765645153269192 20.435758263058847 22.358046894580088 0 0 0
3167 1 3.245283682323833 1.7194188677626538 15.450016697151423 1 0 0
576 1 8.212520723734999 22.38748324317758 7.588248713868641 0 0 1
118 1 9.607754679253944 0.37974600019604476 15.119525667700978 0 0 0
293 1 9.94598734571546 3.1175708384464116 15.907050160546603 0 0 -1
107 1 15.925510419113216 2.5603737657052053 14.326925869486521 0 0 0
383 1 11.725768401540188 21.894497064914507 15.321034539745964 0 0 0
3429 1 2.236550703493966 4.993471096277026 17.002822812656994 1 0 0
4206 1 5.413038957250567 3.317797788676853 16.436845866226726 1 1 0
303 1 8.240840732880894 4.67701421177847 17.697336543070406 0 0 0
34 1 12.168507828346293 6.59577703179903 14.129528106546699 0 0 0
112 1 14.772781579578417 5.593636325711837 14.137517598165863 0 0 0
3274 1 0.37174358848540295 13.43872516971214 19.456806574219492 1 0 0
137 1 3.383158998191282 8.384373845398535 19.043882342367965 0 0 0
3398 1 5.794025085423129 9.096882598180837 17.858284340587534 1 0 0
3271 1 6.5344437975649665 6.946023495017312 16.136863723408315 1 0 0
231 1 5.913104029901811 7.992521096731106 11.57122555141514 0 0 0
108 1 9.895483950030489 11.015380022864392 12.418257241695287 0 0 0
26 1 11.505620347487152 7.487483809323359 16.607716875705634 0 0 0
262 1 13.971734883892053 9.386963074224274 17.33659123902648 0 0 0
245 1 12.81412133292542 9.282450399192687 12.543614329671351 0 0 0
463 1 17.228453278707033 11.190001183381213 14.666144345251166 0 0 0
1375 1 16.493964094115473 8.466160081206914 15.574109314500182 0 0 0
8 1 17.886683552751133 6.8312149666343736 13.632604821611237 0 0 0
52 1 1.5417605014583733 7.546273232219005 16.665832626619846 0 0 0
3463 1 5.010811859321508 10.412001135373082 13.467499222422735 1 0 0
304 1 7.947570225717146 11.815000999632378 14.579289056567138 0 0 0
230 1 11.13392877319215 13.492263263143167 13.888943123096542 0 0 -1
21 1 11.826460257988183 10.704322385435624 15.117963923998573 0 0 1
561 1 14.494252440105626 11.794369904320366 15.361266581333775 0 0 0
1278 1 17.95499685772447 21.197557772788432 15.615386525942908 0 0 0
1068 1 2.4832255476460685 12.90726554965817 14.716211809589348 0 0 0
241 1 2.799093806062103 10.65675607311629 11.979332836588908 0 0 -1
625 1 2.8494049587356933 14.840009384545601 16.563671949208253 0 0 0
196 1 8.127380859167273 14.925101822353323 13.383782287575617 0 0 0
294 1 10.841176581102735 13.881626346575793 16.6624425590414 0 0 0
198 1 12.356071022655671 16.097543425721657 15.970730732641014 0 0 0
1317 1 15.91592283890669 14.687635300690852 14.644142344492346 0 0 0
1382 1 18.68323881358546 14.13841696938721 14.804826533681195 0 0 0
359 1 2.4526487516119966 17.148546974008347 15.458306528883146 0 0 0
41 1 5.082305056983221 18.332339236987096 15.641973036686363 0 0 0
114 1 6.265404073912102 17.134277336248434 13.514758575564688 0 0 1
38 1 8.858642863789948 18.3256475096017 13.300960779588264 0 0 0
376 1 10.978549175235552 16.388574577559236 12.936711219355633 0 0 -1
1608 1 14.745342906549114 19.766711226224178 17.576461771307734 0 0 -1
68 1 19.390534244857584 16.940378521481485 14.696881421058734 0 0 1
3454 1 5.040877590927254 20.841551698001748 14.604802192181063 1 0 0
368 1 7.435027024192944 21.626724709516296 15.705261821971334 0 0 0
87 1 8.743694276190649 21.35978418880149 18.26941319693031 0 0 0
3186 1 0.9812993968963416 5.416868284823095 21.637987346184286 1 0 -1
1210 1 9.476187227374812 21.311410818770206 13.83926271921603 0 0 0
3704 1 1.2834386410247116 21.791103978975897 21.555595076983227 1 0 0
1247 1 14.053641773620306 20.284397486214957 14.819689079927967 0 0 0
599 1 14.309003606626733 18.777848552149873 0.5504989688915412 0 0 0
212 1 16.19439004817308 21.474374801679193 13.606693910701653 0 0 0
273 1 1.3769478302061828 1.5712377242847726 20.143733658954563 0 0 0
3244 1 5.451085840023405 0.6548094168703361 17.733062996835137 1 0 0
238 1 3.824213181531288 3.155346240886634 21.192126444317488 0 0 0
281 1 9.769021355003325 0.6836032180453556 19.56443250135035 0 0 0
791 1 12.694179357911537 2.021276080386072 16.351476098515516 0 1 -1
1002 1 16.91020680745926 1.3309085656755155 18.335306219861852 0 1 0
3236 1 12.572726896073917 21.799194384930146 12.482898452612039 1 0 1
3362 1 0.7043292698564073 3.923041458091305 19.310126913555553 1 0 0
120 1 4.696109950811202 5.599375295126914 18.025753944332955 0 0 -1
94 1 6.389848469044166 4.935965119558273 20.274554295275923 0 0 -1
788 1 7.564736584602573 2.2351162257212556 18.945964397198285 0 1 -1
877 1 12.635809718051581 3.573331002501837 19.09546727043423 0 1 -1
3397 1 10.941085567705253 5.507182929354966 18.3052176539171 1 0 0
3498 1 15.3268636954035 3.0657744250236783 17.00438403480941 1 0 0
194 1 16.70857957309892 5.502871709429185 16.753767717804596 0 0 0
3421 1 9.101172244508511 8.381992686682302 15.854546712844275 1 0 0
29 1 7.633002491046144 7.258194905352927 21.47625047651289 0 0 -1
47 1 16.75254167197714 5.8958056909669345 19.470773620176043 0 0 0
345 1 13.913771419220973 22.629606494646588 23.361533958059006 0 0 0
3 1 3.574142245893433 9.967136580410846 22.943273373168577 0 0 0
66 1 8.064358107009172 14.358781959070328 16.254413907876735 0 0 -1
280 1 5.418300101931361 11.24161277517454 16.038319976705004 0 0 -1
3319 1 8.901484402111254 10.697738394994444 17.163925894924837 1 0 -1
135 1 11.871270525231546 10.904122963133306 18.101078130820433 0 0 -1
192 1 15.784241825661725 11.277951343151019 19.516861141654708 0 0 0
1350 1 19.203164640878136 5.795530256449804 20.16529296859522 0 0 0
3346 1 1.3194101487589986 15.841094672954304 18.565459802656655 1 0 1
3536 1 5.353067170775297 13.77223838755363 17.332930126030753 1 0 0
1319 1 8.044852540540306 15.737885453598564 20.5928526980787 0 0 -1
1184 1 8.925133648681232 16.462295516666124 18.050677637152038 0 0 0
1153 1 12.621788914827418 13.508645274084854 19.103217374208867 0 0 0
217 1 16.677740462753757 12.802046965194911 17.38243698182816 0 0 -1
23 1 14.731634878011084 14.935211319787573 17.157168905303216 0 0 0
1300 1 18.445539108358812 13.27489018750883 20.72522493633378 0 0 0
1441 1 18.03406508416767 15.998430017421178 19.732744503142563 0 0 0
85 1 5.780975864472833 16.17191418717647 19.174352766771676 0 0 0
69 1 5.75504379820124 18.972308956629075 18.419435646829104 0 0 0
3374 1 8.243825691881684 18.67536218910239 16.4467087382905 1 0 0
3479 1 8.395645065194062 18.21032651934953 21.795909409230767 1 0 -1
180 1 11.669807735005861 20.54480495601705 17.820090719847208 0 0 0
362 1 12.360934281359947 17.177999773208438 20.73890514008438 0 0 0
76 1 11.430929024411874 17.68388102971116 18.186857079520244 0 0 0
1156 1 16.401561646080424 17.253227442869647 17.90895388946413 0 0 0
214 1 1.4615524121623515 21.238812748864273 17.6073478329533 0 0 -1
184 1 3.531367931201213 20.72133115964524 19.221705422041424 0 0 0
173 1 1.463791249869317 9.948340878851706 21.028665902998032 0 0 0
529 1 16.568344927854696 21.147476407739276 19.702757813605334 0 0 0
1633 1 18.457813724079507 18.552418107828952 16.676826712886392 0 0 0
394 1 11.288118303218829 21.80006108693173 22.032831617604725 0 0 -1
62 1 6.410440515116873 1.9466510898286453 21.819369530331528 0 0 0
4196 1 3.3376221461936053 2.6732541042757587 23.894016113478134 1 1 -1
4177 1 9.125369883485638 1.709734023176874 23.77133711143657 1 1 0
3980 1 11.937872913755736 1.646742389774513 20.553315635278658 1 1 -1
3443 1 2.7628580324008616 5.8643687090581125 6.891362126572359 1 0 0
1003 1 11.340998320242976 2.9559009843172794 22.961759167866088 0 1 -1
857 1 18.375484336939476 3.1168128887173534 13.006359499699402 0 1 0
1466 1 19.681020818827175 20.034934284858338 6.79192649414251 0 0 0
290 1 16.78284103204944 2.42010227946796 20.81267301955399 0 0 -1
885 1 15.847741529713847 0.34810552073505174 22.66484517565517 0 1 0
115 1 2.231304265625354 5.390412796306435 0.4171121448708776 0 0 0
195 1 14.89250229285959 4.383844473981394 20.91596630294849 0 0 -1
652 1 5.247662937232085 20.251959047632585 23.001461130897873 0 0 0
55 1 1.9092942148464611 12.304529787682485 23.588625172991154 0 0 0
3251 1 3.5051582438692637 6.196053066056115 20.94737406098621 1 0 0
1179 1 7.065162850066104 9.609137604532625 20.153954543454503 0 0 0
106 1 7.087742980548956 7.220740289978542 0.3064904138255351 0 0 0
1086 1 10.51302941017376 6.966340737437228 20.72811178604362 0 0 -1
1384 1 15.43074901141476 8.425537398404076 19.467738635429008 0 0 0
1146 1 17.975336363946518 9.373487979163418 20.925326181608757 0 0 0
288 1 7.111121418543736 22.701457212981836 21.431010386117734 0 0 0
141 1 5.366169406460467 11.311642866216078 21.28345122766381 0 0 0
330 1 9.351266796682081 10.477652435978396 22.227720397415027 0 0 -1
20 1 11.482323825700263 9.669423739660777 20.631162974228037 0 0 -1
1642 1 16.124298520517254 13.161085280994973 22.46967033323649 0 0 0
100 1 13.571240674151028 12.232425148676322 21.274061654572872 0 0 -1
559 1 1.2922515949788393 14.510327480843923 21.914808331839016 0 0 -1
417 1 0.8354749472100055 22.57119381324979 5.9330226764071385 0 0 0
302 1 7.008618798266213 13.598088055542414 22.152133959869584 0 0 0
3380 1 9.822850631268906 13.034170091481707 23.090894737952357 1 0 -1
17 1 10.756461155276233 14.723763848396219 20.787509142586522 0 0 0
514 1 12.806531898652379 13.528211185757339 23.679964209631407 0 0 -1
295 1 13.986002161584466 16.052320422580465 23.44620942910392 0 0 -1
1379 1 16.496170082592517 16.42565895175003 22.26468559916624 0 0 -1
277 1 3.269937439790535 16.321340423104008 20.7289972691375 0 0 0
892 1 19.46583789826358 2.986980212966882 21.00277783576667 0 1 0
601 1 15.779203297272323 22.602128260143402 2.111193901479846 0 0 0
418 1 9.208733942935233 22.924069239686453 23.230445631457364 0 0 -1
470 1 19.68414707067492 17.825225243477984 9.064218049306715 0 0 0
50 1 19.35303509891983 5.275490291416038 15.470454147116667 0 0 0
3670 1 1.2103295528381157 10.8102599509032 18.220840332557138 1 0 0
1236 1 19.684184590752587 7.456083698371351 22.30019416402 0 0 -1
103 1 0.16420527963048995 5.331803450011439 9.91173859976253 0 0 0
33 1 8.071472535614108 0.1879516352351431 7.220714932002049 0 0 0
1579 1 19.27166406468561 14.146748906820468 17.672659928481142 0 0 0
446 1 1.1533306188821006 22.62027935774019 10.6739960805272 0 0 0
37 1 8.614355999097233 22.553610472058985 3.766377330705176 0 0 0
1206 1 19.440121957709575 10.795298022622504 16.73852377506418 0 0 0
187 1 19.522907099624533 13.295220665407674 11.982969503969542 0 0 0
662 1 12.880294421920738 22.81138653525183 2.1612488337574907 0 0 1
1301 1 16.47440209503743 22.916596091270044 17.394845075934224 0 0 0
931 1 5.921503813236983 0.07786562482013439 0.12031075190730164 0 1 0
794 1 4.12118242179451 0.03988939226545086 20.195490426856402 0 1 0
3569 1 0.29097319161998475 41.114523376686584 23.044464917761058 1 0 -1
550 1 4.363104288609888 24.12249697568601 0.26630376531238126 0 0 0
480 1 6.952976460275959 24.798266077658234 0.25188141939288516 0 0 0
504 1 0.205015188365043 33.00670413413472 20.79903038379863 0 0 0
3883 1 10.154229038485584 26.78345774018281 3.296253534890209 1 0 0
309 1 12.017845454941247 24.646681758098318 4.009934164753567 0 0 1
1609 1 16.3233198588225 26.062699218619738 4.492629633516778 0 0 0
3660 1 0.5874461866898033 31.5858802455648 16.396288376331363 1 0 -1
3568 1 1.806172404759793 29.7633840103219 23.19440953268826 1 0 -1
3550 1 0.8620406494353519 27.16507350813567 0.23874606480006064 1 0 0
32 1 5.221437165491906 29.509219615400085 2.7170473756776965 0 0 0
199 1 11.532281097076394 28.291339873710474 1.28253715476856 0 0 1
602 1 15.347348872507814 27.939643273913735 2.8252298595504355 0 0 0
635 1 2.7070362382194197 30.832564833183746 2.973949345055951 0 0 1
555 1 7.305644165584167 33.29820742434626 2.798813840209995 0 0 0
554 1 8.618092464992927 31.725226114648915 0.5803827503847152 0 0 1
547 1 10.802254676976903 30.81165703640121 2.326745052358125 0 0 1
373 1 9.07569553875828 34.51052551970949 4.393061247569133 0 0 0
593 1 12.724834322000413 32.43608096294415 0.6749998474676618 0 0 0
462 1 15.076251808983992 32.06862260362779 2.2584257671399106 0 0 0
515 1 16.94315233966531 30.00153219436652 1.1516138473056237 0 0 0
682 1 18.245157372383495 30.123456666692594 3.8340587499110725 0 0 1
3556 1 4.318394542683264 35.69908978250518 0.98887087868743 1 0 0
698 1 5.036003533708113 34.89883024277986 3.5362481600404436 0 0 0
670 1 11.715915696726098 35.01978033137726 23.69817831614994 0 0 0
669 1 11.36446010743595 35.957816686738944 3.34591531604015 0 0 0
3666 1 13.46504341062638 37.504159546012744 3.7584132456065946 1 0 0
1885 1 15.5087876131929 36.35574788057409 2.2168836450079286 0 0 1
1376 1 18.716571065280608 34.67615548334547 1.235270496801413 0 0 0
44 1 14.937297119851124 23.957867911784316 9.784596558270353 0 0 0
904 1 2.1892349112674223 38.933799548508105 1.503910431845584 0 0 1
455 1 7.205789998247129 37.46079540215521 21.738604646811883 0 0 -1
1675 1 10.753190641315019 39.22798474360631 23.260816325089195 0 0 -1
1611 1 17.492109171391483 40.26327706614072 2.8810941518422957 0 0 0
1533 1 2.6288613046245013 41.873804616228725 1.9318841910583566 0 0 0
642 1 5.174010837271544 39.980065170624165 0.7387098368306496 0 0 1
1038 1 7.492842257739031 41.69144192196916 23.823922301031477 0 0 -1
588 1 10.013261269073492 41.625079099937736 0.9693689028701078 0 0 0
716 1 13.261600798514086 39.561964817509754 23.802886219182525 0 0 -1
364 1 15.045494224134965 42.306076518881426 23.880434845190543 0 0 -1
3713 1 3.995738346923151 44.612690220621495 1.4763044896923199 1 0 1
793 1 6.8017888265064785 43.67794231183884 2.0609326377073494 0 0 1
333 1 9.573319881673683 43.74368452842274 2.7091094603736887 0 0 0
3649 1 0.7951016707523757 31.849097684961837 0.9264019248604901 1 0 1
948 1 13.000902774610037 44.58859848370452 0.4204438376466792 0 0 1
946 1 18.052392323056463 44.29849828696668 2.535722461222304 0 0 1
649 1 4.779978411587603 24.785734741097343 4.764853637188705 0 0 0
3437 1 2.1646588260118853 23.989402263923292 4.116643929876605 1 0 0
3778 1 7.930356208442583 25.056201597737257 2.8622043590938557 1 0 1
540 1 6.042951338979619 45.47162183859072 14.809719403337114 0 0 -1
147 1 13.818036963328572 25.571379900073147 6.17508415478585 0 0 0
3900 1 0.059619678370538054 32.530146118588185 8.466188300170554 1 0 1
3870 1 0.3700749696023713 28.687603628239405 6.419797476878825 1 0 1
466 1 0.4659159861918858 29.3818494684057 3.8500145225898263 0 0 0
246 1 6.191365720729374 26.91249849554059 3.7510012445693404 0 0 0
653 1 6.569645246208443 28.44976878072243 6.140422481022036 0 0 1
527 1 10.326419487705351 27.885254533860426 5.80444796889196 0 0 0
275 1 13.065428406353512 28.326244590424782 6.022779274093002 0 0 0
572 1 15.896758396148654 29.80503240444941 5.094570348137243 0 0 0
3738 1 12.595701441474787 44.532788531706345 11.84959673548462 1 0 0
3667 1 4.085670046764069 24.657830821956335 16.351931447522357 1 0 0
1570 1 3.377158664082879 32.949803776655415 4.832844072201924 0 0 0
660 1 5.460716610954732 32.151835194332655 6.9915237374536305 0 0 0
374 1 6.853869926033157 30.94743205639618 4.599259577974529 0 0 1
387 1 9.65078182924581 30.571979365218347 4.965656763648313 0 0 1
604 1 15.988281816534622 32.338614632973666 6.512597210467525 0 0 0
522 1 0.7914616632375328 43.993249767134934 4.491149897088518 0 0 0
688 1 3.9733845385490407 37.59194605798159 3.425533464555026 0 0 1
428 1 5.371894508008714 37.21016693639233 7.151930547501078 0 0 0
422 1 6.4970062393680985 34.58867839541385 7.52595590085902 0 0 1