
# Set production fixes - Nose/Hoover
#
fix                 4 water temp/csvr ${START_TEMP} ${END_TEMP} 500.0 928347
fix                 4 water temp/csvr 240 ${END_TEMP} 500.0 928347
fix                 4 water temp/csvr 240 227 500.0 928347


## divide "droplet" into core and surface
#region		core_reg cylinder z 135 135 44.6 20 INF units box
#region		surface_reg cylinder z 135 135 44.6 20 INF units box side out
#group		core dynamic all region core_reg
#group		surface dynamic all region surface_reg

## compute pressure core
#compute        peratom_core core stress/atom NULL
#compute        p_core core reduce sum c_peratom_core[1] c_peratom_core[2] c_peratom_core[3]
#variable       press_core equal -(c_p_core[1]+c_p_core[2]+c_p_core[3])/(3*1249982.5)


## compute pressure surface
#compute        peratom_surf surface stress/atom NULL
#compute        p_surf surface reduce sum c_peratom_surf[1] c_peratom_surf[2] #c_peratom_surf[3]
#variable       press_surf equal -(c_p_surf[1]+c_p_surf[2]+c_p_surf[3])/(3*33365)

## compute total pressure of drop
compute        peratom water stress/atom NULL
compute        p water reduce sum c_peratom[1] c_peratom[2] c_peratom[3]
variable       press equal -(c_p[1]+c_p[2]+c_p[3])/(3*50320)


# compute order parameter
compute        3 all orientorder/atom nnn NULL cutoff 3.5

# compute center of mass of bridge
compute 	4 water com

# Run simulation
thermo_style        custom step c_2 press vol etotal ke pe v_press c_1[4] c_4[*]
thermo              200
dump		     1 water custom 400 ${DIR}/prod.${NAME}.dump id type x y z vx vy vz c_3[*] c_peratom[*]
dump		     1 water custom 400 run_16/prod.${NAME}.dump id type x y z vx vy vz c_3[*] c_peratom[*]
dump		     1 water custom 400 run_16/prod.ibeam_cooling_16.dump id type x y z vx vy vz c_3[*] c_peratom[*]
run                 ${STEPS}
run                 5200000
Neighbor list info ...
  update every 1 steps, delay 0 steps, check yes
  max neighbors/atom: 2000, page size: 100000
  master list distance cutoff = 6.67472
  ghost atom cutoff = 6.67472
  binsize = 3.33736, bins = 48 13 9
  2 neighbor lists, perpetual/occasional/extra = 1 1 0
  (1) pair sw, perpetual
      attributes: full, newton on
      pair build: full/bin/atomonly
      stencil: full/bin/3d
      bin: standard
  (2) compute orientorder/atom, occasional, copy from (1)
      attributes: full, newton on
      pair build: copy
      stencil: none
      bin: none
Per MPI rank memory allocation (min/avg/max) = 6.133 | 6.589 | 7.261 Mbytes
Step c_2 Press Volume TotEng KinEng PotEng v_press c_1[4] c_4[1] c_4[2] c_4[3] 
       0     248.0329   -471.22967    181563.75   -13331.596    1020.2878   -14351.884   -1103.4984    30.034405    78.713224    25.133047    16.355957 
     200     232.7043   -371.68249    181563.75   -13365.664    957.23329   -14322.898   -758.27719    31.480138    78.715443    25.128285    16.381899 
     400      238.349   -301.34787    181563.75   -13353.548    980.45287   -14334.001   -528.22565    32.520472    78.716253    25.127273    16.399047 
     600    233.13243   -319.99692    181563.75   -13425.692    958.99442   -14384.686   -570.16789    33.422639    78.715461    25.126637    16.403695 
     800    230.96048   -474.05918    181563.75   -13428.483    950.06005   -14378.543   -1091.3141    34.260575    78.716069     25.12797    16.389696 
    1000    245.82438   -502.88976    181563.75   -13356.855     1011.203   -14368.057   -1250.1564    34.956251    78.717036    25.130144    16.392115 
    1200    235.21254   -418.62777    181563.75   -13455.071      967.551   -14422.622    -907.9898    35.943145    78.720655    25.136471    16.371787 
    1400    246.49256   -389.54704    181563.75   -13348.131    1013.9516   -14362.083   -865.50286    37.064069    78.718084    25.138649    16.383078 
    1600    241.27285   -361.46841    181563.75   -13335.338    992.48019   -14327.818    -690.1726    37.465191    78.718031    25.143229    16.365772 
    1800    237.70706   -411.29645    181563.75   -13372.079    977.81224   -14349.891   -929.04176      39.0707    78.717854     25.14555    16.375115 
    2000    244.65778   -176.64849    181563.75   -13269.546    1006.4042   -14275.951   -71.405957    39.705205    78.715018    25.144206    16.365529 
    2200    244.61403   -283.77051    181563.75   -13276.625    1006.2242   -14282.849   -466.52542    41.045213    78.713083     25.14349    16.363697 
    2400    240.75325   -407.08456    181563.75   -13339.048    990.34279   -14329.391   -863.03991     42.14943    78.713095     25.14393    16.349866 
    2600    236.49411   -274.39436    181563.75   -13358.806    972.82276   -14331.628   -395.24301    42.836421    78.713538    25.145389    16.355834 
    2800    238.57539   -487.40725    181563.75   -13326.153    981.38414   -14307.537   -1175.2442    43.810065    78.713784    25.144038    16.356366 
    3000    232.62984   -333.98761    181563.75    -13385.45    956.92702   -14342.377   -635.80582    44.647177    78.713333    25.141376    16.374239 
    3200    236.89098   -309.52788    181563.75   -13372.784    974.45527   -14347.239   -525.85307    46.637113    78.713162    25.139373     16.37319 
    3400    233.82862   -426.06593    181563.75   -13329.325    961.85822   -14291.183   -928.28367    47.648833    78.712067    25.137356    16.349363 
    3600    240.90275   -272.41094    181563.75   -13297.804    990.95776   -14288.762   -408.52746    49.150545    78.709396    25.135536    16.332909 
    3800    235.11642   -375.49642    181563.75   -13316.457     967.1556   -14283.612   -772.22874    49.882757     78.70776    25.132878     16.33303 
    4000    241.82795   -404.05868    181563.75   -13348.784    994.76358   -14343.547   -854.46824    51.439136    78.708667    25.130977    16.328113 
    4200    246.90446   -256.38796    181563.75   -13273.057    1015.6459   -14288.703    -334.0391    52.306782    78.705295     25.13138    16.338102 
    4400    246.66584   -341.93648    181563.75   -13242.123    1014.6643   -14256.788   -677.28948    52.598812    78.700929    25.133069    16.360097 
    4600    231.83905   -450.64243    181563.75   -13309.058    953.67409   -14262.732   -1032.5745    54.770349    78.699091    25.132802    16.363688 
    4800    242.34596   -234.95673    181563.75   -13255.172    996.89444   -14252.067   -272.61517     56.29542    78.700924    25.132628    16.349683 
    5000    237.12572   -207.76753    181563.75   -13319.076    975.42089   -14294.497   -144.58949    57.753703    78.703112    25.132575    16.380117 
    5200    237.26374   -515.37795    181563.75   -13310.786    975.98865   -14286.775   -1275.3228    59.105313    78.706662    25.131523    16.380685 
    5400    238.03127   -360.30459    181563.75   -13322.822     979.1459   -14301.968   -678.76292     59.73658    78.704625    25.132966    16.374673 
    5600    234.65954   -297.05053    181563.75   -13374.154    965.27622    -14339.43   -508.72135    60.703268     78.70892    25.131663    16.380385 
    5800    250.80876   -415.01005    181563.75   -13257.335    1031.7063   -14289.041   -925.28267    62.906855    78.707242    25.128638    16.407536 
    6000    238.41782   -296.39936    181563.75   -13413.573    980.73594   -14394.309   -547.17858    63.510884     78.70839    25.128337    16.419586 
    6200    237.08285    -317.7313    181563.75   -13363.089    975.24455   -14338.333   -566.79106    65.335377    78.710204    25.121136    16.434209 
    6400    234.91759   -382.26575    181563.75   -13314.202    966.33769   -14280.539   -801.57922    66.149672    78.711992    25.118728    16.424036 
    6600    234.20067   -463.59826    181563.75   -13365.396    963.38864   -14328.784   -1120.4015    66.606725    78.711423    25.115492    16.394251 
    6800    239.34581   -268.51704    181563.75   -13339.765    984.55325   -14324.318   -402.20854    66.966387    78.713406    25.110947    16.409496 
    7000    230.82873   -475.53203    181563.75   -13345.531    949.51812   -14295.049   -1090.4811    68.301057    78.714859    25.104549    16.419279 
    7200    234.39563   -297.77601    181563.75   -13309.965    964.19062   -14274.156   -464.83732    69.490353    78.716946     25.10103    16.419524 
    7400      237.967   -289.96406    181563.75   -13368.442     978.8815   -14347.323    -437.1234    70.947917     78.71618    25.098463    16.411865 
    7600    229.58184   -353.94514    181563.75   -13373.865    944.38901   -14318.254   -706.29002    71.936538    78.715758    25.097931    16.416685 
    7800    243.55724   -334.50571    181563.75   -13300.874    1001.8771   -14302.751   -576.46823    73.547061    78.716971    25.093245     16.40567 
    8000    239.34738   -309.44128    181563.75   -13347.239     984.5597   -14331.799   -534.72813    73.866968    78.715814    25.089847    16.412952 
    8200    233.57332   -451.96899    181563.75   -13394.712    960.80801    -14355.52   -1030.7515     74.42799    78.717182    25.089329    16.412717 
    8400    235.10942   -362.38954    181563.75   -13397.224     967.1268   -14364.351   -688.80524    75.324993    78.719239    25.087375    16.377232 
    8600    246.22897   -379.18993    181563.75   -13343.156    1012.8673   -14356.023   -813.65702    76.391072    78.723311    25.087872    16.368925 
    8800    243.85693    -287.0641    181563.75   -13367.609    1003.1098   -14370.719   -434.68951    77.231498    78.724977    25.089588     16.33892 
    9000    235.25939   -243.06484    181563.75   -13350.292    967.74371   -14318.036   -311.03457    77.675069    78.724271    25.090325    16.332227 
    9200    238.97617   -321.31527    181563.75   -13379.879    983.03276   -14362.912   -592.54202    78.946104    78.727313    25.089802    16.331278 
    9400    242.07222   -217.54102    181563.75   -13381.567    995.76841   -14377.336   -196.80052    78.465382    78.727988    25.087695    16.363151 
    9600    231.98527   -296.50791    181563.75   -13430.381    954.27557   -14384.657   -473.69842    79.644954    78.727412    25.087005    16.364461 
    9800    243.53655   -280.45931    181563.75   -13398.963    1001.7919   -14400.755   -410.95264     80.53358    78.731558    25.080194    16.342679 
   10000    246.43718   -414.38489    181563.75   -13296.504    1013.7238   -14310.227   -936.83873     82.47796    78.735078    25.076316    16.331296 
   10200    243.71126   -232.62261    181563.75    -13342.02    1002.5106   -14344.531   -255.01215     84.02235    78.733768     25.07267    16.357712 
   10400    244.17399   -497.29173    181563.75   -13366.935    1004.4141   -14371.349   -1222.0019    85.084481    78.735626    25.076129    16.359608 
   10600    238.59375   -351.52556    181563.75   -13327.348    981.45966   -14308.807   -674.45481    86.059316    78.737993    25.077617    16.368306 
   10800    242.24931   -301.79985    181563.75   -13375.107    996.49689   -14371.604   -503.74654     87.62122    78.738961    25.076454    16.360913 
   11000    237.22231   -326.65316    181563.75   -13377.899    975.81822   -14353.717   -568.88429    88.823278    78.739472    25.076615    16.356054 
   11200    234.68336   -394.14728    181563.75   -13383.582    965.37422   -14348.956    -841.3154    90.365866    78.741451    25.076963    16.350279 
   11400    240.35469   -317.63619    181563.75   -13352.087    988.70332    -14340.79   -541.16172    90.526154    78.743367    25.079982    16.354239 
   11600    242.16688   -377.74198    181563.75   -13326.713    996.15778   -14322.871   -772.23022    92.799683    78.742488    25.078574    16.381166 
   11800    238.95113   -316.17829    181563.75   -13335.356    982.92973   -14318.286   -515.26229    92.190784    78.748435    25.076395    16.352001 
   12000    245.33058   -316.44137    181563.75   -13294.783    1009.1717   -14303.955   -552.79383     92.36171    78.750082    25.077122    16.326814 
   12200    238.36382   -153.79243    181563.75   -13332.826    980.51384    -14313.34    28.196058    92.264438    78.746948    25.075725    16.320515 
   12400    243.14237   -406.51874    181563.75   -13274.905    1000.1705   -14275.075   -852.27027    93.572668    78.747317    25.076975    16.332336 
   12600    250.43785   -328.50271    181563.75   -13267.563    1030.1806   -14297.743   -548.66569    94.812315    78.749412    25.073208    16.329768 
   12800    232.76298   -509.28001    181563.75   -13362.903    957.47466   -14320.377   -1249.6966    96.394975    78.751082    25.070415    16.352964 
   13000    244.50865   -441.65009    181563.75   -13400.609    1005.7907     -14406.4   -991.08522    97.701733    78.748732     25.06937    16.371137 
   13200    239.83075   -479.82082    181563.75   -13340.048    986.54808   -14326.597   -1166.7862    100.06625    78.747917    25.070572    16.360852 
   13400    231.90198    -300.9994    181563.75   -13292.322    953.93294   -14246.255   -523.12149    103.55939    78.745273    25.066008     16.34638 
   13600    241.45244   -429.44808    181563.75   -13326.071    993.21894    -14319.29   -937.82957    105.80195    78.747359    25.063367    16.348194 
   13800    238.49896   -395.32717    181563.75   -13384.299    981.06973   -14365.369   -807.82226    105.88041    78.747875    25.061627    16.381253 
   14000    238.94752   -417.12005    181563.75   -13342.906    982.91488   -14325.821   -967.36741    106.17398    78.745763    25.059237    16.390705 
   14200    235.34778   -376.21707    181563.75   -13392.029    968.10729   -14360.137   -805.48357    104.95503    78.743903    25.057507    16.381352 
   14400    236.10234   -422.34573    181563.75   -13410.778    971.21121    -14381.99   -905.95467    105.17807    78.741571    25.055961    16.390513 
   14600    238.18392   -393.53845    181563.75   -13382.708    979.77381   -14362.482    -857.6977    106.50881    78.739858    25.053165    16.403087 
   14800    237.53529   -376.42016    181563.75   -13332.367    977.10566   -14309.472   -763.57861    107.70228    78.738576    25.052722    16.391158 
   15000    236.21912   -305.40671    181563.75   -13350.275    971.69158   -14321.967   -478.84952    111.02587    78.737255     25.05019    16.367367 
   15200    237.61057   -317.03641    181563.75   -13416.399    977.41534   -14393.814   -577.53764    111.98604    78.733973    25.046658    16.360624 
   15400    241.48461   -471.72694    181563.75   -13334.707    993.35128   -14328.058   -1103.4531     112.2282    78.730235    25.048812    16.375363 
   15600    233.20275    -321.1757    181563.75   -13392.932    959.28368   -14352.216   -584.84353    111.97061    78.727859    25.053147    16.377215 
   15800    240.61175   -402.04034    181563.75   -13308.112    989.76075   -14297.873   -859.47295    112.75376    78.727623    25.058778      16.3755 
   16000    236.33659   -241.08188    181563.75   -13344.068     972.1748   -14316.243   -237.97993    114.54159    78.727935     25.05912    16.352537 
   16200    251.49613   -410.60077    181563.75   -13244.385    1034.5338   -14278.919   -874.59768    116.24661    78.729019    25.057666    16.361514 
   16400    245.47981   -296.78541    181563.75   -13233.881    1009.7856   -14243.667   -494.60759     119.3604    78.727155    25.056232     16.38961 
   16600     243.1642   -428.47737    181563.75   -13283.096    1000.2603   -14283.356   -952.94804    120.18404    78.727199    25.057781    16.367539 
   16800     240.0686    -415.1074    181563.75   -13295.862    987.52646   -14283.389   -962.74735    119.12179     78.72693    25.058331     16.36966 
   17000    241.45425   -538.07616    181563.75   -13288.789    993.22639   -14282.015   -1354.8583     119.8764    78.725303    25.059642    16.364051 
   17200    241.87825   -376.80902    181563.75   -13281.283     994.9705   -14276.254   -745.01556    121.63098    78.726925    25.060021    16.408462 
   17400    245.17673     -459.088    181563.75   -13265.498    1008.5389   -14274.036   -1066.3586     123.6799    78.725116    25.062384    16.386345 
   17600    254.53459   -154.37223    181563.75    -13217.79    1047.0326   -14264.823    31.494543    122.76368    78.725751    25.066613    16.390392 
   17800    248.67519    -312.3839    181563.75   -13241.662    1022.9298   -14264.592    -552.8966    123.93346     78.72724     25.06797     16.40558 
   18000    229.03798   -462.52174    181563.75   -13265.291    942.15184   -14207.443   -1055.2296    124.91195    78.723101    25.066631    16.435195 
   18200    237.87529   -272.06652    181563.75   -13291.952    978.50426   -14270.457   -411.91632    125.50917    78.722216    25.066864    16.438173 
   18400     245.6831   -513.59365    181563.75   -13279.142    1010.6218   -14289.764   -1263.0302     127.8883    78.722099    25.068831    16.425832 
   18600    237.67814   -381.42196    181563.75    -13261.31    977.69329   -14239.003   -777.30578     128.4934    78.720636    25.069326    16.436212 
   18800    240.25905   -268.78527    181563.75   -13293.653    988.30989   -14281.962   -434.71919    128.45214    78.721089    25.069738    16.445016 
   19000    242.72144   -133.44364    181563.75   -13301.261    998.43897     -14299.7    84.641116    129.34016    78.717873     25.07289     16.43115 
   19200    247.55786   -255.90777    181563.75   -13279.077    1018.3337    -14297.41    -341.8448    130.90333     78.71394    25.076562      16.4138 
   19400    251.43208   -303.69527    181563.75   -13257.036    1034.2704   -14291.307   -509.78801    132.02554    78.713621     25.07683     16.40679 
   19600    238.80623   -282.40693    181563.75   -13318.218    982.33369   -14300.551   -425.51947    132.90849    78.718889    25.079467    16.435761 
   19800    244.02472    -392.1038    181563.75    -13291.66       1003.8    -14295.46   -866.35139     134.0922    78.720283     25.08167    16.451191 
   20000    236.60781   -246.62247    181563.75   -13308.227    973.29046   -14281.518   -306.57821    135.68306    78.719434    25.080786     16.42843 
   20200    243.31543    -452.7286    181563.75   -13319.041    1000.8824   -14319.923   -1058.1238    136.92557    78.718862    25.075514    16.460347 
   20400    232.35348    -311.0126    181563.75   -13355.297     955.7902   -14311.087   -559.18651    136.86127     78.72156    25.072498    16.450557 
   20600    243.17069   -330.56454    181563.75   -13306.707     1000.287   -14306.994   -607.86027    138.12747    78.725375    25.072188    16.466343 
   20800    240.00142   -274.70906    181563.75   -13315.772    987.25013   -14303.022   -445.64249    138.80875    78.726568    25.068734    16.449612 
   21000    250.00659   -469.60241    181563.75    -13289.65    1028.4066   -14318.057   -1102.4127    140.22671    78.724385    25.067617    16.436138 
   21200      240.003   -496.55505    181563.75   -13274.855    987.25662   -14262.112   -1218.2424    141.92852    78.724187    25.073454    16.409637 
   21400    236.45229    -535.2092    181563.75   -13304.135    972.65072   -14276.785   -1357.5075    144.00474     78.72579    25.072199     16.42094 
   21600    242.71776   -335.36258    181563.75   -13263.155    998.42386   -14261.579   -614.92735     145.4512    78.726183    25.071422    16.416463 
   21800    243.89331   -304.92019    181563.75   -13277.454    1003.2595   -14280.713    -509.6209    143.97538     78.72819    25.073276    16.387201 
   22000    246.43446   -529.30242    181563.75    -13275.78    1013.7126   -14289.493    -1323.833     146.4677    78.729368    25.073737    16.403811 
   22200    244.63087     -164.935    181563.75   -13270.043    1006.2935   -14276.337    -18.72596    146.04388     78.72485     25.06704    16.402912 
   22400    239.86625   -462.79681    181563.75   -13299.934    986.69409   -14286.629   -1066.8151    149.20819     78.72291    25.070133      16.4101 
   22600    241.41307    -192.3128    181563.75   -13337.179    993.05698   -14330.236   -152.67519    149.47245    78.719322    25.070387    16.422661 
   22800    233.58191   -360.77385    181563.75   -13298.582    960.84334   -14259.425   -752.20561     151.1547    78.718311    25.073678     16.41744 
   23000     235.8695   -387.26289    181563.75   -13339.157    970.25341   -14309.411   -834.86373    152.40017    78.715863    25.073366    16.423921 
   23200    238.46614   -330.62905    181563.75   -13331.321    980.93474   -14312.256   -612.46403     153.6418    78.717586    25.070956    16.434396 
   23400     246.9923   -316.66623    181563.75   -13312.719    1016.0072   -14328.727   -541.05979    153.90555    78.715346    25.066269    16.431119 
   23600    237.29734   -441.67863    181563.75   -13355.565    976.12684   -14331.692   -1052.3391    154.24211    78.712314    25.065224    16.401211 
   23800    237.16219   -214.50078    181563.75   -13374.376    975.57092   -14349.947   -184.39152    154.73813    78.713767     25.06382    16.407839 
   24000     238.5743    -399.2689    181563.75   -13317.605    981.37967   -14298.985   -869.99424    155.14143    78.718125    25.059894    16.409543 
   24200    244.47791   -329.30737    181563.75    -13303.76    1005.6643   -14309.425   -616.03975    154.79218    78.719749     25.05986    16.412333 
   24400    238.64539   -283.82369    181563.75   -13277.722    981.67206   -14259.394   -459.13037    155.47526    78.721718    25.063079    16.391962 
   24600    236.25144   -276.80816    181563.75   -13307.986     971.8245    -14279.81   -423.74164    155.95791    78.720099    25.064533    16.385851 
   24800    246.52751   -407.60589    181563.75   -13288.313    1014.0953   -14302.408   -873.12199     157.9113    78.719903    25.067495    16.360872 
   25000    236.30861   -455.43398    181563.75   -13280.127    972.05967   -14252.187   -1045.4858     159.7265    78.717492    25.066733    16.376707 
   25200    243.09836   -57.391657    181563.75   -13280.253    999.98947   -14280.243     343.2254    159.25592    78.721595    25.070777    16.355592 
   25400    243.82026   -413.97589    181563.75   -13299.914     1002.959   -14302.873   -933.65706    161.30939    78.718571    25.073588    16.360344 
   25600    247.97392   -399.56186    181563.75   -13262.395    1020.0451    -14282.44   -909.96727    161.04161    78.719945    25.075718    16.339657 
   25800    236.23367   -456.71678    181563.75   -13292.996    971.75144   -14264.747   -1079.9695    162.44535    78.716834    25.081822     16.36078 
   26000    235.55228   -381.45018    181563.75   -13313.778    968.94852   -14282.727    -826.7081    163.62997    78.716742    25.082337    16.365838 
   26200    238.68763   -445.50297    181563.75   -13266.527    981.84585   -14248.372   -1062.9382    165.55548    78.718138     25.08291    16.365284 
   26400     232.5482   -368.06585    181563.75   -13326.434    956.59119   -14283.025    -799.5996    166.49596    78.720058    25.085531    16.372348 
   26600     239.1145   -396.21824    181563.75    -13279.42    983.60177   -14263.022    -818.9416    166.97511    78.723866    25.085137    16.390774 
   26800     239.5323   -152.22362    181563.75   -13224.437    985.32038   -14209.757    18.656372     166.1842    78.726235    25.085997    16.397048 
   27000    236.80067   -295.57321    181563.75   -13263.581    974.08377   -14237.665   -516.58171    167.87979    78.729329    25.087389    16.426929 
   27200    245.75876   -238.35446    181563.75    -13210.68    1010.9331   -14221.614   -275.92304    168.92626     78.73315     25.08803    16.415595 
   27400    237.79336   -405.01341    181563.75    -13201.02    978.16723   -14179.187   -834.56038    171.19351    78.735647    25.085376    16.420712 
   27600    243.45015   -410.20199    181563.75   -13225.697    1001.4365   -14227.134   -890.32467    172.67783     78.74212    25.088032    16.419125 
   27800    237.05835    -335.2979    181563.75   -13313.564    975.14375   -14288.708   -653.72376     174.8027    78.742651    25.092257    16.427452 
   28000    234.16543   -221.45988    181563.75   -13276.319     963.2437   -14239.563    -198.5983    174.26817    78.745019    25.092953    16.415275 
   28200    245.90212   -356.16383    181563.75   -13233.909    1011.5227   -14245.432   -710.50222    176.03199    78.747019    25.088529    16.435335 
   28400    233.06225   -556.16025    181563.75   -13259.305    958.70574   -14218.011   -1387.8398     180.1609    78.745581    25.086004    16.444356 
   28600    242.31316   -464.11144    181563.75   -13293.729    996.75951   -14290.488   -1108.2377    179.48949    78.744542    25.086373    16.408914 
   28800    228.89192   -380.68252    181563.75   -13347.458    941.55101   -14289.009   -784.44648    180.10488    78.745662    25.083463    16.415638 
   29000    237.92733   -418.71555    181563.75   -13304.106    978.71833   -14282.824   -918.08861    178.83257    78.743796    25.085439    16.418298 
   29200    240.80021   -395.91556    181563.75   -13287.243    990.53598   -14277.779   -832.76758    179.29065     78.74256    25.084652    16.412583 
   29400    237.51518   -351.89067    181563.75   -13301.614    977.02293   -14278.637   -718.33556    181.17372      78.7416    25.086632    16.444892 
   29600    242.70736   -228.98099    181563.75   -13305.484    998.38106   -14303.865    -262.6702    182.38969    78.739527    25.083886    16.442554 
   29800    245.10744   -320.66411    181563.75   -13240.829    1008.2539   -14249.083   -621.83462    183.05492    78.737933    25.083383    16.440896 
   30000    240.59607   -378.60797    181563.75   -13234.296    989.69623   -14223.993   -777.85498    182.83957    78.737851    25.083455    16.472157 
   30200    244.23509   -415.87363    181563.75   -13280.312    1004.6654   -14284.978   -877.68323    183.37301    78.735899     25.08418    16.475477 
   30400    233.85705    -434.9534    181563.75   -13326.909    961.97517   -14288.884   -965.89852    184.95628    78.734721    25.086287    16.438314 
   30600    234.33726   -465.39812    181563.75   -13313.098    963.95052   -14277.048   -1081.5261    187.31743    78.733793    25.088757    16.421493 
   30800     235.6903   -234.83197    181563.75   -13276.513    969.51628   -14246.029   -267.89918    190.28497    78.733065    25.096683    16.434658 
   31000    240.42842   -175.27426    181563.75   -13286.692    989.00662   -14275.699   -77.407005    190.89267    78.729234    25.099724    16.417131 
   31200    246.14869   -264.64902    181563.75   -13247.896     1012.537   -14260.433   -345.65586    191.13592    78.732135    25.103579    16.406642 
   31400    240.18332   -360.80069    181563.75   -13288.079    987.99837   -14276.077   -748.79688    192.80934    78.735137    25.108311     16.39198 
   31600    245.03902   -401.94762    181563.75   -13243.673    1007.9724   -14251.645    -891.1427    193.35418    78.733784    25.108983    16.402371 
   31800    239.00773     -239.201    181563.75   -13284.528    983.16256    -14267.69   -290.20762    193.40572    78.737746     25.11105    16.395603 
   32000    237.97539    -367.5458    181563.75   -13253.312    978.91603   -14232.228   -814.47491    194.39028    78.737417    25.107808    16.391491 
   32200    233.97212   -441.69031    181563.75   -13302.573    962.44851   -14265.022   -1042.3646     197.0667    78.738973    25.107401    16.405154 
   32400    241.09571   -264.45252    181563.75   -13303.802    991.75151   -14295.554   -419.07505    196.48345    78.736685    25.102813    16.384677 
   32600    237.40604   -356.31627    181563.75   -13257.793    976.57397   -14234.367   -694.52705     198.5702    78.736329    25.101975    16.345295 
   32800    242.17167   -620.29902    181563.75   -13335.106    996.17751   -14331.284   -1652.2661    199.29888    78.738622    25.100652    16.326055 
   33000    243.82654   -273.04379    181563.75   -13308.023    1002.9848   -14311.007   -385.56032     199.3085    78.739395    25.099814    16.319919 
   33200    244.00355   -377.10486    181563.75   -13316.602     1003.713   -14320.314   -811.30196    201.08697    78.745413    25.096858     16.31015 
   33400    234.42882    -286.4647    181563.75   -13309.547    964.32715   -14273.874   -489.95149    202.79941    78.745216    25.096135    16.299409 
   33600    233.19575   -223.24915    181563.75   -13331.563     959.2549   -14290.818   -246.39065    204.29314    78.742302    25.091653    16.265319 
   33800    243.57277    -432.3693    181563.75   -13282.505     1001.941   -14284.446   -947.37285    205.29041    78.742996    25.090154    16.258938 
   34000    245.36952   -477.25569    181563.75   -13311.608    1009.3319    -14320.94   -1119.1163    205.49582    78.744005    25.091058    16.270428 
   34200    238.06594   -234.39788    181563.75    -13323.23    979.28851   -14302.519   -236.26279    205.95409    78.742776    25.089385    16.262887 
   34400    232.08052   -170.51829    181563.75   -13345.686    954.66737   -14300.353   -1.1309986    208.73456    78.742182    25.088782    16.279391 
   34600     237.4911   -301.61366    181563.75   -13320.744    976.92388   -14297.668   -482.58169    210.16098    78.740869    25.089402    16.269937 
   34800    234.61933   -383.90295    181563.75    -13286.37    965.11081   -14251.481   -781.13748    211.08563    78.741473    25.090667    16.286128 
   35000    236.36922   -300.19113    181563.75    -13256.53    972.30899   -14228.839   -464.33515    211.72276    78.744561    25.093274    16.296045 
   35200    249.44681   -340.66636    181563.75   -13253.666    1026.1039    -14279.77   -635.79137    214.24868    78.744088    25.098968    16.302759 
   35400    243.76555    -520.4734    181563.75   -13229.413    1002.7339   -14232.147   -1277.9109    215.95858    78.738907    25.099722    16.317365 
   35600    242.65678    -153.6047    181563.75    -13289.51      998.173   -14287.683    65.289718    218.04875    78.741489    25.098854    16.339578 
   35800    244.88131   -351.60766    181563.75    -13272.31    1007.3236   -14279.634   -695.59505    217.64502    78.741008    25.094837    16.348423 
   36000    234.52105   -305.36505    181563.75   -13345.047    964.70651   -14309.754   -560.58456    218.62483    78.739478    25.093923    16.360722 
   36200    242.51343   -452.31502    181563.75    -13344.35    997.58334   -14341.934   -1051.8444     218.0797    78.742018    25.091437    16.373207 
   36400    241.46356   -440.85933    181563.75   -13297.003    993.26466   -14290.268   -1025.3356    218.70705    78.743961    25.092689    16.365647 
   36600    244.40697    -499.4675    181563.75   -13333.791    1005.3724   -14339.164   -1253.6718    218.25617    78.745577    25.091693    16.370191 
   36800    236.28293   -280.59935    181563.75   -13349.718    971.95404   -14321.672   -423.42665    217.97372    78.744124    25.093625    16.369583 
   37000     243.4474   -346.22842    181563.75   -13306.697    1001.4252   -14308.122   -691.70594    221.57994    78.746543    25.095701    16.368955 
   37200    237.68366   -383.88422    181563.75    -13358.01      977.716   -14335.726   -800.86341    220.94756    78.751731    25.096467    16.377377 
   37400    235.16914   -369.41511    181563.75   -13297.073    967.37246   -14264.445   -769.95008     222.9122    78.752236    25.095845    16.373703 
   37600    250.43468   -377.21551    181563.75   -13269.886    1030.1675   -14300.053   -762.11628    222.65503    78.755369    25.093875    16.386402 
   37800    236.14339   -360.15345    181563.75   -13306.577    971.38004   -14277.957   -733.55598    224.05665    78.755388    25.089129     16.38974 
   38000     233.2462   -250.81028    181563.75    -13314.99     959.4624   -14274.452    -283.7635    224.89892    78.755515    25.093328    16.370024 
   38200    240.54238   -387.79907    181563.75   -13299.689     989.4754   -14289.164   -838.59945    224.71204     78.75595    25.096139    16.378529 
   38400    241.61746   -356.53997    181563.75   -13306.462    993.89775   -14300.359   -705.14706    225.61642    78.757158    25.100202    16.344324 
   38600    244.62501   -207.02532    181563.75   -13326.525    1006.2694   -14332.794   -173.52667    224.39987    78.758997    25.103746    16.349614 
   38800    239.59451   -281.21478    181563.75    -13306.38    985.57632   -14291.956   -434.91619    226.49581    78.762284    25.108365    16.341284 
   39000    242.22109   -428.38895    181563.75   -13289.312    996.38077   -14285.693   -1024.0013    226.83695    78.763237    25.107596    16.329745 
   39200    232.23445   -396.15985    181563.75   -13375.674    955.30057   -14330.975   -864.63499    227.62208     78.76258    25.105015    16.325054 
   39400    249.29223   -308.95121    181563.75   -13315.747     1025.468   -14341.215   -551.82837    229.57376    78.763673    25.102395    16.321514 
   39600    235.67094   -330.12585    181563.75   -13328.574    969.43663    -14298.01   -599.56246    230.22782    78.761439    25.096766    16.306099 
   39800    246.61802   -325.89446    181563.75   -13239.052    1014.4676   -14253.519   -617.92821    232.37057    78.759918    25.097075    16.308749 
   40000    234.76725   -374.63915    181563.75   -13314.578    965.71929   -14280.297   -743.03095    232.70044    78.763391    25.095145    16.310237 
   40200     230.3938   -389.01907    181563.75   -13352.749    947.72903   -14300.478   -808.01275    235.04144    78.760808    25.089023    16.302793 
   40400    238.49928   -272.47522    181563.75   -13278.864    981.07105   -14259.935     -472.852    238.01286     78.76347    25.085649     16.30767 
   40600    229.99477   -382.49916    181563.75   -13404.317     946.0876   -14350.404   -779.06627    239.60396     78.76475    25.085419    16.314842 
   40800    233.92872   -355.00182    181563.75   -13317.246    962.26996   -14279.516   -732.05776    239.62765    78.765593    25.086018    16.319293 
   41000    243.69273   -257.25258    181563.75   -13277.614    1002.4344   -14280.048   -357.65524    241.88463    78.766839    25.085839    16.318654 
   41200    240.91681   -422.15999    181563.75   -13279.555    991.01562   -14270.571   -924.83825    243.97378    78.765983    25.086718    16.295937 
   41400    245.19587   -373.22711    181563.75   -13269.469    1008.6176   -14278.087   -778.98005    243.53166    78.766255    25.081892    16.278835 
   41600    244.87265   -504.50089    181563.75   -13225.837     1007.288   -14233.125   -1265.3746    245.77245    78.765372    25.082004    16.262773 
   41800    233.76071   -480.92521    181563.75   -13291.707    961.57886   -14253.286   -1190.8917    247.27215    78.765566    25.080361     16.22967 
   42000    231.50347   -381.99897    181563.75   -13296.004    952.29368   -14248.298   -838.18278    248.65345    78.768406     25.07738    16.231521 
   42200    240.28039   -283.54562    181563.75   -13288.156    988.39767   -14276.554    -444.5382    248.05178    78.768344    25.075572    16.245501 
   42400    229.52853    -361.4664    181563.75   -13312.693    944.16971   -14256.863   -751.20293    249.26375    78.769331    25.072386    16.235213 
   42600    242.43938   -235.80682    181563.75   -13278.505     997.2787   -14275.783   -245.88444    249.54018    78.769416    25.069007    16.206684 
   42800    239.32452   -267.95372    181563.75   -13256.598    984.46568   -14241.064   -388.43081    250.15144    78.771109    25.065327     16.23597 
   43000      249.811   -324.49072    181563.75   -13252.631     1027.602   -14280.233   -598.87369    251.40681    78.774409    25.062348    16.249605 
   43200    243.65874   -168.54358    181563.75   -13261.266    1002.2946    -14263.56   -36.573206    249.78256    78.776655    25.063947    16.273066 
   43400    246.80272   -523.00067    181563.75   -13286.297    1015.2274   -14301.524    -1311.416    251.55524    78.775739    25.066399    16.272235 
   43600     237.4792   -406.77225    181563.75   -13310.758    976.87495   -14287.633   -914.70401    252.29825    78.773132    25.071355    16.305224 
   43800    243.18994   -135.82718    181563.75   -13257.626    1000.3662   -14257.992    67.872575    253.12388    78.775032    25.068652    16.276944 
   44000    235.07923   -232.58077    181563.75   -13280.248    967.00261   -14247.251   -274.45919    252.96262    78.777419    25.069722    16.294814 
   44200    241.11431   -523.63995    181563.75    -13237.23    991.82804   -14229.058   -1286.7249    256.37898    78.780661    25.066667    16.286858 
   44400    249.00096   -443.36061    181563.75   -13196.468    1024.2699   -14220.738   -1044.1125    255.99087    78.780634    25.063611    16.301837 
   44600    233.10375    -445.0554    181563.75   -13246.229    958.87644   -14205.105   -1088.7757    258.84839    78.782183    25.065994    16.278803 
   44800    236.64213   -345.55195    181563.75   -13247.609    973.43162   -14221.041   -677.78486    261.29336    78.782825    25.064988    16.281283 
   45000    242.07429   -275.25091    181563.75   -13258.049    995.77692   -14253.826   -433.90645    263.21727    78.787086    25.060185    16.273677 
   45200    246.54164   -440.89289    181563.75   -13205.568    1014.1534   -14219.722    -995.4017     262.9309    78.789528    25.062263     16.27191 
   45400    252.35982   -415.76442    181563.75   -13194.778    1038.0866   -14232.864   -898.02455    264.35443    78.789713    25.064558    16.244226 
   45600    256.98115   -415.33149    181563.75   -13216.615    1057.0966   -14273.711   -942.40441    265.10121    78.789675    25.063102    16.234203 
   45800    236.33572   -487.54284    181563.75    -13278.84    972.17121   -14251.011   -1213.1827    265.07211    78.790285    25.060518    16.253463 
   46000    248.34095   -463.92665    181563.75    -13281.25    1021.5549   -14302.805    -1069.416    265.48859    78.794576    25.057267     16.25934 
   46200    243.62013   -383.94491    181563.75   -13269.343    1002.1358   -14271.478   -791.83475     266.1171    78.798807    25.056404    16.258202 
   46400    241.88675   -306.50234    181563.75   -13226.974    995.00546    -14221.98   -525.28971    267.88853    78.797685    25.054032    16.269819 
   46600    238.44941   -433.74736    181563.75   -13270.534    980.86589     -14251.4   -1022.1273    271.09011    78.801619    25.049877    16.258964 
   46800    245.22905   -437.61662    181563.75   -13230.215    1008.7541   -14238.969   -996.90235    273.30563     78.80186    25.048407    16.247615 
   47000    236.26919   -525.25452    181563.75   -13199.524    971.89755   -14171.421   -1348.6137    277.73941    78.802099    25.050045    16.249627 
   47200    244.84253   -348.48212    181563.75   -13304.032    1007.1641   -14311.196   -679.02262    277.78662    78.796983    25.051975    16.264157 
   47400    248.76859   -354.59466    181563.75    -13307.13     1023.314   -14330.444   -720.79132    279.23401    78.796771    25.049271    16.312077 
   47600    240.08129   -492.69565    181563.75    -13317.28    987.57869   -14304.859   -1167.4875    279.36144    78.795169    25.048553    16.339761 
   47800     236.8295   -390.59973    181563.75   -13300.654    974.20239   -14274.856   -816.65285    280.24045    78.792844     25.04622    16.329767 
   48000    243.15424   -530.32776    181563.75   -13327.723    1000.2193   -14327.942   -1285.4808    281.59986     78.79156    25.047202    16.350124 
   48200    234.28481   -288.63132    181563.75   -13297.356    963.73477   -14261.091   -479.03294    281.47311    78.790838     25.04918     16.35414 
   48400    229.78661    -387.1804    181563.75   -13318.281    945.23131   -14263.513    -771.5997    280.69311    78.790612    25.051537    16.350838 
   48600    237.43604   -298.15643    181563.75   -13257.744     976.6974   -14234.441   -509.01969    281.05286    78.793053    25.051932    16.314816 
   48800    241.93249   -217.73357    181563.75   -13263.668    995.19362   -14258.861   -221.53846     281.6416    78.792498    25.050621    16.326821 
   49000     244.5329   -395.66348    181563.75   -13254.915    1005.8905   -14260.805   -844.61405    286.04771    78.794496    25.046058      16.3491 
   49200     236.4986    -289.7844    181563.75   -13274.854    972.84121   -14247.695   -470.22413    286.51196     78.79517    25.040163    16.341799 
   49400      235.788    -368.2474    181563.75    -13262.41    969.91815   -14232.328   -741.27147    287.23228    78.797774    25.037251    16.338109 
   49600    236.29909    -328.0507    181563.75   -13272.133    972.02052   -14244.153   -621.23692    287.91128    78.801309    25.030505     16.33921 
   49800    239.82622   -361.34469    181563.75   -13296.628    986.52942   -14283.157   -677.89369    288.78757    78.801422    25.029947    16.345875 
   50000    235.00504   -296.61133    181563.75    -13319.76    966.69743   -14286.457   -507.67257    291.12161    78.800599    25.028861    16.332446 
   50200    244.93888   -476.96808    181563.75    -13257.35    1007.5604   -14264.911   -1174.3348    291.66582     78.80136    25.030302    16.331342 
   50400     241.2703   -277.80298    181563.75   -13287.652    992.46971   -14280.122   -477.31004    291.86289    78.805701    25.030151    16.362586 
   50600    232.86688   -440.41831    181563.75   -13387.605    957.90207   -14345.507   -954.23761    293.85007    78.812257    25.034431    16.366408 
   50800    236.00778   -510.09457    181563.75   -13360.611    970.82221   -14331.433   -1223.2607    295.70536    78.819518    25.035064    16.351603 
   51000    244.46512   -330.76628    181563.75   -13292.604    1005.6116   -14298.215   -648.73574    296.39814    78.819261    25.037325    16.366293 
   51200    227.97668   -385.72165    181563.75   -13343.505    937.78616   -14281.291   -782.25966    296.20925    78.818089    25.035496    16.345085 
   51400    236.43578   -472.70824    181563.75   -13294.045    972.58279   -14266.628   -1148.3676    295.89593    78.820746    25.033708    16.320677 
   51600    245.35534   -390.42627    181563.75   -13283.799    1009.2736   -14293.073   -830.30931    296.73954     78.81814    25.033089     16.35295 
   51800     251.8011   -379.27273    181563.75    -13276.37    1035.7883   -14312.159   -846.66007    298.18545    78.818299    25.032464    16.370305 
   52000     235.9208   -355.02325    181563.75   -13283.554    970.46444   -14254.018   -716.57933    298.85771    78.818914    25.030478    16.363879 
   52200    244.17556    -330.0006    181563.75   -13258.402    1004.4205   -14262.822   -582.04238    298.81837     78.81845    25.028237    16.354725 
   52400    240.72997   -289.81973    181563.75   -13239.258    990.24704   -14229.505   -467.75088    298.04699    78.819794    25.025031    16.344437 
   52600     241.2472   -290.32421    181563.75   -13258.749    992.37466   -14251.123   -490.54043    298.95699    78.818342     25.02737    16.327925 
   52800    234.82054   -230.55783    181563.75   -13326.314    965.93849   -14292.252   -258.70963    300.00855    78.819699     25.02777    16.326024 
   53000    231.99127   -516.36238    181563.75   -13347.894    954.30021   -14302.194   -1248.2831    300.62929    78.820303    25.022721    16.333133 
   53200    233.69127   -391.08444    181563.75   -13315.209     961.2932   -14276.502   -845.22363     298.5153     78.81903    25.018712    16.302235 
   53400    234.10124   -419.81257    181563.75   -13285.313    962.97964   -14248.292   -924.04178    299.82865    78.818276     25.01847     16.30708 
   53600    242.91013   -280.97407    181563.75   -13256.576    999.21517   -14255.791   -484.84515    298.14676    78.816813     25.01635    16.324278 
   53800    243.36527   -322.12091    181563.75   -13274.271    1001.0874   -14275.358   -601.37923     299.1096    78.814605    25.011296    16.371263 
   54000      238.029   -359.40141    181563.75   -13203.929    979.13654   -14183.065   -786.43412    300.46128    78.813928    25.012802     16.37913 
   54200    227.62589   -494.27476    181563.75   -13295.521    936.34317   -14231.864   -1180.1932    299.77952    78.813517    25.014146    16.385666 
   54400    233.89929   -431.29286    181563.75   -13294.933     962.1489   -14257.082   -949.13442    299.41983    78.813212    25.016443     16.37611 
   54600    237.78591   -314.94124    181563.75   -13274.474    978.13657    -14252.61   -549.30377    300.98948    78.809015    25.019559    16.390834 
   54800    246.94633    -316.7192    181563.75   -13212.457    1015.8181   -14228.276   -564.15062     302.6634    78.806439    25.022305    16.393084 
   55000    234.84034   -312.82641    181563.75     -13282.1    966.01994    -14248.12   -600.62777    302.47677    78.806063    25.024104    16.383384 
   55200     240.7735   -427.57256    181563.75   -13258.821     990.4261   -14249.247   -973.04065    305.17276    78.803213    25.023609    16.394745 
   55400    240.46002   -152.20228    181563.75   -13223.603    989.13658   -14212.739    21.399985    306.40708    78.800656     25.02802    16.411438 
   55600    232.51983    -278.3022    181563.75    -13254.16    956.47446   -14210.634   -407.55552    308.00062    78.797809    25.030756    16.399559 
   55800    240.55529   -174.48228    181563.75   -13308.233    989.52849   -14297.761   -13.306552    310.25653    78.794702     25.03176    16.388999 
   56000     230.9208   -468.23118    181563.75   -13298.652    949.89685   -14248.548   -1107.7246    313.25835    78.796317    25.036661    16.390393 
   56200    236.34363   -307.94886    181563.75    -13214.16    972.20373   -14186.363   -509.40192    310.30055    78.795515    25.033887    16.387725 
   56400    239.25678   -381.42503    181563.75   -13262.771    984.18703   -14246.958   -792.15545     311.6868    78.794806    25.033985    16.390165 
   56600    240.10413   -532.82216    181563.75   -13340.567    987.67264   -14328.239   -1351.2659    312.36779    78.794031    25.031156    16.382142 
   56800    227.78255    -386.8821    181563.75   -13378.014     936.9876   -14315.001   -799.21338    314.54302     78.79119    25.029793    16.384851 
   57000    222.93489   -252.70898    181563.75   -13353.245    917.04664   -14270.292   -354.98557    312.24824    78.791694    25.024406    16.364939 
   57200     240.9235   -128.52165    181563.75   -13353.934    991.04311   -14344.977    68.456418    312.11756    78.789098    25.025796    16.348761 
   57400     235.7856   -354.62644    181563.75   -13322.521    969.90828   -14292.429   -742.30669    314.66838    78.787166    25.025652    16.360213 
   57600    243.66446   -287.42376    181563.75   -13239.991    1002.3181   -14242.309   -492.69167    314.96471    78.785471    25.028831    16.340858 
   57800    240.29134   -371.15633    181563.75   -13273.153     988.4427   -14261.596   -698.84464    317.57431     78.78386    25.031673    16.342266 
   58000    250.40609   -477.19094    181563.75    -13246.72    1030.0499    -14276.77   -1141.7383    316.53385    78.781588    25.032707    16.351709 
   58200    241.10343   -251.17562    181563.75   -13293.488    991.78326   -14285.271   -349.71938    316.58538    78.782174    25.028232    16.356871 
   58400    238.00834   -368.28649    181563.75   -13290.933    979.05156   -14269.984   -740.01961    317.21342    78.782378    25.026768    16.364474 
   58600    238.21622   -421.06439    181563.75   -13283.861    979.90669   -14263.768   -952.61784    317.83379    78.781999    25.029798    16.383372 
   58800    239.34142   -320.66162    181563.75   -13316.584    984.53522   -14301.119   -611.38254    320.51393    78.782564    25.025221    16.385554 
   59000    235.24485   -351.68314    181563.75   -13333.316    967.68388       -14301   -654.91073    321.87209    78.782486    25.021432    16.371707 
   59200    234.80954   -360.38763    181563.75    -13321.92    965.89325   -14287.813   -746.03876    322.59421    78.784086    25.025803    16.369786 
   59400    244.45323   -218.69619    181563.75   -13292.573    1005.5627   -14298.136   -167.27838    322.92259    78.784933    25.027398    16.385782 
   59600    245.31525   -369.00097    181563.75   -13261.686    1009.1087   -14270.795   -751.80988    325.98723    78.787423    25.029731    16.378564 
   59800    241.57894   -338.98612    181563.75   -13267.538    993.73929   -14261.277   -640.44147    326.43021    78.790643    25.027965    16.361014 
   60000     238.2317   -324.39951    181563.75    -13309.72    979.97034    -14289.69   -608.89934     325.3444    78.791552    25.026618    16.345738 
   60200    239.32227   -417.71816    181563.75   -13271.577    984.45644   -14256.034   -923.74461     326.1237    78.791325    25.027947    16.349664 
   60400    240.42721   -410.50358    181563.75   -13327.066    989.00162   -14316.068   -883.61308    328.64434    78.787134    25.023857     16.32787 
   60600     235.1081   -389.90205    181563.75   -13297.964    967.12138   -14265.086   -835.40155    328.74212    78.787647    25.024198    16.326633 
   60800    233.15569   -258.29286    181563.75   -13315.841    959.09009   -14274.931    -341.0798    329.44209    78.788295    25.022803    16.313843 
   61000    237.82294    -282.9055    181563.75    -13351.24    978.28889   -14329.529   -442.20857    330.25487    78.789888    25.025088    16.316002 
   61200    236.84053   -427.27829    181563.75   -13332.303    974.24776   -14306.551   -939.94362    332.99289    78.789344    25.031252    16.309408 
   61400    237.10095   -430.96881    181563.75   -13342.944    975.31901   -14318.263   -944.82291    332.53602    78.790842    25.031939     16.31943 
   61600    240.23512   -323.15166    181563.75   -13328.211    988.21147   -14316.423   -603.27464    334.20462    78.793522    25.031095    16.335329 
   61800    242.06704   -303.50725    181563.75   -13297.944     995.7471   -14293.691   -519.28219      336.843    78.793488    25.026968    16.319793 
   62000      229.834   -484.05058    181563.75   -13319.936    945.42626   -14265.362    -1165.287     337.6107     78.79626    25.030151    16.315293 
   62200    244.59031   -459.35962    181563.75   -13251.895    1006.1266   -14258.022   -1088.8563    339.64193    78.794845    25.033465    16.296504 
   62400    240.47039   -322.70443    181563.75   -13242.935    989.17924   -14232.114   -605.47836     338.5258    78.793421    25.033587    16.296515 
   62600    231.66823   -408.54552    181563.75   -13336.325    952.97139   -14289.297   -871.30989    339.82591    78.790834    25.035275    16.305576 
   62800    242.23262   -379.81662    181563.75    -13327.51    996.42822   -14323.939   -798.34062    340.35303    78.792214    25.034613    16.289804 
   63000    239.64722   -247.99023    181563.75   -13306.856    985.79311   -14292.649   -293.79491    342.24489    78.792351    25.033745    16.298732 
   63200    230.69073   -210.70196    181563.75   -13361.495    948.95045   -14310.446   -139.86714    343.00588    78.791524    25.033834    16.309296 
   63400    237.23682   -332.03563    181563.75   -13292.528     975.8779   -14268.405    -629.3184    343.33713    78.795976    25.033424    16.307783 
   63600    246.03958   -272.33181    181563.75   -13238.744    1012.0882   -14250.832   -352.68266    345.81323    78.794569    25.032449    16.318515 
   63800    236.59911    -264.5594    181563.75   -13278.697    973.25466   -14251.952   -408.71022    346.20419    78.794748    25.031227    16.346978 
   64000    241.10411   -420.34467    181563.75    -13308.49    991.78607   -14300.276   -949.55955    345.29186    78.793615    25.033331    16.343844 
   64200    237.43452     -389.747    181563.75   -13290.912    976.69113   -14267.603   -866.95553    343.91271     78.79469    25.036586    16.327964 
   64400    241.36511   -333.49859    181563.75   -13251.445    992.85968   -14244.305   -669.66812    342.15287    78.795947    25.035484    16.340928 
   64600    238.93786   -347.63858    181563.75   -13268.174    982.87517   -14251.049   -709.42425    343.17511      78.7988    25.032005    16.337198 
   64800    242.29044   -347.97937    181563.75   -13243.266    996.66606   -14239.932   -655.89532     344.6751    78.793949    25.034726    16.330508 
   65000    238.08112   -368.61827    181563.75   -13293.073    979.35095   -14272.424   -719.88629    346.13761    78.789279    25.034004    16.329249 
   65200    232.40822   -330.29872    181563.75   -13270.452    956.01535   -14226.467    -635.8897    347.57129    78.786315    25.032084    16.307408 
   65400    250.78232   -389.92888    181563.75   -13135.505    1031.5976   -14167.102   -840.93358    349.44422     78.78454    25.031768    16.295419 
   65600     243.2088    -639.5289    181563.75   -13219.331    1000.4437   -14219.775   -1700.1795    352.04096    78.784264     25.03305    16.269932 
   65800    253.07252   -227.81684    181563.75   -13204.176    1041.0183   -14245.194   -247.43833     351.8232     78.78134    25.036785    16.304404 
   66000    238.15075    -385.7541    181563.75   -13275.667    979.63737   -14255.304   -772.15705    354.14704    78.776983    25.035122    16.305104 
   66200    245.96312   -309.71335    181563.75   -13283.645    1011.7737   -14295.419    -531.4399    354.37414    78.775127    25.037374    16.331546 
   66400     232.2206   -191.87387    181563.75   -13346.201    955.24358   -14301.444   -110.10175    353.49242     78.77427     25.03825    16.317345 
   66600    243.98948   -265.78218    181563.75   -13325.506    1003.6551   -14329.161   -411.71489    353.36269    78.774533    25.039457    16.289345 
   66800    241.66962   -136.39476    181563.75   -13340.611     994.1123   -14334.723    113.93257    354.25298    78.773196    25.038903    16.282852 
   67000    233.92762   -299.12478    181563.75   -13363.851    962.26543   -14326.117   -482.45625    356.35603    78.773152     25.04071     16.30377 
   67200    228.14342   -240.77687    181563.75   -13353.552    938.47203   -14292.024   -299.34664    355.95495    78.774083    25.045149    16.297893 
   67400    241.06179   -245.11422    181563.75   -13310.145    991.61198   -14301.757   -293.40868     356.2873    78.776116    25.051787    16.292805 
   67600    231.47381   -467.60306    181563.75   -13317.297    952.17167   -14269.469    -1093.899    357.32706     78.77668    25.051847    16.335739 
   67800     239.4383   -365.31163    181563.75   -13289.062    984.93371   -14273.996   -726.41126    357.27264    78.778614    25.051548    16.306295 
   68000    244.71674   -257.04172    181563.75   -13301.088    1006.6467   -14307.735   -351.07109    355.78023    78.781046    25.050942    16.305666 
   68200    237.84245   -316.77413    181563.75   -13301.054    978.36917   -14279.423    -545.6584    357.96209    78.781908    25.045222    16.293453 
   68400    242.78995   -331.27617    181563.75   -13257.149     998.7208   -14255.869   -635.83748      358.135    78.779618    25.041202     16.29059 
   68600    234.52225   -558.33474    181563.75   -13326.285    964.71148   -14290.996   -1425.3817    359.54782    78.779722     25.04272    16.240748 
   68800    241.84483   -291.47439    181563.75   -13243.531    994.83302   -14238.364   -458.26987    358.36725    78.777306    25.039502    16.257617 
   69000    243.51141   -382.08609    181563.75   -13212.448    1001.6885   -14214.137   -770.16082    360.44464     78.77862    25.039566    16.282151 
   69200    239.51438   -464.14511    181563.75   -13257.773     985.2467    -14243.02   -1081.4563      361.718    78.778305    25.038673     16.27353 
   69400    233.16679   -449.70153    181563.75   -13336.939    959.13575   -14296.074   -1015.8513    364.76977    78.782189    25.040213    16.288917 
   69600    243.17942   -267.59519    181563.75   -13267.165    1000.3229   -14267.488   -428.43655    366.53326     78.78677    25.034627    16.275688 
   69800    239.29156   -316.67808    181563.75   -13240.342     984.3301   -14224.673    -534.0442    366.84694    78.789179    25.035147    16.261301 
   70000    237.06275     -220.228    181563.75   -13310.029    975.16187   -14285.191   -242.55965    370.16013    78.785089    25.036771    16.268708 
   70200    240.13744   -411.72191    181563.75   -13276.265    987.80967   -14264.074   -927.39698    371.03881    78.784616     25.03893    16.264568 
   70400    232.28549   -303.77057    181563.75   -13260.822    955.51053   -14216.333   -466.17333     373.5735    78.783694    25.045396    16.250434 
   70600    237.33726   -402.07833    181563.75     -13254.9    976.29105   -14231.191   -817.94643    373.94734    78.785197     25.04583      16.2659 
   70800    238.34068   -331.73743    181563.75   -13258.227    980.41864   -14238.646   -600.29724    374.83154    78.784502    25.046823    16.278129 
   71000    241.38022   -246.80541    181563.75   -13227.058    992.92184    -14219.98   -285.31359    375.63806    78.785196    25.041816    16.257682 
   71200    252.56916   -210.91553    181563.75   -13144.236    1038.9478   -14183.184   -185.27578    377.51244     78.78586     25.03443    16.258459 
   71400    235.35594   -431.55286    181563.75   -13263.099    968.14087    -14231.24    -942.8138    380.03237    78.786655    25.033443    16.243818 
   71600    240.76499   -392.50243    181563.75   -13282.301    990.39109   -14272.692   -772.21583    381.23026    78.784814    25.034378    16.244511 
   71800     242.1882    -270.1881    181563.75   -13290.992     996.2455   -14287.237    -372.9203    381.07435    78.780559     25.03575    16.250601 
   72000    243.58283   -275.61622    181563.75   -13269.527    1001.9823    -14271.51   -373.45063    381.48021    78.780455    25.037637    16.251105 
   72200    242.87159   -353.61671    181563.75   -13282.726    999.05664   -14281.783   -662.67451      382.607    78.781792    25.037938    16.261102 
   72400    244.12373   -363.31273    181563.75   -13263.847    1004.2073   -14268.055   -738.87392    384.92652    78.781189    25.038671    16.251478 
   72600      238.037   -410.41492    181563.75   -13255.589    979.16944   -14234.758   -884.48182    385.86904    78.783972    25.040984    16.240337 
   72800    233.43343   -400.07397    181563.75   -13315.036     960.2326   -14275.269    -876.7189    386.20711    78.786117    25.038649    16.227142 
   73000    234.90013   -335.62285    181563.75   -13276.129    966.26587   -14242.394   -593.48032     385.9261    78.783483     25.03639    16.230869 
   73200    241.72426   -392.62563    181563.75   -13228.811    994.33708   -14223.148   -819.39573    387.83678    78.781271    25.036019     16.21917 
   73400    241.20503   -217.94636    181563.75   -13257.236     992.2012   -14249.438   -183.78365    388.66657    78.782744    25.041023    16.221812 
   73600    243.52214   -241.10499    181563.75   -13239.912    1001.7327   -14241.644   -281.23748    390.51692    78.783128    25.041713    16.207267 
   73800    253.67088   -389.25277    181563.75   -13182.876    1043.4797   -14226.356   -867.05184    389.93415    78.780781    25.044838    16.234756 
   74000    241.34981   -366.39954    181563.75   -13188.957    992.79678   -14181.753   -747.53385    389.87925    78.779544    25.046074     16.25844 
   74200     245.0519   -295.72598    181563.75   -13195.076    1008.0254   -14203.101   -502.96653    390.51028    78.780664    25.047061    16.262993 
   74400    236.45826   -442.28961    181563.75   -13243.474    972.67526   -14216.149   -1024.4178    394.33595    78.778075    25.049749    16.268717 
   74600    234.60457   -410.46375    181563.75   -13259.175    965.05009   -14224.226   -911.50536    392.93757    78.775544     25.05552    16.240242 
   74800    242.65654   -349.33437    181563.75   -13218.619    998.17201   -14216.791   -660.20045    396.46277    78.773153     25.05549    16.229558 
   75000    245.49591   -237.15299    181563.75    -13248.26    1009.8518   -14258.112   -260.66726    396.34314    78.772427    25.054567    16.235081 
   75200     243.4326   -315.34052    181563.75   -13259.413    1001.3644   -14260.777   -573.87249    397.94321    78.775759    25.058441    16.241909 
   75400     242.6344   -440.93558    181563.75   -13215.722    998.08095   -14213.803    -997.3919    396.82559    78.778577    25.058845    16.256085 
   75600    236.80475   -252.14659    181563.75   -13280.158    974.10058   -14254.259   -288.87132    396.85458    78.778727    25.060373    16.269349 
   75800    245.71226   -395.74729    181563.75   -13262.244    1010.7418   -14272.986   -847.01962    399.24262    78.778091    25.061655    16.264672 
   76000    237.14545    -492.8832    181563.75   -13269.989    975.50204   -14245.491   -1166.5807    400.16025      78.7778    25.061271    16.307575 
   76200    235.37129   -478.96835    181563.75   -13330.244    968.20401   -14298.448   -1116.3103    400.32555    78.780018    25.058719    16.311116 
   76400    232.10288   -398.28801    181563.75   -13316.687    954.75934   -14271.446   -835.16621    401.74615    78.781571    25.059846    16.297081 
   76600    236.28651   -379.34599    181563.75   -13270.623     971.9688   -14242.592   -826.76692    402.65022    78.780155    25.060718    16.294055 
   76800    238.68802   -302.90434    181563.75   -13253.157    981.84744   -14235.004   -523.84507    404.69599    78.780669     25.06379    16.285554 
   77000    237.80022   -238.05609    181563.75   -13297.201    978.19543   -14275.397   -291.38849    405.60372    78.779998    25.068141    16.303904 
   77200    236.34754   -489.44386    181563.75   -13276.549    972.21982   -14248.769     -1179.75    406.57383    78.780089    25.068541    16.277516 
   77400    235.11874   -317.64101    181563.75   -13254.858    967.16512   -14222.023   -563.41255    408.86388    78.784767    25.071305    16.266523 
   77600    239.82018   -425.34324    181563.75   -13270.671     986.5046   -14257.176   -941.45511    410.35102    78.789408    25.067487    16.251692 
   77800    243.99632   -589.96521    181563.75   -13281.729    1003.6832   -14285.412   -1552.7231    413.15891    78.790512    25.070435    16.270893 
   78000     226.3622   -260.21179    181563.75   -13364.367    931.14494   -14295.512   -306.82133    412.50943    78.793254    25.070357    16.276247 
   78200    237.17128   -294.81603    181563.75   -13280.785    975.60831   -14256.393    -457.0478    412.60053    78.793661    25.071731    16.246814 
   78400    236.72338   -477.67965    181563.75   -13286.341    973.76585   -14260.107    -1152.702    414.60612    78.793038     25.07121     16.24494 
   78600    237.66379   -299.44344    181563.75   -13358.435    977.63425   -14336.069   -491.35597    415.26007    78.791785    25.072092    16.296625 
   78800    236.07135   -248.09144    181563.75   -13349.637     971.0837   -14320.721   -250.60292    416.66575    78.792657    25.072681    16.277901 
   79000    243.25676   -477.05101    181563.75   -13301.288     1000.641   -14301.929   -1110.5751    418.25757    78.790056    25.074762    16.253784 
   79200    238.99846   -234.93092    181563.75   -13279.308    983.12446   -14262.432   -256.75918    417.35736    78.790738    25.076782    16.264797 
   79400    232.97863   -441.45738    181563.75   -13353.811    958.36175   -14312.172   -994.88037    418.61629    78.790906    25.079002    16.274309 
   79600    244.01293   -383.62971    181563.75   -13331.734    1003.7515   -14335.485   -769.02017    420.37258    78.789598    25.082352    16.262207 
   79800    235.56537   -456.37466    181563.75     -13341.8    969.00237   -14310.802   -1026.5804    424.50251    78.791998    25.079394    16.234773 
   80000    240.55966    -492.0172    181563.75   -13342.181    989.54646   -14331.727   -1193.4341     423.5784     78.79306    25.075761    16.242941 
   80200    251.42173   -290.58584    181563.75   -13277.631    1034.2278   -14311.859   -454.95528    418.54447    78.794956    25.070647     16.22354 
   80400    238.91563   -483.52407    181563.75    -13288.67    982.78371   -14271.454   -1151.4142    419.06171    78.797734    25.070138    16.238595 
   80600    247.77774   -407.66626    181563.75   -13240.257    1019.2382   -14259.495   -877.83601    419.42203     78.79221    25.071382    16.232537 
   80800    240.86009   -460.15866    181563.75   -13325.927    990.78229   -14316.709   -1074.0122    420.11707     78.79164    25.072507    16.238523 
   81000     246.0435   -456.07762    181563.75   -13265.264    1012.1043   -14277.369        -1061     420.7499    78.791192    25.074894    16.244485 
   81200    244.61586   -296.27414    181563.75   -13315.872    1006.2317   -14322.104   -484.89748    420.22543    78.786433    25.073243    16.236108 
   81400    244.58689   -353.39596    181563.75   -13361.389    1006.1126   -14367.501   -709.18587    419.23716    78.782008    25.068946    16.231315 
   81600     238.8577   -464.87885    181563.75   -13347.477    982.54541   -14330.022   -1103.4538    422.02535     78.77613    25.066305    16.225035 
   81800     232.9781   -365.74081    181563.75   -13335.563    958.35958   -14293.923   -742.28409    422.60903    78.774101    25.069111    16.270798 
   82000    237.72533   -479.13495    181563.75   -13301.807    977.88741   -14279.695   -1138.6989    423.02249    78.773046    25.065196    16.264372 
   82200    247.61405     -403.275    181563.75   -13344.624    1018.5648   -14363.189   -838.17946    422.32518    78.776559    25.066975     16.25757 
   82400    236.12136    -338.0116    181563.75    -13381.76    971.28944   -14353.049    -650.3297    423.10691    78.775738    25.070365    16.262348 
   82600    246.77546   -461.25053    181563.75   -13390.192    1015.1153   -14405.308   -1070.7832    423.95038    78.775113    25.070699    16.287704 
   82800    243.55499   -440.74177    181563.75   -13383.995    1001.8678   -14385.863   -1007.6282    423.06628    78.772544    25.074105    16.289949 
   83000    243.29352   -440.26124    181563.75   -13357.235    1000.7923   -14358.027   -1019.3038     423.7184    78.773876    25.080014    16.300543 
   83200    241.16745   -189.79062    181563.75   -13337.673    992.04661   -14329.719   -101.71569    423.33752    78.779597    25.081463    16.309587 
   83400    240.44324   -415.06006    181563.75   -13342.411    989.06755   -14331.479    -911.8162    426.29517    78.778836    25.080928    16.331653 
   83600    246.37169   -437.46117    181563.75   -13328.605    1013.4543   -14342.059     -989.028     425.7156    78.779127    25.081835    16.332289 
   83800    234.38888   -438.85366    181563.75    -13410.98    964.16283   -14375.143   -1005.9546    427.93979    78.775641    25.083963    16.351357 
   84000    231.19903   -357.13352    181563.75    -13383.03    951.04135   -14334.071   -720.84076    427.85485    78.776397    25.084287    16.338263 
   84200    238.20546   -472.87819    181563.75   -13371.374    979.86242   -14351.237   -1155.2878    429.21446     78.78139    25.089237    16.365458 
   84400    241.05026    -517.2347    181563.75   -13335.852    991.56453   -14327.417   -1279.1172    428.78795    78.783156    25.090076    16.385138 
   84600    238.09278   -337.02332    181563.75    -13308.78    979.39892   -14288.179   -658.42784     425.7072    78.784178    25.092465    16.370739 
   84800    241.58732   -338.93571    181563.75   -13308.162    993.77376   -14301.936   -682.92988    424.82445    78.788476    25.090976    16.340741 
   85000    224.60268     -307.504    181563.75   -13301.818    923.90714   -14225.725   -537.19947    423.78167    78.794322    25.086913    16.361929 
   85200    247.36632   -334.41035    181563.75   -13194.705    1017.5458    -14212.25   -611.22681    427.19829    78.799966    25.084043    16.346407 
   85400    229.16649   -410.50901    181563.75   -13271.015    942.68046   -14213.696   -880.25725    429.27589    78.802194     25.08423    16.358125 
   85600    237.38733   -338.03449    181563.75   -13308.291    976.49702   -14284.788   -657.87184     428.7197    78.801831    25.083268    16.372637 
   85800    238.07558   -343.07679    181563.75   -13255.981    979.32815   -14235.309   -663.74836    428.79435    78.800933    25.079183    16.383049 
   86000    243.56069   -359.75044    181563.75   -13257.112    1001.8912   -14259.003   -734.31776    429.04888    78.799108    25.076362    16.376211 
   86200     234.3242   -337.21755    181563.75   -13312.919    963.89679   -14276.816   -635.91202    430.41499    78.796846    25.079867    16.367532 
   86400    235.69397   -297.38966    181563.75   -13310.922    969.53136   -14280.453   -493.67865    430.14483    78.798519    25.079294    16.356128 
   86600    244.63707   -527.19476    181563.75   -13284.044     1006.319   -14290.363   -1314.3659    433.24165    78.794781    25.079459    16.340764 
   86800    237.95863   -341.82523    181563.75   -13315.919    978.84706   -14294.766   -724.16575    432.78788    78.793119    25.081248     16.33785 
   87000    238.72959   -269.74094    181563.75   -13341.089    982.01845   -14323.107   -410.51369      433.497    78.791461    25.080796    16.333398 
   87200    241.14311   -448.16714    181563.75   -13311.706    991.94651   -14303.652   -1015.9513    436.40664    78.793611    25.084242    16.355566 
   87400    239.11379   -324.86476    181563.75   -13323.736    983.59884   -14307.334   -581.61099    436.89772    78.797393    25.087271    16.350245 
   87600    242.65631   -350.60628    181563.75   -13310.165    998.17106   -14308.336   -676.39425    438.73894    78.800399    25.087701    16.340206 
   87800    236.49582   -278.70975    181563.75   -13351.223    972.82978   -14324.053   -434.07132    441.43659    78.803245    25.084424    16.344155 
   88000    249.69717   -330.61399    181563.75   -13261.421    1027.1338   -14288.555   -618.02625    442.89202    78.804335    25.085515    16.344772 
   88200    240.46224   -390.11753    181563.75   -13249.779    989.14574   -14238.925   -867.36591    444.32126     78.80873     25.08527     16.35112 
   88400    236.99421   -410.10122    181563.75   -13284.853    974.87991   -14259.733   -877.24904    445.30652    78.808089    25.084589    16.360697 
   88600    234.29277   -324.51957    181563.75   -13330.521    963.76749   -14294.288   -614.73795    445.87217     78.81012    25.085884    16.335934 
   88800    231.53444   -346.68632    181563.75   -13357.472    952.42104   -14309.893   -709.00748     446.8823    78.810619     25.08578    16.343411 
   89000    231.16642   -225.11485    181563.75   -13388.408     950.9072   -14339.315   -200.55218    446.37771    78.812896    25.084407    16.337936 
   89200    228.55208   -453.81781    181563.75   -13394.918    940.15305   -14335.071   -1063.9576    448.50046    78.813751    25.086058    16.358509 
   89400    240.43329   -348.95932    181563.75   -13333.788    989.02662   -14322.815   -694.35988    450.41528    78.814491    25.084922    16.363685 
   89600    229.43722   -412.31979    181563.75    -13378.58     943.7941   -14322.374   -916.06384    449.31873     78.81357    25.080549    16.360901 
   89800    237.16428   -424.58344    181563.75   -13295.364    975.57948   -14270.944   -964.01799    450.31714     78.81034    25.081712    16.334001 
   90000    242.93852    -283.5347    181563.75   -13261.375    999.33196   -14260.707    -470.3267    449.85474    78.812514    25.084711    16.325346 
   90200    234.89261   -426.13306    181563.75   -13344.427    966.23495   -14310.662   -946.29173    450.86853     78.81043    25.085233    16.319648 
   90400    229.07908   -396.90548    181563.75   -13391.176     942.3209   -14333.497   -822.95385    450.10012    78.805887    25.085543    16.332043 
   90600    246.18811   -228.91336    181563.75    -13290.05    1012.6992   -14302.749   -235.53289    449.37581    78.802796     25.08232     16.34259 
   90800    254.44354   -459.55281    181563.75    -13274.34    1046.6581   -14320.998   -1089.9554     450.5918    78.802804    25.078959    16.337768 
   91000    229.50541   -397.77524    181563.75   -13313.355    944.07463   -14257.429   -828.50732    451.94574    78.801293    25.077619      16.3531 
   91200    248.88411   -250.62305    181563.75   -13282.752    1023.7892   -14306.541   -325.96186    450.10884    78.804521    25.076572    16.331008 
   91400    227.15377   -508.92782    181563.75   -13364.619    934.40109    -14299.02   -1249.4718    452.78555     78.80442    25.075149    16.339712 
   91600    244.44429    -394.2719    181563.75   -13252.362     1005.526   -14257.888   -838.43262    454.52724    78.808561    25.075194    16.363939 
   91800    239.94872   -418.47059    181563.75   -13258.667    987.03336   -14245.701   -920.60326    456.34313    78.807101    25.070258    16.385286 
   92000    242.91205   -338.45188    181563.75   -13251.446    999.22308   -14250.669   -653.88877    456.60537    78.808851    25.073237    16.386807 
   92200    249.67451   -301.92264    181563.75   -13244.198    1027.0406   -14271.238   -556.91237    457.17068    78.813917    25.078091    16.395822 
   92400    240.04462   -352.73143    181563.75   -13200.238    987.42783   -14187.666   -737.06114    456.52558    78.814652    25.080587    16.408734 
   92600    234.11254   -382.30392    181563.75   -13247.542    963.02611   -14210.568   -766.81029     460.8029    78.811931    25.082314    16.390868 
   92800    239.97076   -326.14593    181563.75   -13284.156      987.124    -14271.28   -624.84648    458.28025    78.807545    25.081963    16.419701 
   93000      240.881   -436.04049    181563.75   -13324.924    990.86832   -14315.793    -958.8942    459.37051    78.807876    25.083367    16.406957 
   93200    240.13573   -321.82992    181563.75   -13301.658    987.80261    -14289.46   -541.71474    460.29353    78.807184    25.082802    16.395868 
   93400    238.89774   -254.12071    181563.75   -13293.323    982.71014   -14276.033    -337.1854    461.44092    78.806455    25.079543    16.382549 
   93600    247.50698   -372.17174    181563.75   -13284.707    1018.1244   -14302.831    -758.4022    460.26511    78.805344    25.076312    16.385493 
   93800    246.93149   -288.11173    181563.75   -13241.347    1015.7571   -14257.104   -472.04912    460.71091    78.805223    25.076846    16.386888 
   94000    231.96123    -403.5736    181563.75   -13288.976    954.17665   -14243.153   -833.12084    460.78626    78.804532    25.077098    16.379359 
   94200    254.33532   -314.70598    181563.75   -13210.362    1046.2129   -14256.575   -575.78437    462.27105    78.803677    25.079415    16.390593 
   94400    249.34203   -420.84571    181563.75   -13212.798    1025.6729   -14238.471   -935.84207    463.00017    78.805315    25.082411    16.405825 
   94600    248.14203   -144.90786    181563.75   -13239.206    1020.7367   -14259.943    64.926325    465.22625    78.804309    25.084663    16.399481 
   94800    249.32529    -286.9036    181563.75   -13185.677     1025.604   -14211.281   -454.13043    466.38385    78.807495    25.087151    16.375688 
   95000    240.12594   -350.23165    181563.75   -13275.569    987.76235   -14263.332   -683.88963    470.14256    78.807975     25.08757    16.390416 
   95200     239.8857   -336.84741    181563.75   -13259.294    986.77412   -14246.068   -643.72796    470.81409    78.804332    25.087737    16.411895 
   95400     236.0099   -437.37658    181563.75   -13288.569    970.83093     -14259.4   -987.97593    473.43971    78.805083    25.090528    16.420288 
   95600    239.57042    -235.3023    181563.75   -13316.601    985.47722   -14302.078   -254.09819    474.26068    78.804745    25.089544    16.397203 
   95800    236.64957   -509.23394    181563.75   -13338.166    973.46223   -14311.629    -1209.949    475.85342    78.802586    25.090263     16.39387 
   96000    237.86648   -324.89639    181563.75   -13368.772    978.46802    -14347.24   -581.44753    476.29725    78.803267    25.092382    16.396812 
   96200    231.29533   -230.49151    181563.75   -13381.184    951.43746   -14332.621   -228.34376    476.81755    78.806641    25.092175    16.393336 
   96400    245.84331   -236.67684    181563.75   -13350.341    1011.2809   -14361.622   -296.66567    477.79904    78.810767    25.095113    16.393654 
   96600    234.32198   -334.60742    181563.75   -13385.349    963.88766   -14349.237   -628.07619    476.81132    78.812835    25.098928    16.389355 
   96800    241.12497   -515.73342    181563.75   -13304.197    991.87187   -14296.069   -1257.4082     480.2859    78.813494    25.101785    16.396771 
   97000     236.4286   -406.46323    181563.75   -13318.243    972.55329   -14290.796    -851.5162     477.4284     78.81162    25.102799    16.396827 
   97200    238.43418   -474.92119    181563.75   -13294.594    980.80324   -14275.397   -1155.1774    481.66736    78.811456    25.103085    16.406045 
   97400    241.16003   -573.40372    181563.75   -13393.557    992.01608   -14385.573   -1461.1946    480.83043    78.813118    25.101592    16.417093 
   97600    241.39722   -451.19119    181563.75   -13353.779    992.99178    -14346.77   -1041.0843    482.46888    78.811215    25.102899    16.400784 
   97800    241.91805   -349.22564    181563.75   -13327.595    995.13422   -14322.729   -703.79057    481.03902    78.810896    25.104228    16.411341 
   98000    240.67802   -371.51893    181563.75    -13372.62    990.03332   -14362.653   -736.22971    482.09663    78.808535    25.101363    16.403876 
   98200    238.29309   -388.88931    181563.75   -13353.398    980.22289   -14333.621   -834.20431    481.40639     78.80735    25.104607    16.403664 
   98400    246.27961   -165.44569    181563.75   -13325.546    1013.0756   -14338.622   -33.623402    482.32104    78.806976     25.10935    16.411862 
   98600    243.20941   -257.12502    181563.75   -13314.946    1000.4462   -14315.393   -326.22693    484.60398    78.809971    25.110178    16.404198 
   98800    251.95065   -438.97657    181563.75   -13212.042    1036.4035   -14248.446   -1000.1492    486.48839    78.812126    25.107144    16.436855 
   99000    239.18643   -352.46057    181563.75   -13226.536    983.89766   -14210.434   -717.95418    485.23023    78.808559    25.106633    16.426722 
   99200    239.77727   -283.83671    181563.75   -13227.326    986.32809   -14213.654   -419.55048     487.7812    78.808077    25.105018    16.396452 
   99400    250.65235    -329.1381    181563.75   -13222.104    1031.0629   -14253.167   -605.11142    490.13286    78.810258    25.106086    16.419407 
   99600    248.03557   -364.75831    181563.75   -13257.866    1020.2987   -14278.165   -751.59484    493.23824     78.81213    25.106203    16.429326 
   99800    242.15354   -424.19578    181563.75   -13254.426    996.10289   -14250.528   -975.08697    494.01887    78.814228    25.111109    16.443232 
  100000    241.22009   -416.72155    181563.75    -13289.92    992.26313   -14282.183   -952.13464    493.80918     78.81439    25.111938    16.445161 
  100200    242.29542   -467.04136    181563.75   -13215.556    996.68654   -14212.242   -1102.0648    494.07479     78.81317    25.110826    16.425969 
  100400    232.64292   -357.42716    181563.75   -13244.247     956.9808   -14201.227   -680.64721    492.16898       78.816    25.111343    16.432132 
  100600     240.6036   -505.76367    181563.75   -13313.537    989.72721   -14303.265   -1269.0056    492.97313    78.817641    25.111046    16.406416 
  100800    243.25834   -397.92819    181563.75   -13264.406    1000.6475   -14265.054   -849.18707    494.29744    78.815777    25.113474    16.402273 
[...]
 5175800    227.11738   -450.95786    181563.75   -14727.406     934.2514   -15661.657   -941.51797    4333.1504    77.157076    25.516323    16.483186 
 5176000    230.85338   -480.32664    181563.75   -14688.596    949.61952   -15638.215   -1090.2217    4329.1439    77.159143    25.515367    16.477187 
 5176200    223.39045   -252.52258    181563.75   -14699.782    918.92061   -15618.703   -288.37022    4326.5685    77.158658    25.514037    16.479225 
 5176400    220.31681    -331.5405    181563.75   -14740.168    906.27715   -15646.445   -533.49046    4330.3753    77.159917    25.512615     16.48397 
 5176600    234.10828   -406.40813    181563.75    -14695.18    963.00858   -15658.189   -746.85638    4331.2212    77.160671    25.511341    16.477055 
 5176800    217.88196   -336.65973    181563.75   -14713.432    896.26134   -15609.693   -606.27045    4329.0271    77.158738    25.510871      16.4821 
 5177000    227.28331   -322.19404    181563.75   -14724.104    934.93394   -15659.038   -551.59162      4328.93    77.160717    25.511383    16.479831 
 5177200    225.49594    -421.4367    181563.75   -14667.139    927.58157   -15594.721   -859.20221    4331.4515     77.16002    25.509341    16.481095 
 5177400    221.06524   -365.00221    181563.75   -14684.835    909.35583   -15594.191   -636.39084    4331.9645    77.162033    25.508603    16.476176 
 5177600    222.91297   -311.46539    181563.75   -14692.243    916.95647     -15609.2   -494.68955    4326.4668    77.161568    25.508643    16.480983 
 5177800    224.24459   -340.44325    181563.75   -14705.652    922.43413   -15628.087   -561.33588    4330.9189    77.159367    25.509997    16.479727 
 5178000    233.30541   -501.47766    181563.75   -14696.658    959.70597   -15656.364   -1130.1764    4332.1793     77.16126    25.512185    16.480473 
 5178200     222.3364   -334.91194    181563.75   -14710.563    914.58474   -15625.148   -540.03751    4327.8039    77.160882    25.510768    16.477554 
 5178400    223.42693   -276.46301    181563.75   -14684.142    919.07069   -15603.213   -322.77327    4328.8184    77.159565    25.510958    16.474882 
 5178600    227.01494    -402.6322    181563.75    -14677.84    933.82999    -15611.67   -767.18932    4328.1027    77.158001    25.509145    16.476894 
 5178800    227.23273   -460.32418    181563.75   -14648.335    934.72589   -15583.061   -1017.4941    4330.9667    77.157925    25.508856    16.478425 
 5179000     238.3398    -345.7325    181563.75   -14645.602    980.41502   -15626.017   -619.92006    4329.2055    77.158913    25.509522    16.481096 
 5179200    222.55482   -302.66172    181563.75   -14677.424    915.48325   -15592.908   -422.50039    4326.5519    77.158629    25.507721    16.476879 
 5179400    230.94229   -360.65133    181563.75   -14690.517    949.98523   -15640.502   -648.01529    4331.6335    77.159687    25.508395    16.477123 
 5179600    218.84656   -390.61035    181563.75   -14715.383    900.22922   -15615.612   -782.89697    4329.6918    77.159145    25.509972    16.473419 
 5179800    226.24647   -364.14051    181563.75   -14672.264    930.66892   -15602.932   -655.18058    4327.8033    77.157677    25.508849    16.472599 
 5180000    223.87924   -374.78671    181563.75    -14702.17    920.93124   -15623.101   -685.91659    4332.0236    77.157892    25.509348     16.47974 
 5180200    224.95318   -347.46979    181563.75   -14690.911    925.34894   -15616.259   -591.81057    4328.2517    77.158622    25.508371    16.473394 
 5180400    227.99789   -350.76449    181563.75   -14667.979    937.87338   -15605.852   -603.74567    4331.9078    77.158296    25.507358    16.475856 
 5180600    228.18554   -339.23955    181563.75   -14726.067     938.6453   -15664.712   -565.34153    4328.8432    77.162359    25.506782    16.480887 
 5180800    228.45419   -314.05925    181563.75   -14703.302    939.75039   -15643.052   -440.75606    4326.4938    77.159967    25.505509    16.474367 
 5181000    218.71702   -429.96421    181563.75   -14705.586    899.69639   -15605.283   -899.34962     4332.654    77.160399    25.504163    16.475995 
 5181200     226.3916   -430.23096    181563.75   -14682.851    931.26588   -15614.116   -909.82569    4331.0805    77.160754    25.505166    16.477762 
 5181400    226.44552   -310.26005    181563.75   -14672.203    931.48768    -15603.69   -470.40905    4328.7185    77.156902    25.500855     16.47579 
 5181600    226.30023   -405.73354    181563.75   -14671.702    930.89002   -15602.592   -797.54138    4331.3265    77.156533     25.50127     16.48664 
 5181800    232.06267   -488.72738    181563.75   -14648.557    954.59394   -15603.151   -1096.0374    4328.8388    77.157822    25.498264    16.477403 
 5182000    221.19065    -397.5967    181563.75   -14721.659     909.8717   -15631.531   -803.84377    4329.6478    77.157503    25.498378    16.476347 
 5182200    213.38426    -334.4625    181563.75   -14788.812    877.75997   -15666.572   -544.16906    4327.8392    77.156999    25.498597    16.478908 
 5182400    230.10917   -335.62006    181563.75   -14686.687     946.5582   -15633.245   -549.27673    4327.7293    77.156866    25.496338    16.482079 
 5182600    226.75013   -389.70316    181563.75   -14670.135     932.7407   -15602.875    -732.0404    4333.0489    77.157518    25.495475    16.483368 
 5182800    230.06804   -355.65488    181563.75   -14697.742      946.389   -15644.131   -640.85849    4327.5053    77.157608    25.496656    16.485249 
 5183000    222.64382   -306.63973    181563.75   -14684.722    915.84933   -15600.572   -438.38078    4326.2109    77.156514    25.496601    16.480955 
 5183200    223.97145   -411.70238    181563.75   -14656.427    921.31057   -15577.738   -816.11928    4329.7194    77.154451    25.498035    16.480057 
 5183400    221.31058   -451.58204    181563.75   -14715.932    910.36501   -15626.297    -986.3488    4328.2705    77.155316     25.49959    16.478394 
 5183600    225.01565   -357.03288    181563.75   -14699.569    925.60589   -15625.175   -632.90319     4326.559    77.156687    25.500177    16.479426 
 5183800    217.61695   -378.00837    181563.75   -14728.263    895.17121   -15623.434   -722.94159    4330.9878    77.155473    25.501757     16.48036 
 5184000    224.13602   -433.90259    181563.75   -14706.126    921.98752   -15628.113    -942.3399    4327.7547    77.155456    25.501073    16.475431 
 5184200    222.62695   -417.97338    181563.75   -14692.651    915.77995   -15608.431   -872.31552    4328.8758    77.155129    25.500743    16.482217 
 5184400    223.86502   -338.79523    181563.75   -14695.583    920.87277   -15616.456   -555.59611    4329.4734    77.154941     25.50195    16.483508 
 5184600    223.54875   -321.90485    181563.75    -14674.68    919.57177   -15594.252   -465.47742    4324.8289    77.154634    25.501064    16.477174 
 5184800    234.79281   -375.82335    181563.75   -14639.916     965.8244    -15605.74   -703.11841    4329.7216    77.154139    25.501138     16.47895 
 5185000    231.46557   -346.30446    181563.75   -14635.525    952.13776   -15587.663   -578.38386    4329.9288    77.156318    25.501369    16.478562 
 5185200     231.0028    -436.6753    181563.75   -14686.105    950.23413   -15636.339   -895.45949    4326.1265    77.156178    25.500856    16.477385 
 5185400    228.52341    -358.7263    181563.75   -14700.679    940.03512   -15640.714   -638.21127    4331.6298    77.157791    25.503096    16.473687 
 5185600    218.77036   -388.65789    181563.75   -14752.703    899.91578   -15652.619   -756.28774    4327.4071    77.158085    25.506076    16.480112 
 5185800    224.32155   -343.78211    181563.75   -14692.609    922.75071    -15615.36     -602.655    4327.2078    77.157345    25.506849    16.479786 
 5186000    225.50893   -303.31823    181563.75   -14654.543    927.63499   -15582.178   -395.88336    4331.8339    77.159863    25.506679     16.48522 
 5186200    232.88307   -315.54559    181563.75   -14643.168    957.96867   -15601.136    -475.9882    4327.5001    77.160181     25.50625    16.480467 
 5186400    218.04399   -359.78701    181563.75   -14713.455    896.92784   -15610.383   -643.94078    4329.9816    77.160171    25.507478    16.477992 
 5186600    224.08543    -359.1612    181563.75   -14697.968     921.7794   -15619.748    -642.1313    4329.4126    77.162901     25.50842    16.482785 
 5186800     234.6599    -353.9183    181563.75   -14666.158     965.2777   -15631.435   -602.08568    4327.0759    77.162817    25.506777    16.479246 
 5187000    224.40735   -449.96738    181563.75   -14699.967    923.10364    -15623.07   -974.21789    4330.3107    77.162779     25.50557    16.477184 
 5187200    225.37166   -359.33433    181563.75   -14677.646    927.07033   -15604.716   -595.83131      4328.61    77.164669    25.506686    16.483343 
 5187400    221.19385   -450.87481    181563.75   -14731.629    909.88486   -15641.514   -1010.1244    4326.0322    77.163878    25.507183    16.480413 
 5187600    220.97312   -338.09197    181563.75   -14707.487    908.97688   -15616.464    -540.6839    4331.1884      77.1636    25.507779    16.484106 
 5187800    223.79145   -418.16404    181563.75   -14687.983    920.57011   -15608.554   -888.38294    4328.0113     77.16392    25.508862    16.480803 
 5188000    225.64437   -364.83569    181563.75   -14713.531    928.19213   -15641.724   -672.27351    4327.6231     77.16306    25.508024    16.481092 
 5188200    228.98517   -280.95367    181563.75   -14676.269    941.93457   -15618.203   -359.36214    4330.1523    77.164302    25.507808    16.478668 
 5188400    216.04132   -333.62037    181563.75    -14687.38    888.68983    -15576.07   -542.25683    4325.4169     77.16346    25.507668    16.474404 
 5188600    227.60533   -410.90347    181563.75   -14712.572    936.25859   -15648.831   -774.43011    4331.4749    77.161852    25.507449    16.472616 
 5188800    224.16876   -387.65805    181563.75   -14668.292     922.1222   -15590.414   -768.71906    4329.1806    77.163593    25.507514    16.471677 
 5189000    230.06915    -302.3294    181563.75   -14683.516    946.39355    -15629.91    -421.2085    4324.2108    77.162295    25.505837    16.472785 
 5189200    228.13955    -395.3057    181563.75   -14665.898    938.45613   -15604.354    -735.1996    4330.6286    77.160271    25.507481    16.474623 
 5189400    230.12492   -400.96539    181563.75    -14689.04    946.62296   -15635.663   -768.52925    4326.2093    77.159273     25.50702    16.475025 
 5189600    228.82005   -348.44575    181563.75   -14710.089    941.25538   -15651.344   -594.77727    4326.8366    77.156751    25.506998    16.468025 
 5189800    220.98229   -369.71257    181563.75   -14715.234    909.01458   -15624.248   -685.87602    4328.0967    77.157646     25.50575    16.470671 
 5190000    228.77366   -433.92883    181563.75   -14697.815    941.06455    -15638.88   -903.01714    4325.9051    77.156505    25.504579    16.468441 
 5190200    225.18479   -343.37984    181563.75   -14732.722    926.30167   -15659.024   -561.61405     4327.922    77.156721    25.504413    16.473023 
 5190400    224.62583   -315.07204    181563.75   -14689.986    924.00237   -15613.988    -460.6011    4328.1776    77.159232    25.502785    16.469933 
 5190600    230.49803   -347.95124    181563.75   -14665.895    948.15777   -15614.053   -606.60071    4325.7198    77.159259    25.504682     16.47012 
 5190800    228.29652   -390.83649    181563.75   -14686.141    939.10183   -15625.243   -719.25808    4327.2625    77.157198    25.505268    16.472315 
 5191000    231.68732   -347.25532    181563.75   -14740.865    953.04993   -15693.915    -583.2291    4327.0478    77.157916    25.506444    16.471411 
 5191200    221.52069   -327.50745    181563.75   -14722.902    911.22931   -15634.131   -553.35419    4326.9185    77.157887     25.50843    16.476245 
 5191400    228.11787   -410.78551    181563.75   -14703.822    938.36693   -15642.189   -855.48254    4325.6835    77.157268    25.509297    16.473265 
 5191600    227.55518   -335.42521    181563.75   -14700.667    936.05231   -15636.719   -519.80754    4326.5444    77.157766    25.508314    16.474573 
 5191800    223.36609   -398.54919    181563.75   -14715.538    918.82042   -15634.358   -744.88599    4329.7219    77.157458    25.509721    16.475909 
 5192000    231.14561   -300.65077    181563.75   -14681.604    950.82159   -15632.426   -415.51314    4326.8774    77.156422    25.511895     16.47462 
 5192200    237.60042   -340.29499    181563.75   -14628.571    977.37356   -15605.945   -588.03789     4327.816    77.156684    25.511569    16.473708 
 5192400    235.28049    -425.1923    181563.75   -14625.086     967.8305   -15592.916   -856.63822    4330.1864    77.159121    25.512408    16.472632 
 5192600    223.23489   -350.39093    181563.75   -14696.159     918.2807    -15614.44   -586.92692    4324.9237    77.160323     25.51353    16.472609 
 5192800     230.3569   -285.10561    181563.75   -14709.529    947.57723   -15657.106   -388.22281    4325.2801    77.159718    25.512203    16.476751 
 5193000    221.37837   -448.88198    181563.75   -14687.682    910.64389   -15598.326   -934.46581    4328.1531    77.159697    25.512594    16.476819 
 5193200    218.13851   -434.79056    181563.75   -14682.525    897.31667   -15579.842   -917.97313    4326.6518     77.15752    25.514056    16.477213 
 5193400    224.28348   -280.12276    181563.75   -14749.936    922.59409    -15672.53    -369.6653    4325.6484    77.155581    25.513529    16.475692 
 5193600    223.79469   -383.26666    181563.75   -14687.483    920.58345   -15608.066   -706.02361    4326.0233    77.155767    25.513175    16.478225 
 5193800    226.13443   -428.90727    181563.75   -14720.275    930.20802   -15650.483   -845.11983    4329.3436    77.156564    25.513791    16.475663 
 5194000    232.30652   -315.75272    181563.75   -14671.412    955.59704   -15627.009   -504.95819    4326.4643    77.156245    25.513658     16.47556 
 5194200     233.8751   -200.08864    181563.75    -14693.04     962.0494   -15655.089   -40.024096    4321.9965     77.15655    25.514875    16.479232 
 5194400    231.88201    -464.9575    181563.75   -14656.344    953.85078   -15610.195   -999.90909    4329.3812    77.154183    25.514628    16.478857 
 5194600     226.2699   -481.62462    181563.75   -14711.334    930.76528     -15642.1   -1114.0659    4328.9271    77.154609    25.515323    16.476899 
 5194800    224.57079   -273.02018    181563.75   -14669.488    923.77597   -15593.264   -368.80238    4324.0651     77.15334    25.516143    16.481087 
 5195000    232.31216   -245.74244    181563.75   -14675.272    955.62023   -15630.892   -222.89673    4327.1046     77.15438    25.515605    16.480897 
 5195200     221.7148   -503.94213    181563.75   -14715.953    912.02779   -15627.981    -1190.107    4330.6615    77.154586    25.517068    16.490006 
 5195400    222.85835   -396.23872    181563.75   -14694.193    916.73181   -15610.924    -788.8271    4325.3166    77.155024    25.517491    16.476771 
 5195600    224.13774   -293.28136    181563.75   -14694.499     921.9946   -15616.493   -443.78635     4324.246    77.154165    25.517973     16.48364 
 5195800    221.21009   -415.44134    181563.75    -14705.12    909.95166   -15615.072   -831.68093    4329.4203    77.154336    25.518933    16.482666 
 5196000    225.88843   -452.03186    181563.75   -14660.475    929.19609   -15589.671   -975.92373    4328.5814    77.151944    25.519232    16.485246 
 5196200    223.19863   -365.03964    181563.75   -14689.265    918.13154   -15607.397    -686.2758    4324.6259    77.152105    25.519038    16.482236 
 5196400      232.862   -315.54863    181563.75   -14644.203    957.88201   -15602.085   -500.76338     4325.752    77.149342    25.519598    16.480946 
 5196600    222.82943   -347.71909    181563.75   -14714.167    916.61284    -15630.78   -614.10878    4326.5941    77.147175    25.520551     16.48168 
 5196800    226.42045    -402.6322    181563.75   -14696.635    931.38456    -15628.02   -795.20498    4327.7259    77.146561    25.520192    16.484075 
 5197000    230.19469   -301.16428    181563.75    -14673.08    946.90997    -15619.99   -459.01275     4326.857    77.144632    25.519168    16.483608 
 5197200     231.3083   -291.08897    181563.75   -14687.585    951.49084   -15639.076   -371.42444    4325.2917    77.142478     25.51811     16.48498 
 5197400    230.74915    -398.8422    181563.75    -14622.35    949.19076   -15571.541   -787.15108    4328.7625    77.140805    25.518864    16.479712 
 5197600    228.85867   -430.47723    181563.75   -14671.237    941.41422   -15612.651   -904.77393    4328.3191    77.140721    25.521668    16.475179 
 5197800    229.16571   -378.59582    181563.75   -14669.034    942.67724   -15611.711   -702.61258    4326.7373    77.140992    25.518752    16.481243 
 5198000    228.33664   -349.88841    181563.75   -14637.753    939.26684   -15577.019   -600.55211    4329.5979    77.141615    25.519471    16.477011 
 5198200     227.6535   -498.32214    181563.75   -14679.025    936.45675   -15615.482   -1141.7614    4326.8891    77.143871    25.519011    16.484107 
 5198400    230.23135   -398.21602    181563.75   -14699.958    947.06078   -15647.018   -763.88555     4326.611    77.143511    25.518231    16.488001 
 5198600    227.68429   -379.23312    181563.75   -14678.712     936.5834   -15615.296   -733.13617    4327.2349      77.1448    25.518481     16.48269 
 5198800    219.65164   -337.95319    181563.75   -14723.018    903.54097   -15626.559   -570.79925    4324.5677    77.144181    25.517716    16.484453 
 5199000    225.27008   -373.15622    181563.75   -14697.897    926.65248   -15624.549   -669.24863    4328.2638     77.14259    25.517051    16.482206 
 5199200    226.33216   -359.44779    181563.75   -14697.886    931.02139   -15628.907   -661.03511    4327.7482    77.145652    25.517374    16.479703 
 5199400    221.34598   -387.90616    181563.75   -14736.845    910.51065   -15647.356   -738.25946    4324.5353    77.144678    25.517143    16.479067 
 5199600    218.77674   -413.20787    181563.75   -14734.534    899.94204   -15634.476   -812.66364    4330.1263     77.14656    25.519189    16.485046 
 5199800    231.09996    -362.4495    181563.75   -14686.797     950.6338   -15637.431   -621.77432    4327.8702    77.147841    25.519074    16.480422 
 5200000    225.37794    -330.0019    181563.75    -14681.69    927.09617   -15608.786   -543.79947    4326.1474     77.14614    25.518017    16.477745 
Loop time of 6342.48 on 128 procs for 5200000 steps with 9253 atoms

Performance: 708.366 ns/day, 0.034 hours/ns, 819.869 timesteps/s
97.7% CPU use with 128 MPI tasks x no OpenMP threads

MPI task timing breakdown:
Section |  min time  |  avg time  |  max time  |%varavg| %total
---------------------------------------------------------------
Pair    | 0.43012    | 1614.7     | 5132.4     |4562.0 | 25.46
Neigh   | 4.1651     | 109.79     | 265.75     | 851.8 |  1.73
Comm    | 94.552     | 1113.6     | 4226.7     |3469.1 | 17.56
Output  | 72.153     | 72.232     | 74.388     |   2.3 |  1.14
Modify  | 156.63     | 3341.3     | 6089.3     |4365.1 | 52.68
Other   |            | 90.86      |            |       |  1.43

Nlocal:    72.2891 ave 150 max 0 min
Histogram: 40 0 10 14 0 0 0 12 41 11
Nghost:    703.758 ave 960 max 516 min
Histogram: 26 9 4 33 6 9 8 15 6 12
Neighs:    0 ave 0 max 0 min
Histogram: 128 0 0 0 0 0 0 0 0 0
FullNghs:  7773.5 ave 18285 max 0 min
Histogram: 43 21 0 0 0 0 2 31 22 9

Total # of neighbors = 995008
Ave neighs/atom = 107.534
Neighbor list builds = 513529
Dangerous builds = 0
write_data 		${DIR}/data.${NAME}_run
write_data 		run_16/data.${NAME}_run
write_data 		run_16/data.ibeam_cooling_16_run
Total wall time: 1:45:55
