LAMMPS data file via write_data, version 7 Aug 2019, timestep = 200000

4089 atoms
1 atom types

2.1023318793733026e-01 5.1209766812064345e+01 xlo xhi
2.1023318793733026e-01 5.1209766812064345e+01 ylo yhi
2.1023318793733026e-01 5.1209766812064345e+01 zlo zhi

Masses

1 18.15

Atoms # atomic

1699 1 1.5806482820152800e+01 2.4607968965122421e+01 2.2571501983703787e-01 0 1 0
3683 1 1.1993209547679009e+00 3.3060609901907418e+00 1.4920686106025891e+00 1 0 1
948 1 5.9681422162992135e+00 1.7271980303338101e+00 1.6369852151991133e+00 0 0 1
1274 1 2.5099378107062648e+01 1.8520917012109017e+01 1.0265077643732543e+01 0 0 0
1153 1 1.8649114464069928e+01 3.0285827070897353e+00 3.7530134046797001e+00 0 1 0
2544 1 2.1361757238595434e+01 1.2167666145505565e+00 2.8779966923212754e+00 0 0 0
1469 1 2.1331057192232095e-01 9.2846408132912472e+00 1.2030329181053551e+01 0 1 0
1774 1 1.4671373698987753e+00 5.2990485716241702e+00 3.0650778138574535e+00 0 1 1
412 1 5.1506334508477689e+00 6.1426689461197661e+00 1.0571914669232454e+00 0 0 1
2114 1 2.4413374923117964e+01 6.5077441609188753e+00 5.2819446045708460e+00 0 0 0
665 1 2.4994785569916939e+01 1.7838231891933077e+01 5.1115904961878398e+00 0 0 1
172 1 1.2884751530064984e+01 2.8784356501740676e+00 3.1443834471078613e+00 0 0 0
1915 1 1.7288289076467525e+01 4.0545520871451517e+00 1.7330817627749113e+00 0 1 1
3042 1 1.5663226348839265e+01 8.5782932819052746e+00 3.6315423832280684e+00 0 1 1
1528 1 1.1543798123262636e+01 8.4146270444611897e+00 5.0900455446763881e-01 0 0 1
104 1 1.8319782417412448e+01 7.1216739263587590e+00 4.8457709637982589e+00 0 0 0
2396 1 2.4008517528549341e+01 2.6591139459184423e+00 3.9298173057316377e+00 0 0 0
1249 1 1.6155396186935584e+00 2.3836549743021486e+01 2.2253037958238489e+00 0 0 0
1034 1 8.4525853578654175e-01 7.5039118839496810e+00 1.2391408440223948e+00 0 1 0
1435 1 9.0478326924288688e-01 8.8326954917809868e+00 1.5574345692432159e+01 0 1 0
1888 1 9.9523432583720872e+00 2.0044796514072729e+01 4.9374956754094185e-01 0 0 1
1594 1 7.5043661099204009e+00 7.6941825540424151e+00 2.2028625044241417e+00 0 0 0
2217 1 1.2844832869030693e+01 9.2644669319364592e+00 2.8756897235839247e+00 1 0 0
1328 1 2.3414949474149608e+01 2.5259993027114973e+01 3.1596851604186367e+00 0 0 0
1537 1 1.7724896592637620e+01 2.3251956455774531e-01 4.0002661124300811e+00 0 1 0
2732 1 1.7425442060373594e+01 1.0473813680934633e+01 2.7970830860500482e+00 1 0 1
261 1 1.4346641311904923e+01 9.5956987459907026e+00 1.6106390491561317e+01 0 0 0
578 1 2.1039295954695667e+01 1.1721119238022604e+01 3.5918946010664063e+00 0 0 0
1151 1 2.2781781611427814e+01 8.1404471623647421e+00 2.1883919272459069e+00 0 1 0
2814 1 3.0069460573440518e+00 9.7181914110377043e+00 2.1665608728970494e+00 1 0 1
778 1 2.5803195673457253e+00 1.2313621400662758e+01 1.4714142035847475e+00 0 0 1
753 1 3.7739669111095111e+00 1.5027841288861680e+01 1.9490116305580312e+00 0 0 1
2059 1 2.5704526782279771e+01 2.5295722816660746e+01 7.3131417047964948e+00 0 0 0
1886 1 1.1968055266977053e+01 1.1431395276737257e+01 3.9416159030913884e+00 0 0 1
1233 1 1.9616603486893752e+01 6.6940541294732867e+00 2.2357059105247266e+00 0 1 0
768 1 6.2766027695238575e+00 2.5674143379733298e+01 7.2190419929464689e+00 0 0 0
1718 1 9.2128089849043686e+00 2.5577024488174239e+01 1.7173414889238359e+01 0 1 0
3954 1 1.4824114217089251e+01 9.9783236534800697e+00 6.1882910843618477e-01 0 1 1
187 1 9.3006576819711206e+00 1.0204087990784517e+01 1.9680402713433727e+00 0 0 1
1994 1 8.2053178916830909e+00 1.4455775479671210e+01 2.4381848450951584e+00 0 0 1
585 1 1.9897111965367699e+01 2.4716239123129153e+01 2.5777166240651356e-01 -1 0 1
223 1 7.1007725865862339e+00 1.2315386868528936e+01 1.3029034954450640e+00 0 0 0
2243 1 2.2401562548547641e+01 2.5649235839514510e+01 1.0089966068693011e+01 1 0 0
50 1 1.2911124389370476e+01 1.5669401533224557e+01 4.8840727429369126e+00 0 0 0
362 1 1.9523090063391056e+01 9.5070904396310514e+00 1.5306302520228670e+00 0 0 0
652 1 7.1416030779607933e+00 4.2358965980566881e+00 1.5442172301444546e+00 0 0 1
2245 1 1.8711067434184105e+01 1.4619321854476777e+01 1.4502605764986292e+00 0 0 0
918 1 2.2690804704052397e+01 1.4844466638179400e+01 2.0226456595445375e+00 0 0 1
79 1 1.7005083492494208e+00 1.8619169107702842e+01 3.1935018720019257e+00 0 0 0
2435 1 2.5191452330995997e+01 2.5111399762180209e+01 9.8819024481999502e+00 1 0 0
3522 1 2.3628884517918237e+01 2.0533672234111481e+01 9.0703232083550223e+00 0 0 0
292 1 2.4584418489691629e+01 1.8630960718334538e+01 1.4118094537408556e+01 0 -1 0
592 1 1.0188978698298119e+01 4.3528427006404635e-01 1.6424978271238440e+00 0 0 1
2716 1 1.4375645970023028e+01 1.7794422333375095e+01 3.4719525894928713e+00 0 0 1
3270 1 1.6330949787539222e+01 1.6929367757795394e+01 5.0070126526610483e+00 1 0 0
1577 1 1.8931444211658121e+01 1.7055719060520214e+01 4.3657414926584748e+00 0 0 0
257 1 2.3488190209760582e+01 1.8756276180278324e+01 1.5130061060828448e+00 0 0 1
1530 1 2.2147983066638393e+00 2.1919302517646013e+01 4.1686814974216615e+00 0 0 0
557 1 3.0506467469738152e+00 1.9345145143744077e+01 1.5807813164931563e+01 1 0 0
579 1 6.7653687604715804e+00 2.2358432125779718e+01 2.0876107266293129e+00 0 0 0
1060 1 8.2470806970868829e+00 2.1195398785605644e+01 3.7779251960721716e+00 0 0 0
542 1 1.0695079719579436e+01 2.2313522908077552e+01 2.9550616349312380e+00 0 0 0
2894 1 1.5317720245149127e+01 2.1790277907369024e+01 6.9583172634499446e-01 1 0 1
926 1 2.1140991258469278e+01 4.2029691111786613e+00 1.2734632132279213e+00 0 0 1
729 1 1.6712390688791551e+01 2.0369290606909697e+01 3.0648283398058744e+00 0 0 1
1433 1 1.8930602102314353e+01 1.8840535050775603e+01 2.2333231005918348e+00 0 1 1
2012 1 2.0889705340888316e+01 2.2153870226901745e+01 3.8545399125382271e+00 0 0 1
1776 1 2.5472066310675448e+01 3.5373588055957472e+00 5.9539800515420449e+00 0 1 1
130 1 7.5057013314264855e+00 2.5415674397625200e+01 1.3476527763585183e+01 0 0 0
2087 1 1.0481177780209803e+01 3.2164396187358637e+00 1.9110717385044922e+00 0 0 0
394 1 1.6741816195604383e+01 2.0351007307476241e+01 1.5055227846819156e+01 0 0 0
4059 1 2.4848910585357558e+01 1.6362455909787087e+01 2.6819896001908936e+00 0 0 1
1881 1 2.2285918724348818e+01 1.1981765614390413e+01 7.5554516661527349e-01 0 1 1
2868 1 2.5081147311134924e+01 2.1846799718454584e+01 5.1362229365030618e+00 0 0 1
230 1 8.9345538617655738e+00 1.2741118294411748e+00 1.2809987355652881e+01 0 0 0
156 1 1.4038706847851591e+01 1.6279953778859095e+01 9.7150078268028328e-01 0 0 0
3578 1 2.1543075627413771e+01 2.3346446459407300e+01 1.9208989449886962e+00 0 1 1
2090 1 8.7295806504181890e+00 1.6494321412456838e+01 6.8732222180954483e-01 0 0 0
4046 1 1.0213930552727005e+01 2.2239556382149543e+00 5.2399205892226908e+00 0 1 0
19 1 1.1999179306177135e+01 7.9044917736570630e-01 9.0397464367483078e+00 0 0 0
14 1 1.0899292193827497e+01 2.5613014578143353e+01 1.0879477527567156e+01 0 0 0
2319 1 1.4567145821623868e+01 1.8032204267189076e+00 6.4778018146442049e+00 0 1 0
2789 1 6.9465806729412560e-01 2.4324928433523080e+01 1.4122200732761710e+01 1 0 0
1559 1 1.7914797672835032e+01 2.5458395168197328e+01 1.1695823531965351e+01 0 0 0
1416 1 4.0862679647963507e+00 5.7139029104370813e+00 3.6937402644105224e+00 0 1 0
2308 1 4.7844684128482928e+00 3.2948021052261778e+00 4.5672646671213366e+00 1 0 0
56 1 7.0418609063855611e+00 2.9123692211835497e+00 6.0788235009163349e+00 0 0 0
703 1 8.5866258234064983e+00 4.3611718941968061e+00 3.8975807987356954e+00 0 0 1
298 1 1.3260698668136351e+01 5.8062761753228509e+00 4.2134302936465229e+00 0 0 0
2123 1 1.1325750219839163e+01 7.7370820090234620e+00 4.6824384056093891e+00 1 0 0
1124 1 1.5820074875748235e+01 5.8849536026136056e+00 5.7068357780130210e+00 0 1 0
2772 1 1.6995503815540904e+01 3.4179215850909532e+00 6.0820958044591302e+00 0 0 1
2997 1 2.1362825805140631e+01 3.3502436657785779e+00 5.0303701316607077e+00 0 0 1
2359 1 2.1597057965241266e+01 5.7806350350594204e+00 3.9607227399436216e+00 0 0 0
225 1 4.4825265080612064e+00 7.2092189924842307e+00 5.9700117972369080e+00 0 0 1
3174 1 7.3017848367601372e+00 7.2500193123300063e+00 6.8468097666175529e+00 1 1 0
3933 1 8.7558707490535603e+00 6.9194782741704834e+00 4.3242234731294422e+00 1 0 1
516 1 1.1715538006657985e+01 8.0895275118750938e+00 7.5694967168939149e+00 0 0 0
828 1 1.5206167756431459e+01 1.0028620243244694e+01 6.2745290258458208e+00 0 0 1
1424 1 1.9140600080390577e+01 9.7720725039693832e+00 5.2418932054352352e+00 0 1 0
69 1 2.1588401693252571e+01 8.4497934698925032e+00 6.2777848822090068e+00 0 0 0
3342 1 3.9905419051995730e+00 1.0005542614477392e+01 4.9053355220156751e+00 1 0 0
2161 1 2.4738803574733814e+00 1.2026150121534155e+01 5.8865073099175760e+00 1 0 0
2021 1 5.8317456215037122e+00 1.0069897728285930e+01 2.3547235297918854e+00 0 1 1
2070 1 9.3571171376598219e+00 1.1184253004272003e+01 4.9639085231457756e+00 0 0 0
2184 1 8.7834865379199130e+00 1.3839845101040817e+01 5.2854088902038354e+00 0 0 0
343 1 1.0170913093061985e+01 1.0428753978887075e+01 7.6932183891850450e+00 0 0 0
2644 1 1.2335140835033801e+01 1.2318126485733748e+01 7.9088231026709899e+00 0 0 1
1969 1 1.3633590982233533e+01 1.2393615517819589e+01 5.8043246086802185e+00 0 1 1
154 1 1.3917926257942620e+01 1.3781312388457479e+01 2.0844356834091249e+00 0 -1 0
275 1 1.6649806177046948e+01 1.2999566393375778e+01 2.3483422569551298e+00 0 0 0
2108 1 1.7656071861572737e+01 1.0636585947102471e+01 7.0233610130213071e+00 0 0 0
140 1 2.3386027066963983e+01 9.9283772882360939e+00 4.3511350324880622e+00 0 0 0
287 1 4.0130654557230949e+00 1.4717524864841725e+01 5.6149678047012959e+00 1 0 0
992 1 6.3644859355972612e+00 1.3628040737779038e+01 6.7708207628821580e+00 0 0 1
539 1 9.8329867859666606e+00 1.6870192484057426e+01 6.7536986154739278e+00 0 0 0
1001 1 1.1118479084024848e+01 1.4229643758397117e+01 2.5397133009326969e+00 0 0 0
2470 1 1.2028763075452073e+01 1.9725013271317152e+01 5.7277169395639316e+00 1 0 0
1536 1 1.7666757947993300e+01 1.3124830110770390e+01 6.9513982290894551e+00 0 1 0
2796 1 2.0428943042497711e+01 1.4735637785025119e+01 3.6652028379921200e+00 0 0 1
751 1 2.0526723585313977e+01 1.3806379261950031e+01 6.1052247761742837e+00 0 0 0
336 1 2.4063375253128616e+01 1.3150170572244027e+01 3.7782147772714390e+00 0 0 0
3400 1 9.7668503849947530e-01 1.9332746511750830e+01 5.9138860518180767e+00 1 0 0
279 1 5.7641023664277062e+00 1.5655635954417692e+01 3.6924943963085770e+00 0 0 0
2515 1 5.9413394557624262e+00 1.8309368972870548e+01 3.6477071895387021e+00 1 0 0
2270 1 5.5921715137680765e+00 1.8797242061701176e+01 6.2409275807023246e+00 1 0 0
8 1 6.9688908819393571e+00 1.6788062674415716e+01 7.7198666018101036e+00 0 0 0
2768 1 1.5728299856463773e+01 1.4182923186320471e+01 4.9405983878669506e+00 1 0 1
1967 1 1.6815570099435611e+01 1.8603779951156167e+01 8.9891417715066577e+00 0 1 1
903 1 2.0389133878554237e+01 1.8887968813636075e+01 5.8066271132263640e+00 0 0 1
2347 1 2.3449289744602140e+01 1.6026293066697381e+01 8.3017736382098164e+00 0 0 0
2371 1 4.5535219299643526e-01 1.3882792516397901e+01 2.5967252060319086e+00 1 0 0
2146 1 3.2353462075760748e+00 1.8515618648449081e+01 7.2913639968174175e+00 1 0 0
3402 1 5.4019372760301385e+00 2.4726229448252305e+01 2.7927421772123342e+00 0 0 0
1318 1 1.0908370078718038e+01 1.7555563449982859e+01 4.5667678024236373e+00 0 0 0
175 1 1.3251694071522433e+01 2.0667050291707994e+01 3.3500217614086054e+00 0 0 0
2288 1 1.5801777342235326e+01 2.0329130473114301e+01 5.8245383506755974e+00 1 0 0
2199 1 1.8273309739813296e+01 2.2448514619424071e+01 3.4304574449184582e+00 1 0 0
36 1 1.8370221146324258e+01 2.0461466934999592e+01 7.1512838022674803e+00 -1 0 0
2086 1 2.1425864216584088e+01 1.9648347389097836e+01 3.1237272047383202e+00 0 0 0
1082 1 2.2588438525638406e+01 2.1919603989878244e+01 6.2178013157224061e+00 0 0 0
1671 1 2.1523124578292113e-01 9.1807777044008816e+00 7.7140332191885124e+00 0 0 1
1711 1 4.6548493675503124e+00 2.0674973240216236e+01 2.1510464362705894e+00 0 1 0
3893 1 6.7686243495313141e+00 4.7858268963490893e+00 1.7066388079829306e+01 1 1 1
1154 1 4.3068889758660758e+00 2.1725877114860470e+01 5.7764160371384410e+00 0 0 0
3961 1 7.2646921931440565e+00 2.2353047588278887e+01 5.9503984880109755e+00 1 0 1
1256 1 1.0660921161584636e+01 2.2104842440542882e+01 6.0840142040137621e+00 0 0 1
2286 1 1.2648114327913778e+01 2.4200263865988877e+01 4.8791750061342949e+00 0 0 0
1599 1 1.7538980428711344e+01 2.3746515319341608e+01 5.7695792628286489e+00 0 1 0
1475 1 1.1227689862246768e+00 2.5493560017948063e+01 8.2261612266098094e+00 0 0 0
2724 1 4.2820227532585353e-01 2.3436220808726908e+01 5.5171397780604607e+00 1 0 0
1103 1 2.4160111320000258e+01 4.0068871133463126e+00 1.5979827966911051e+00 0 1 0
3189 1 3.0140174804492292e+00 1.3490081272658445e+00 7.0438165565704267e+00 0 1 0
2939 1 2.0350449905739358e+00 3.5265503684701929e+00 6.0034669693204146e+00 1 0 1
3313 1 2.4051285284921430e+01 5.9287845954721190e+00 8.5760449283797495e+00 0 1 0
3373 1 5.3445978321353698e+00 1.6680059629249369e+00 8.2926456410097593e+00 1 1 0
103 1 5.1249613436621244e+00 2.5314480286044061e+00 1.0708019430267733e+01 0 0 0
583 1 1.0850110610764453e+01 2.9421240054942195e+00 7.6339015143059985e+00 0 0 0
1539 1 3.0292823832409739e+00 8.4755179691778060e-01 1.1730914853032555e+01 0 1 0
1006 1 1.8909793958470274e+01 3.2917320409787099e+00 7.8110034733651261e+00 0 1 0
286 1 6.3725883566513164e-01 1.5577882845980508e+01 7.2152145792705875e+00 0 0 0
4000 1 1.0840225414132476e+00 1.5984047560513359e+01 4.3717330122115250e+00 1 0 1
3594 1 3.2296115587663050e+00 5.2849754546670376e+00 7.8497660935120672e+00 1 0 0
2472 1 5.3641343248315527e+00 5.2164710028053003e+00 9.5985715056967784e+00 1 0 0
2061 1 7.5156080821262972e+00 4.8757205883630261e+00 7.7588467677925230e+00 0 0 0
2965 1 9.5735396038637397e+00 4.3903273975887602e+00 9.4593311650029985e+00 1 0 1
169 1 1.3116757276211459e+01 4.1379402046057905e+00 6.6105281008709946e+00 0 0 0
2258 1 1.4328852281344698e+01 1.6651704130882550e+00 9.8420364247512424e+00 1 0 0
462 1 1.3981595548138454e+01 4.4570572276254907e+00 9.1143574252163564e+00 0 0 0
511 1 1.5722162676704995e+01 6.6137502038308655e+00 8.5327732209191343e+00 0 0 0
3059 1 2.1315775826451510e+01 1.9835991589328124e+00 7.9801964623027652e+00 0 1 0
1617 1 8.6754591916248120e+00 5.3138491860407555e-01 6.4490865527975219e+00 0 1 0
2951 1 2.3752526823379970e+01 2.8668892307067111e+00 8.4422468383138050e+00 0 0 1
3064 1 1.0050108693621935e+00 6.7281356262306957e+00 8.7581747978659070e+00 1 0 0
477 1 8.6280090824144562e+00 8.6094866613892318e+00 1.1282688993247108e+01 0 0 0
2514 1 1.0793658170593883e+01 6.9933584912650675e+00 9.9766911794198609e+00 1 0 0
2583 1 1.4162426231328519e+01 8.8975538065433533e+00 8.4652527450159969e+00 1 0 0
3287 1 2.0125006300580363e+01 5.8616409230098432e+00 7.1099614667451512e+00 0 0 0
3078 1 2.2186813305859179e+01 1.0106400825413091e+01 8.0851931243247730e+00 0 0 0
291 1 2.4118408381010625e+00 1.0729975683044811e+01 8.2595742808142507e+00 0 0 0
3908 1 6.2010093976656551e+00 9.6784289258459815e+00 8.5622189545359610e+00 1 0 1
2116 1 6.4380011353927440e+00 1.1034930604620461e+01 6.1813009886294443e+00 1 0 0
3344 1 8.4279391338212051e+00 1.0869490056557684e+01 9.7664411994675167e+00 1 0 0
1521 1 1.1817459372370728e+01 1.3394864603185228e+01 1.1665470818466476e+01 0 0 0
1726 1 1.3524443734474309e+01 1.1634685371740826e+01 1.0344559091308412e+01 1 0 0
1169 1 1.8121088240060057e+01 1.0228697719763607e+01 9.6647824693566502e+00 0 0 0
1627 1 2.2915410408725172e+01 1.2311361609284580e+01 6.8014636087095015e+00 0 1 1
1988 1 7.6268066630767564e+00 1.3412011801612428e+01 1.0697525269759621e+01 0 0 1
303 1 9.4677580001653610e+00 1.2368888456129131e+01 1.3392359084093396e+01 0 0 0
2904 1 1.0690483351198221e+01 1.4431470515986668e+01 7.6013718126943184e+00 1 0 1
47 1 1.5981409687592073e+01 1.4214480043541773e+01 9.0402220370396495e+00 0 0 0
2135 1 1.7886545826324703e+01 1.6248160054833217e+01 9.6358839258683879e+00 1 0 0
2735 1 2.3625906379913257e+01 1.3438567339066092e+01 9.6116914694390161e+00 0 0 0
409 1 2.5148583103368718e+01 1.4989548118665528e+01 6.0950437344252562e+00 0 0 1
3348 1 3.6340766421296160e+00 1.6169882144752130e+01 7.6186842418438951e+00 1 0 0
3872 1 2.3539103300295746e+01 2.4954638719247843e+01 5.7667586591658075e+00 1 0 1
359 1 1.0015358752511576e+01 1.5138499638376402e+01 1.0236402929882610e+01 0 0 0
1584 1 9.8156043749102722e+00 1.9715997298061172e+01 8.1194328818686721e+00 0 1 0
3056 1 1.2191823964532448e+01 1.7151729435618275e+01 1.0215158043107204e+01 0 1 0
3265 1 1.3229017457409366e+01 1.9745717128116073e+01 9.4265277937554242e+00 0 0 0
3297 1 1.4236398934381070e+01 1.8076342248307167e+01 7.2011461517339130e+00 1 0 0
114 1 1.3284843608294725e+01 1.5633954845910125e+01 7.8218955252585518e+00 0 0 0
717 1 2.0656748630521687e+01 1.5485477927569907e+01 8.4884016159690105e+00 0 0 1
4036 1 2.2859120075925869e+01 1.8674912458775474e+01 6.9655645376272943e+00 0 1 1
3800 1 2.2413487404073337e+01 1.7221747539638301e+01 1.1222986987595334e+01 0 1 1
1681 1 3.7971754394164936e+00 2.4329784105038232e+01 6.8050362522249364e-01 0 0 0
259 1 2.5330982821377141e+01 1.1210744889648909e+01 1.6694248912611180e+00 0 0 0
1892 1 9.5032264318584705e+00 4.3830239786139975e+00 1.6447766627231381e+01 0 0 1
4052 1 3.3593271942380958e+00 2.0062654721282975e+01 9.5709168775069298e+00 0 0 1
944 1 9.5187673389042011e+00 2.3568346089217410e+01 9.6169823987785445e+00 0 0 1
3228 1 1.4944581595275881e+01 2.2887268448930932e+01 6.4049736918546829e+00 0 0 0
616 1 1.1910047689423303e+01 2.2712222723949687e+01 8.5637149725340951e+00 0 0 1
2971 1 1.8917024474927143e+01 2.2764883602267037e+01 8.7994591109357287e+00 0 0 1
2124 1 2.1426279758140804e+01 2.1147676054572912e+01 1.0798899730757773e+01 0 0 0
181 1 2.0313580415028436e+01 1.8572430517122267e+01 9.2588952871603212e+00 0 0 0
2510 1 9.4512394507166742e-01 1.3844724329949337e+01 1.4805602108190097e+01 1 0 0
3198 1 3.5217160305854240e+00 2.2519543702868756e+01 8.7084625415673464e+00 1 0 0
2561 1 7.0494151436813635e+00 2.3593995921520047e+01 1.1219107396230608e+01 0 0 1
3450 1 8.8097417029588136e+00 2.4666024437507119e+01 7.1640335023697794e+00 1 0 0
1240 1 1.4533364126314165e+01 2.4291851089652852e+01 8.8063995778584960e+00 0 0 0
3216 1 1.7271120948732225e+01 2.4653172280458364e+01 9.5221201508361215e+00 0 0 0
231 1 2.1369425553645474e+01 2.4073608794807772e+01 8.1917139921981725e+00 0 0 0
3291 1 2.5502912702620215e+01 1.9990647663499285e+01 3.1997154652003821e+00 0 0 0
734 1 9.3755979596875960e+00 2.3960866956718643e+01 1.4891513515190871e+01 0 0 1
306 1 4.3520348461198521e+00 1.5024531653213689e+00 1.4548120023504572e+01 0 0 0
949 1 1.5794978595558433e+01 6.5001734451675546e+00 1.6671434304451651e+00 0 0 2
119 1 3.8325429779603399e+00 6.1150976019860925e-01 3.0559528018729796e+00 0 0 0
2038 1 7.9547080865884521e+00 3.2991132823513478e+00 1.1229395283765035e+01 0 0 0
3354 1 1.5451784528322198e+01 3.0099452558299404e+00 1.4008734207620693e+01 1 0 0
247 1 1.8727355622788078e+01 1.6257003292759076e+00 1.2890769652852784e+01 0 0 1
1417 1 2.1893972891751307e+01 1.7124686504273361e+00 1.2533797342651610e+01 0 1 0
41 1 1.4965242208170821e+00 2.8956378784477956e+00 1.2372966051926023e+01 0 1 0
3524 1 7.6900273758989384e+00 5.6139249963718889e+00 1.2711408644485672e+01 1 1 0
1111 1 1.2925427247002419e+01 5.6158224838337851e+00 1.1095637739787191e+01 0 1 0
2414 1 1.8734287654883790e+01 3.6995097795240310e+00 1.0767828360862707e+01 0 0 1
26 1 1.6285723646553407e+01 4.4894825988529936e+00 1.1633558339238462e+01 0 0 0
2177 1 2.3121723035991490e+01 3.8149687527982601e+00 1.1576185971929647e+01 0 0 0
250 1 2.0818249654577368e+01 5.7126887463504277e+00 1.1822704354727005e+01 0 0 0
189 1 2.5241505525354146e+01 5.6219861024419719e+00 1.1256320292125325e+01 0 0 0
1614 1 1.9910656420673840e+00 7.5137630340236932e+00 1.0763353409102487e+01 0 1 0
2845 1 4.8855661159743509e+00 6.9855736291955370e+00 1.3237969614472517e+01 1 0 0
2433 1 6.1085940243576191e+00 7.4380941297697998e+00 1.0813161659534517e+01 1 0 0
978 1 1.4502663014091416e+01 7.7635752484418443e+00 1.1423323252438035e+01 0 0 1
168 1 1.7193801538538231e+01 6.8214627314289933e+00 1.2435606832220300e+01 0 0 0
3340 1 1.8292743362628425e+01 7.4692288953102324e+00 9.5399552541396329e+00 1 1 0
108 1 2.1488131402209035e+01 7.1416210605832839e+00 9.2613769235124774e+00 0 0 0
1282 1 2.0139265467845124e+01 8.3923201973210553e+00 1.2213635414072929e+01 0 1 0
2696 1 2.4139268494038902e+01 9.5359445726824124e+00 1.0057134532765094e+01 0 0 1
3668 1 1.4736501253503254e+01 2.4403698673603241e+01 1.5177531802575380e+01 1 0 0
3641 1 4.0050333979482158e+00 9.7014052317318420e+00 1.0374213389539383e+01 1 1 0
836 1 3.4551201720273599e+00 1.1232497176098917e+01 1.2321948732445227e+01 0 0 1
3187 1 1.0396803625003464e+01 9.7322431161841685e+00 1.3135093081762658e+01 1 1 0
201 1 1.3083791113261695e+01 9.7699107282812729e+00 1.2526790193588802e+01 0 0 0
1072 1 1.6257255541298182e+01 1.2081833134734980e+01 1.0920548828968931e+01 0 0 0
238 1 1.6817293095766399e+01 1.2326789373645463e+01 1.3748809756227496e+01 0 0 0
3188 1 1.8692476879541513e+01 1.0038496744250677e+01 1.4197878458891948e+01 1 1 0
310 1 2.0466188412530983e+01 1.1097579454588683e+01 1.0073819069152636e+01 0 0 0
909 1 2.2566758317454351e+01 1.0099946717139888e+01 1.2151447720800084e+01 0 0 1
459 1 9.9879686509055354e-01 2.3044048766909988e+01 1.0144148124267131e+01 1 0 0
3514 1 2.1303394104327875e+00 1.5450294484824706e+01 1.2807809686351449e+01 1 0 0
2336 1 3.0721630612048885e+00 1.3702389315244076e+01 1.0984013385746188e+01 1 0 0
207 1 5.3342694750323760e+00 1.4596988810613860e+01 9.4243432898384594e+00 0 0 0
2237 1 6.8253824790675761e+00 1.2757206752754090e+01 1.3255225668874481e+01 1 0 0
1431 1 1.2362296845105931e+01 1.9106415767260394e+01 1.3024369152371280e+01 0 0 0
122 1 1.3778223775396139e+01 1.6383547119067202e+01 1.2552731985819920e+01 0 0 0
124 1 2.0972740150577451e+01 1.3598952612808205e+01 1.0600231556032945e+01 0 0 0
1382 1 6.1457417935528476e+00 1.7110115826135296e+01 1.0967077621085190e+01 0 0 0
2480 1 8.6197204375650447e+00 1.6930611843669741e+01 1.1626739311756786e+01 1 0 0
3913 1 7.5640845740520550e+00 2.0784004924664185e+01 7.9291385098489275e+00 1 1 1
3244 1 1.5242721840576642e+01 1.9296849093199544e+01 1.3251825865118750e+01 1 0 0
525 1 1.9281682214104574e+01 1.6510270965495277e+01 1.1911260798408538e+01 0 0 0
194 1 2.4556747621763108e+01 1.5007916486604696e+01 1.1880482103998519e+01 0 0 0
2441 1 1.3520680525269642e+00 1.7449521337682551e+01 1.1074530243893191e+01 1 0 0
510 1 2.2353568750683280e+01 1.9330109277745514e+01 1.2749216532773424e+01 0 0 0
2418 1 2.7784750054446472e+00 1.9701588679464706e+01 1.2244096850802203e+01 1 0 0
251 1 8.3063608419400605e+00 9.2322749899177321e+00 1.6293147185233863e+01 0 0 0
700 1 6.1989439944100981e+00 2.1295660790200944e+01 1.2752063676706213e+01 0 0 1
3163 1 6.1316169954296997e+00 1.9568086162735892e+01 9.7366269411469446e+00 1 0 0
153 1 1.0109787788004555e+01 1.9234113144169424e+01 1.0903356423925004e+01 0 0 0
1197 1 1.5469004115280095e+01 2.0187990850425919e+01 1.0883684551723867e+01 1 0 0
922 1 1.8263709231675442e+01 2.1116128830699825e+01 1.1043662683677706e+01 0 0 1
2496 1 1.8192903364286774e+01 2.1905466315221656e+01 1.3422176837546825e+01 1 0 0
1473 1 1.8615953077320011e+01 6.1219297660167760e-01 9.5365220342832107e+00 0 1 0
3229 1 6.4257483339874055e-01 2.1988462771104285e+01 1.2693210506180300e+01 1 0 0
1343 1 4.1015050902857517e+00 2.1916942588684844e+01 1.6249016823187471e+01 0 0 0
464 1 3.8958775257949303e+00 2.2831002098112265e+01 1.3297183508966643e+01 0 0 0
917 1 5.0327089105444536e+00 2.4548216555129414e+01 9.5488522185289924e+00 0 0 1
283 1 1.1470861126209128e+01 2.4981967110743383e+01 1.3606112254715104e+01 0 0 0
1368 1 1.2246985418890551e+01 2.2497456010441137e+01 1.2800512714276802e+01 0 0 0
3816 1 1.4438479122926624e+01 2.2641356350532902e+01 1.1049671256764428e+01 0 1 0
2397 1 1.6266976972378046e+01 2.3564726311863151e+01 1.3042570989752367e+01 0 0 0
3709 1 2.4950656354773564e+01 6.2975446116041152e+00 2.5239371134471620e+00 1 1 1
2162 1 2.0880979555975035e+01 2.3111251373999078e+01 1.2826686612774322e+01 0 1 0
1905 1 3.0817099106772616e-01 2.1033825055097079e+01 1.3206842562877972e+00 0 0 1
4033 1 9.0037615003230425e+00 2.0116883165143911e+01 1.4755093037254287e+01 1 0 1
1756 1 1.7794219943302817e+01 2.4721152161137599e+01 2.0043510954135377e+00 0 0 0
2174 1 9.8660164079092940e+00 1.9587687756652024e+00 1.5326615583872877e+01 1 0 0
1193 1 1.1878079335222486e+01 2.3272998167563004e+00 1.2536039352747929e+01 0 1 0
1121 1 1.3416871646448991e+01 2.5480124123278841e+01 1.0661810454309328e+00 0 0 0
390 1 2.0549921447629426e+01 2.5609567043952232e+01 1.2194815211771669e+01 0 0 0
1270 1 1.7843086352239474e+01 2.9580161120963466e+00 1.5171402773218201e+01 0 0 0
447 1 3.2623446303713903e+00 5.2993340507944158e+00 1.6110379786528007e+01 0 0 0
51 1 1.2774244382375819e+00 1.3648964594991529e+01 8.8601766336144401e+00 0 0 0
3617 1 1.4847984224606063e+00 3.5983385567259281e+00 1.5067867173122462e+01 1 1 0
3022 1 5.1626438774557055e+00 4.2645001061920578e+00 1.4556928950636266e+01 1 0 1
285 1 1.5212127216665868e+01 2.2258378610534063e+01 1.6538802128852971e+01 0 0 0
3214 1 1.2559846953376303e+01 4.7056651268837060e+00 1.3816387219570641e+01 1 1 0
2611 1 9.8635078709028878e+00 5.7535508300740785e+00 1.4334364970712478e+01 1 1 0
1296 1 1.4348266909354010e+01 5.6920190326185498e+00 1.5867733389947023e+01 0 1 0
2530 1 1.6678668373599375e+01 6.7881719729731067e+00 1.5083897077678026e+01 0 0 0
1120 1 1.2563431454483156e+01 7.5283365968716831e+00 1.6951178495113091e+01 0 1 0
2760 1 1.8563518253936998e+01 5.3545103272070653e+00 1.5695633019242237e+01 1 0 0
1420 1 2.1247866513682133e+01 5.5713843658801041e+00 1.4540072740576074e+01 0 1 0
2919 1 2.0975752564455512e+01 1.3040214018606218e+00 1.5327215331849940e+01 0 0 1
1434 1 2.4378343193144207e+01 3.9725320181844381e+00 1.3911798660241448e+01 0 1 0
3364 1 3.5542178517547005e+00 7.8831138515600090e+00 1.5663941027745242e+01 1 1 0
3094 1 3.0726243341594053e+00 5.0922688371521962e+00 1.1903964800035546e+01 1 1 0
1309 1 6.9141841337942109e+00 9.8852013658202598e+00 1.3800765762198896e+01 0 0 0
1640 1 1.7422767603135936e+00 1.3798347000555802e+00 1.6499324029577057e+01 0 1 0
676 1 1.0446442999621414e+01 8.2726478958095946e+00 1.5342721695647139e+01 0 0 1
2355 1 2.2789904030515139e+01 4.0228689697216984e+00 1.6633380060289102e+01 0 0 0
684 1 2.1013352979435272e+01 1.0916240256287095e+01 1.5269795015154800e+01 0 0 0
612 1 2.1951773088202884e+01 8.2992862105016929e+00 1.5047721470488035e+01 0 0 0
916 1 1.0367002844444406e+00 1.0993897336285182e+01 1.3937282137167232e+01 0 0 1
639 1 4.4780771859209345e+00 1.0402762514920601e+01 1.4818206188373701e+01 0 0 0
1 1 6.3776296831702775e+00 1.4789977038704377e+01 1.4800582066161821e+01 0 0 0
2054 1 1.4242884672082523e+01 1.1863225283504816e+01 1.4374211655221492e+01 0 0 0
27 1 1.2593128206159350e+00 8.3401264602664438e-01 2.0564719948112833e+00 0 0 0
2622 1 2.2742298958757150e+01 1.2465211302965038e+01 1.3711082374668946e+01 1 0 0
2986 1 2.4447480690722159e+01 8.2985900817043792e+00 1.5240537471130805e+01 0 0 0
2425 1 2.5425675846526044e+01 1.0912393295940472e+01 1.4189485335954314e+01 0 0 0
20 1 2.5516328653529431e+01 2.2203433201582477e+01 9.1971167443537869e+00 0 0 0
326 1 2.7072105070207564e+00 2.5668687554841423e+01 1.6778378428218751e+01 0 0 0
3903 1 9.6416313666277009e+00 1.4246502146985449e+01 1.5235563339323585e+01 1 0 0
2264 1 1.2582506919481419e+01 1.4354838897645767e+01 1.4376139643957021e+01 0 0 0
150 1 2.0006075661417594e+01 1.8714550940931041e+01 1.3871645053209798e+01 0 0 0
2471 1 2.1301519984923132e+01 1.4673862863848584e+01 1.3270534606987447e+01 1 0 0
685 1 1.6685519005501845e+01 1.4802004420540554e+01 1.4955031731293328e+01 0 0 0
1040 1 1.9420965492117922e+01 1.4997173645269712e+01 1.5284979435855458e+01 0 1 0
914 1 2.3777366367621202e+01 1.5710889094650261e+01 1.4789209583100419e+01 0 0 1
80 1 8.5201213008593104e+00 1.8506562292127249e+01 2.8139989970692252e+00 0 -1 0
109 1 5.1172896775754344e+00 1.8832528655171650e+01 1.4194254169618103e+01 0 0 0
975 1 4.6302512887680507e+00 1.6310563646725544e+01 1.3167716886169782e+01 0 0 1
1423 1 7.2195771029640543e+00 1.8061063766160910e+01 1.6058241803993308e+01 0 0 0
966 1 9.0332609825077519e+00 1.6806517326421620e+01 1.4240247060844291e+01 0 0 1
438 1 1.1502371208043282e+01 1.7845021500351063e+01 1.5620928892478684e+01 0 0 0
3183 1 1.2916289266979675e+01 1.5834584826125578e+01 1.6738200301774430e+01 0 0 0
131 1 1.6702549886512472e+01 1.6705281903647485e+01 1.3152626896324078e+01 0 0 0
3310 1 1.7051423750136681e+01 1.8189141006485116e+01 1.6321842003983075e+01 0 1 0
3807 1 1.9628505597238547e+01 1.7505025504044220e+01 1.6066790312765587e+01 0 0 1
1895 1 1.5268577284286385e+01 2.4801539476423788e+00 1.2371165856309905e+00 0 1 1
3225 1 9.5056603902920003e+00 2.1603232967681478e+01 1.2296627517927485e+01 0 0 0
759 1 1.3049238505784684e+01 2.1280670908641277e+01 1.5075755093451882e+01 0 0 0
3650 1 1.0499659802984375e+01 2.1640160531947242e+01 1.6765594675794738e+01 0 0 0
3253 1 2.4254788906572820e+01 1.4739955622528997e+00 1.5439579460192602e+01 0 1 0
2251 1 1.3764853234428918e+01 8.9963811665501769e-01 1.3927360971920846e+01 1 -1 0
2711 1 4.5497739579156047e+00 2.4343654464809113e+01 5.3712874950410203e+00 1 -1 1
192 1 6.9508443520586383e+00 2.1798839081097004e+01 1.6170594304552303e+01 0 0 0
2134 1 1.7030715067687215e+01 8.8985352821265131e+00 1.6150160427018044e+01 1 0 0
1816 1 4.5087619710651863e+00 2.5208096993078811e+01 1.4724041636023561e+01 0 0 1
655 1 1.5011789411817707e+01 1.3730930126520686e+01 1.7201934306239586e+01 0 0 0
2313 1 2.4783763497795626e+01 2.3325205906936482e+01 3.7648680272528467e-01 0 0 0
12 1 9.6280278397149139e+00 2.4414334092468689e+01 2.5541123451032066e-01 0 0 0
857 1 3.4043653086871473e-01 2.0436956369340983e+01 9.3721625021770087e+00 0 0 1