LAMMPS data file via write_data, version 7 Aug 2019, timestep = 5000000

4089 atoms
1 atom types

8.5041903947193020e-02 5.1334958096048155e+01 xlo xhi
8.5041903947193020e-02 5.1334958096048155e+01 ylo yhi
8.5041903947193020e-02 5.1334958096048155e+01 zlo zhi

Masses

1 18.15

Atoms # atomic

4070 1 2.0817630402650922e+00 1.6789286845474254e+00 2.9547308048778014e+00 1 3 3
2714 1 5.7822335618502407e+00 2.5624169311041833e+00 1.3953832436259628e+00 1 -1 -1
3238 1 9.5002664694876557e+00 8.1272503490212289e-01 3.0370721719184952e+00 3 0 1
1241 1 7.0636790033477439e+00 1.9062686857556672e+00 3.6566722204221165e+00 1 0 -2
1340 1 1.0612043113042153e+01 2.7153680884216893e+00 1.4243940560849699e+00 2 1 -1
2067 1 1.4143831263727428e+01 9.6504420825367065e-01 3.3676416388362176e+00 1 -1 1
3965 1 3.2760960344010255e+00 2.4284864025128904e+01 6.1574781783793175e-01 0 0 2
100 1 2.0290078446069153e+01 2.0510675382823496e+00 2.7595986277568869e+00 -2 -1 0
2827 1 2.3188979153424437e+01 1.9348912949366197e+00 2.5600957769860901e+00 1 0 1
646 1 3.4142392685408542e+00 3.4732509283069248e+00 1.8040281287590387e+00 -1 0 0
285 1 3.6156424050180447e+00 5.8237950331018959e+00 2.7203403403932636e+00 1 0 0
3289 1 8.3600309926558900e+00 6.1093651358381447e+00 3.0001519380995654e+00 2 2 -2
1113 1 9.1632661642487587e+00 4.8770310168174822e+00 7.2399185777729358e-01 1 1 1
3904 1 1.2832846548704403e+01 3.2374882390678108e+00 2.7953087429220154e+00 -1 0 0
4076 1 1.4156513162975020e+01 4.9199328456781393e+00 1.0672479060982258e+00 0 2 -1
3157 1 1.6278677479605388e+01 6.1193653592018196e+00 2.2031258637370659e+00 1 2 4
1024 1 3.1590890744183486e+00 9.7135072118624262e+00 9.3297775432725416e-01 1 1 -1
1654 1 2.0476877223281448e+01 5.8617450662729986e+00 1.6607310301796783e+00 2 0 0
2662 1 8.3694177159305916e+00 2.5278200233244817e+01 1.1040730764172547e+01 -1 -1 0
3683 1 1.3166695584921930e+00 6.9698088361011123e+00 3.5590689611965987e+00 0 0 1
3470 1 7.7630511245953548e-01 9.1517832828146304e+00 2.1905161755076885e+00 0 -1 -1
1423 1 2.7680362896496677e+00 1.4068939560929394e+01 6.2204168086140499e-01 0 -1 1
1788 1 4.6926380585608811e+00 7.5316776642874430e+00 1.0883196968279623e+00 2 1 0
4015 1 6.8805094659091965e+00 8.4197350953011565e+00 2.1746705027052711e+00 1 1 2
2030 1 1.2209498802500073e+01 8.4730909406507458e+00 2.8296890165053270e+00 -1 0 1
2797 1 1.1588044624774699e-01 3.0914393181048383e+00 1.3863500561608447e+01 0 0 1
685 1 1.6542109942665714e+01 8.8071044559170417e+00 2.0780791022922744e+00 -1 1 -1
1490 1 2.0630768812456679e+01 8.5003822920073837e+00 1.8526179931115432e+00 0 1 0
3222 1 2.3976119262422319e+01 6.6106590382239805e+00 2.8417376605714910e+00 1 -1 0
2078 1 4.4546665656697790e+00 1.2060780876831190e+01 1.3925848958190128e+00 2 -1 -1
3591 1 8.3581639486370563e+00 9.9208468261428990e+00 7.7044190454473005e-01 0 3 1
2266 1 1.0871520159599934e+01 1.0710970394756002e+01 1.9686484558110533e+00 1 1 0
1951 1 2.5317856313842732e+01 2.3402831277597748e+01 6.0047185819398416e+00 1 0 1
4055 1 2.4099886662676621e+01 1.1101671589014110e+01 2.5627079803475872e+00 0 -2 -1
595 1 1.7980189508967960e+01 1.4517049691405951e+01 1.6358967323662771e+01 -1 -1 1
255 1 3.8063440853572089e-01 1.1187232881914547e+01 3.8735367906104554e+00 1 0 -1
2848 1 4.0700908040514747e+00 1.6291580149484975e+01 1.6448187455645018e+00 -1 0 -1
2794 1 8.3043882342361783e+00 1.4240936197987002e+01 8.9881539426090906e-01 0 1 1
1938 1 1.4375343477800737e+01 1.3328453916448568e+01 1.3086813654254326e+00 2 1 -2
808 1 1.8518740398896785e+01 1.3813383769292177e+01 1.2945165774169369e+00 0 -1 3
2538 1 2.2556148479973491e+01 1.4377367655760443e+01 8.1916339211261269e-01 -1 2 0
1129 1 1.8693866394749008e+01 2.7679255909952287e+00 5.1270852325101457e-01 0 2 1
1021 1 2.3202935863489540e+01 1.3594474081541703e+01 3.2331372263041582e+00 0 0 -1
3435 1 2.4965254445130419e+01 2.4348041996950265e+01 8.5977456862595751e+00 0 -1 -1
2689 1 5.5656190446909610e+00 2.3985330788431796e+01 1.4241074186648264e+01 1 -1 1
923 1 1.0137497496890326e+01 1.8113262671908355e+01 2.0567088343825004e+00 -3 0 0
2087 1 1.6317953416671727e+01 1.9584769567393501e+01 1.5741993375008406e+01 1 2 0
3369 1 1.4162527054533468e+01 1.5889138159500872e+01 1.4116263638315587e+00 0 -2 0
2732 1 1.1982365935309216e+01 1.7066268920825468e+01 3.9663218357506369e-01 -1 -1 2
2463 1 1.8365113861148135e+01 1.6475508588885031e+01 1.4287374721511881e+00 1 -1 -1
2217 1 2.2074723096097820e+01 1.7253257308087985e+01 1.0419799453971925e+00 0 1 2
1138 1 1.6777103907590210e+01 4.2545269329265745e-01 5.1190705895941839e+00 0 2 -1
3664 1 2.3587004836838553e+01 1.8442834144417258e+01 3.2820210892604060e+00 1 0 1
1757 1 1.0561895213205956e+00 2.2454422876327417e+01 3.6657960431669441e+00 -1 1 0
4064 1 2.7806338073192398e+00 2.0128773984027298e+01 2.3023635278960142e+00 2 2 -1
352 1 5.1571683353716544e+00 2.0557161323602145e+01 3.5073192406175329e+00 -1 -2 1
2740 1 7.0367529053545965e+00 2.0922314689782105e+01 1.5427614608815834e+00 -1 -1 1
333 1 1.4969105170762566e+01 2.1063294099880668e+01 3.0233261191879626e+00 0 0 0
1454 1 1.2903006871347344e+01 7.2027719625552020e+00 7.6184438888592443e-01 3 0 -2
3880 1 8.1611621349913825e+00 1.8562525123480381e+01 2.6890746097473650e-01 -3 1 0
2955 1 2.2076147028298664e+01 2.1994256847665664e+01 4.6117035220835872e-01 0 -1 2
890 1 2.3786231204226997e+01 2.0983961609188615e+01 2.7256800753394241e+00 1 0 1
1777 1 3.0072757394942671e+00 2.4293988886527156e+01 3.2221202624233913e+00 0 1 2
3517 1 2.1108430947699571e+01 2.5192062387514962e+01 6.9722382775551317e+00 -1 -1 0
3551 1 8.8192028260253519e+00 2.2638891524546075e+01 2.4351518619293624e+00 -2 1 2
714 1 1.7354201515131429e+01 2.3540418666168989e+01 1.4096744369831656e+01 2 0 2
3673 1 1.4630940909015161e+01 2.5360768098412322e+01 9.4200367875171798e-01 -1 0 1
344 1 1.4569878297539107e+01 2.3616043442021450e+01 3.1405099193080637e+00 0 0 -1
4071 1 1.9342237787095993e+01 2.2898865753659244e+01 9.7607048751017400e-01 0 -3 1
1058 1 2.2873892438958681e+00 1.8078369189333426e+01 6.7994754794666612e-01 -2 -1 -1
4021 1 2.2952879672814628e+01 2.4702201798923522e+01 1.1581120573665771e-01 1 0 1
2072 1 2.9456132913946904e+00 1.3950374205861713e+00 5.5685974211285814e+00 0 2 0
1001 1 1.2669444851841643e+01 2.1052273708315262e+01 1.5172714877437500e+01 -1 -1 1
1457 1 1.1030438468050184e+01 2.7637993505150016e+00 6.6019643160232135e+00 -2 1 1
273 1 1.0614353293195260e+01 4.2436955704445234e-01 5.4535465004915755e+00 -1 2 1
3291 1 2.5009503686516894e+01 1.9224521803065112e+01 1.3105523458111927e+01 1 -2 0
2539 1 1.7344379241243740e+01 2.6089506218236993e+00 6.2521326395379280e+00 1 0 0
1296 1 2.4372605982372381e+01 1.7402420632427547e+00 6.9137013828729419e+00 0 1 1
1295 1 2.4868966312254638e+01 2.9748468927157083e+00 4.5446638882200112e+00 -1 2 -1
3720 1 2.9560290180113724e+00 3.8315459445828148e+00 6.8425650730307535e+00 1 1 1
635 1 4.7100118443359369e+00 5.3922425189806855e+00 5.1761550803991101e+00 1 -1 2
3154 1 7.0923170194965506e+00 4.4486956912715687e+00 4.9182574801760941e+00 3 2 -2
3590 1 8.7165838913609814e+00 4.1378325430827738e+00 7.1106411574769606e+00 1 1 2
896 1 1.2636740547116448e+01 4.6284075127865938e+00 5.1860937055734535e+00 1 -2 -1
3563 1 1.4872225562414652e+01 5.8733471161175190e+00 6.2964863428514297e+00 1 -1 1
2604 1 1.7089204515380757e+01 5.5608956436234100e+00 4.7675225797838063e+00 0 1 0
1859 1 1.9568252558568673e+01 4.4174776158737483e+00 4.2105755238416620e+00 1 0 1
2868 1 2.1257056703986514e+01 5.1629121503671769e+00 6.1167496401800596e+00 3 0 0
3032 1 2.3937267543439518e+01 5.1606728052682787e+00 5.4355372339689874e+00 0 1 3
2942 1 6.3567376365994399e-01 7.6899322755952602e+00 6.2739383830057616e+00 -2 2 0
630 1 4.8091590731231255e+00 7.8391198109328704e+00 6.6070207896840056e+00 0 -1 3
345 1 6.2421994110553110e+00 9.2513169126328201e+00 4.6489328073957967e+00 -1 1 2
824 1 1.0136866893101729e+01 8.1442686350250462e+00 6.7072587664067749e+00 1 0 3
3305 1 1.0972924019554497e+01 6.8626813115493857e+00 4.5041461157826248e+00 -1 2 0
3511 1 1.4527248895266435e+01 8.5081118059225478e+00 6.1053027391043395e+00 0 1 0
453 1 1.8367091662869655e+01 7.9534724308494207e+00 5.5134767905919437e+00 -1 2 2
2285 1 2.0565223746899782e+01 7.5070082525565391e+00 7.0262388497323416e+00 1 1 1
2837 1 2.2871036351100063e+01 8.9587785481468885e+00 3.4501125603909681e+00 2 0 1
3554 1 2.5080834997396519e+01 6.4860008476630258e+00 7.1944005273250342e+00 1 2 1
376 1 6.1109284836851483e+00 6.7536218939068460e-01 1.6183060386903360e+01 1 2 0
2323 1 2.6344010806194640e+00 1.1260677337376739e+01 5.8547311504751640e+00 0 0 1
163 1 4.6091283836059000e+00 1.1618344277550955e+01 3.9448819016344512e+00 0 0 2
1691 1 8.5129226445430017e+00 1.0138067480640693e+01 5.7963886249641323e+00 0 -1 1
2659 1 9.9456033106104318e+00 1.1781503727191408e+01 4.1594246930926291e+00 2 -1 0
600 1 1.4395370482342775e+01 9.7874674285569707e+00 3.5963313790018367e+00 1 -1 -3
525 1 1.4330736383662751e+01 1.2522365387017196e+01 3.8009845401389710e+00 0 -2 2
395 1 1.8600507734428611e+01 9.6836327366872048e+00 3.3492306824286096e+00 0 1 0
1744 1 1.9192483858733389e+01 1.2265223935765107e+01 3.5961441496200917e+00 1 0 3
2622 1 2.2167269801484998e+01 9.5079674992443142e+00 6.0829516273977102e+00 3 0 -1
1619 1 2.2006941280629722e+01 1.2214407260418934e+01 7.0424850306309468e+00 -1 3 0
492 1 1.8724490753691787e+00 1.5334593239271255e+01 5.6875128940422268e+00 0 1 1
1011 1 5.8523300247554122e+00 1.3873682667850076e+01 4.7314174263038318e+00 -1 -3 -1
552 1 8.2160243135068995e+00 1.3977205470297539e+01 3.4573532980338877e+00 0 1 0
2678 1 1.1993553227281694e+01 1.3160347689966176e+01 4.9793503654208271e+00 2 0 1
2362 1 1.1582807450483843e+01 1.5780546449925176e+01 5.0950857467478228e+00 0 -2 1
1536 1 1.6784481487434544e+01 1.2599407348837806e+01 4.9423495282226595e+00 0 2 2
3048 1 2.1011512036564795e+01 1.3504041574689428e+01 5.1317342313870684e+00 0 0 1
1620 1 2.5278014168588467e+01 1.4937435596834156e+01 4.2760112084203898e+00 1 3 1
2564 1 1.1112457105122298e+00 1.7389600206818564e+01 6.8266759664093577e+00 2 -2 2
1393 1 4.2262597090995140e+00 1.5829042734821279e+01 4.3850112488108230e+00 0 3 1
1197 1 5.2125588198997219e+00 1.8462607302698359e+01 5.4265424180174335e+00 1 -2 1
1795 1 9.1041501244546197e+00 1.6306111659163648e+01 4.1681857555375030e+00 1 0 1
3010 1 7.4439070922215018e+00 1.7756844935051248e+01 5.9623013933420665e+00 1 1 0
748 1 1.3766237275657746e+01 1.6941154008159561e+01 4.0114908772330171e+00 0 2 0
1183 1 1.6128440975278188e+01 1.7290633151067794e+01 5.3300200441811754e+00 1 0 2
2466 1 1.8458942412083392e+01 1.7827501576158543e+01 3.7588682507670073e+00 0 1 0
93 1 2.0406243333403939e+01 1.6373021995377087e+01 5.4997746459829031e+00 -1 -2 0
3762 1 1.5902059363451659e+01 2.3917906402851042e+01 1.6353400634066158e+01 2 0 1
472 1 2.2685740734515367e+01 1.7608934905492340e+01 5.5915635490168141e+00 0 0 -1
530 1 6.5590539669371306e-01 2.2249716846423667e+01 6.2773173208634372e+00 0 1 1
2207 1 8.9522539354401101e+00 2.0058807523747305e+01 6.2212173375901294e+00 1 2 1
2694 1 1.0994096244930070e+01 2.0710163905659751e+01 2.8585721516796565e+00 -3 0 1
1893 1 1.0809945146859155e+01 2.2024603356963539e+01 5.3829801615613189e+00 0 -1 0
1959 1 1.3240112393575748e+01 1.9468092299368994e+01 4.5858480086226203e+00 -1 0 -1
3838 1 1.5472825552241892e+01 1.9339313794661592e+01 6.9649361381444930e+00 0 3 2
3565 1 1.7566506135034945e+01 2.0501466544245211e+01 4.1745717063818368e+00 1 1 1
1485 1 1.7374790358953810e+01 2.1773370123593278e+01 6.5582662703145669e+00 -1 -1 -2
3570 1 2.2064184663640319e+01 2.0038077027370075e+01 6.5285530145567083e+00 3 0 2
1416 1 2.3117519254849086e+01 2.2005644711699158e+01 5.1164820556361938e+00 -1 3 1
1263 1 5.0634716669178790e+00 2.3223518731127061e+01 4.4382692969951432e+00 0 0 0
879 1 7.4372609389371398e+00 2.4502459378403774e+01 3.8707520087764333e+00 1 3 0
3349 1 6.6496375011615549e-01 1.3313566162778130e+01 1.8978085384403953e+00 1 2 0
3473 1 1.2826147482072189e+01 2.3698755673283213e+01 5.2749671711440680e+00 1 1 -1
1568 1 1.7132728489923299e+01 2.4869115524396786e+01 3.4907744554432432e+00 0 -2 2
1078 1 1.9433566731371180e+01 2.3125434569318205e+01 3.7502688677407532e+00 0 1 1
532 1 2.1802813010179349e+01 2.4144464824874483e+01 4.5538754713018497e+00 -1 0 0
3738 1 1.4472345254693086e+00 1.8704755192788127e+01 1.7085389492930400e+01 1 1 -1
1805 1 6.7840317410127851e+00 2.5072797266858897e+00 8.1964375387177313e+00 -3 0 3
334 1 1.1866586201099469e+01 2.4403009062310477e+00 9.0852339874784924e+00 1 -2 2
1674 1 1.4141177069084261e+01 1.3137950864882864e+00 9.3609801783088109e+00 -1 3 -1
3932 1 3.0676703038615472e-01 1.5668705447513926e+01 3.4597069273122725e+00 1 1 3
1729 1 1.9285806086739672e+01 1.1147905573200736e+00 7.7443311100034196e+00 -1 2 0
2815 1 2.3391873186058405e+01 2.9022769554341936e+00 9.0455366222861624e+00 1 -1 0
1839 1 1.0612376173008254e+01 1.9573037915752398e+01 1.5732159836045424e+01 0 -1 0
3524 1 8.5468886003873534e-01 5.1405406613852582e+00 7.2143402373579253e+00 1 2 -3
2656 1 4.5364022181814532e+00 3.6077191496416381e+00 9.0707018883559751e+00 1 0 0
304 1 1.5450028742280875e+01 5.4932077899828338e+00 9.0061456645048708e+00 -3 0 -3
1829 1 1.6202396395472014e+01 2.9119059050258191e+00 9.0581265582759638e+00 -1 -1 1
1177 1 2.0847832607761607e+01 3.3641188464684388e+00 8.5830536984663279e+00 -2 2 -1
1401 1 1.9932632636318040e+01 5.1181690158372541e+00 1.0536356192686062e+01 1 0 1
1222 1 2.4871685733375571e+01 5.1274578308212835e+00 9.4535627200243653e+00 -1 2 0
1044 1 2.6044147357992382e+00 9.1294270012633856e+00 7.4456208678870732e+00 1 3 1
542 1 1.8627189531926200e+00 9.7127291047535156e+00 9.8680904810169370e+00 1 -1 0
4031 1 6.0301038049530371e+00 7.7651898548308234e+00 8.9858871756970053e+00 1 1 0
3111 1 8.6351460635339308e+00 6.7942663084225901e+00 8.4375112572629192e+00 -1 -1 0
2972 1 1.2317392614731096e+01 9.2493777703203381e+00 7.4569040783780389e+00 0 -1 2
3619 1 1.6706144483562397e+01 8.8327512906718866e+00 7.4783198945651952e+00 0 1 2
2494 1 1.7160291125810677e+01 7.6095685536348787e+00 9.8910635860861298e+00 1 0 2
2575 1 2.0055693170223556e+01 7.7170577823086139e+00 9.5320086680817191e+00 0 0 1
2053 1 2.4125042627623809e+01 8.9842775842622977e+00 7.5066455410152209e+00 0 1 0
1557 1 6.3031513770855714e+00 1.0345868131674942e+01 9.9455887422640963e+00 1 2 -1
924 1 7.6479181213630012e+00 1.1626733125553923e+01 7.9772295596198672e+00 1 -2 1
2115 1 1.0055482940632336e+01 1.2650670698681408e+01 8.7786829417792145e+00 2 0 1
2798 1 1.2192665336596143e+01 1.1900203596560271e+01 7.4276774694792964e+00 -1 0 0
641 1 1.4181000555773807e+01 1.2473912944928291e+01 9.0918836975210411e+00 0 1 -1
3848 1 1.6427305134338955e+01 1.1595348399203937e+01 7.6373882731805462e+00 0 0 2
2910 1 1.8154233882089319e+01 1.2716360970492003e+01 9.4128683406000739e+00 1 -2 1
728 1 2.0692848864941563e+01 1.2409664565430335e+01 9.4605378661135759e+00 1 0 -2
2618 1 1.7661808957332625e+00 1.3019072043639804e+01 7.2869302739774469e+00 1 -1 0
486 1 3.7465429042301155e+00 1.3690890671696311e+01 9.1253525318710711e+00 1 1 -1
3845 1 5.9746620787698523e+00 1.3809846472571833e+01 7.4976519903571770e+00 1 -1 1
3161 1 9.6102808202259151e+00 1.5495898853875303e+01 9.0711279312740896e+00 2 1 1
147 1 1.6010084188403724e+01 1.4931682140372983e+01 6.6597385493505090e+00 -1 1 1
2465 1 1.4126149732542586e+01 1.5173648672823495e+01 9.0804503801952823e+00 2 0 0
2140 1 1.7997167703950645e+01 1.5215972225451550e+01 8.5369138317872082e+00 -1 1 -1
3275 1 2.4525494735177286e+01 1.3321585838168083e+01 7.2738213027743974e+00 1 1 -1
381 1 2.4456484292172792e+01 1.3355580013106115e+01 1.0077105251902520e+01 -1 -1 0
1740 1 6.2922325414572922e-01 1.6991827087846701e+01 9.5059165323749220e+00 2 1 1
683 1 3.2873458322470777e+00 1.8563664456696401e+01 7.4162078371141620e+00 1 -2 0
3712 1 4.8367692689142245e+00 1.7954510914434785e+01 9.5919239090678321e+00 1 2 1
603 1 6.9263502073354459e+00 1.6371391656013419e+01 8.2255680570118113e+00 0 2 1
2353 1 1.1811779048384164e+01 1.6159392376440909e+01 7.6926469054531577e+00 2 1 3
1970 1 1.0433737169887731e+01 1.8769910484817299e+01 8.0953935540547892e+00 1 2 -1
4004 1 2.0154302205898766e+01 1.7120507605746848e+01 8.3501873368418966e+00 0 1 -1
96 1 2.2546114496325366e+01 1.6240155491108389e+01 9.3893176141714374e+00 0 2 -1
3599 1 2.4366286387036656e+01 1.5964118626636784e+01 6.9636985058572680e+00 1 0 -1
1484 1 2.9098662699880466e+00 2.1274318881617305e+01 7.4820233946126322e+00 0 0 0
2420 1 2.2746200937560372e+00 2.1148911175187031e+01 1.0174869929819456e+01 0 -1 1
2645 1 7.4247266548906383e+00 2.1779609964837313e+01 7.8472108230426532e+00 1 1 -1
1874 1 1.2472623716929307e+01 2.0220630787954910e+01 7.3460616337668387e+00 0 0 -1
3320 1 1.3287062761647833e+01 2.2022780257490442e+01 9.3807864300091275e+00 -1 -1 -1
3960 1 1.6619226854864152e+01 1.9413332649234338e+01 9.4306263971597595e+00 0 0 1
1154 1 1.9329243249161362e+01 1.9409441318769765e+01 9.4105472731822104e+00 -1 1 1
3199 1 1.9812224980530761e+01 2.1480992262066774e+01 7.5916115650032081e+00 -2 0 0
73 1 2.3961543025117702e+01 2.0278730652037869e+01 8.7100639968633775e+00 0 2 -1
1768 1 5.0144504088872530e+00 2.2954072406134621e+01 7.0709408135361436e+00 -3 1 -1
3113 1 2.5441557688827476e+01 7.0810910157715079e-01 1.1987473511001621e+01 0 2 1
891 1 9.4930414049845879e+00 2.3659039488560264e+01 7.3339716692239065e+00 0 1 -1
3613 1 1.0323848826481219e+01 2.4210010813844711e+01 9.7640846649953073e+00 2 1 2
2464 1 1.4049098791325878e+01 2.4178196611129373e+01 7.7783963802977167e+00 1 -1 1
3248 1 1.6717845958129448e+01 2.4400974150439666e+01 7.5384469525560576e+00 1 1 0
2522 1 1.7808017469958195e+01 2.4620605615908755e+01 1.0118504809654640e+01 1 1 -1
2374 1 1.3315197416597602e+01 1.6592914510464254e+01 1.6839129372477334e+01 1 -1 0
1415 1 1.9962674804324262e+01 2.3593227466211243e+01 9.0428700833542184e+00 0 1 0
2850 1 3.3130680987701475e+00 2.2479884325890822e+01 1.5028675422565950e+01 1 1 -1
729 1 3.2929072538013859e-01 2.7890143996788388e+00 1.1362792104611081e+01 2 0 1
1864 1 2.8461091322864989e+00 1.9075702247783959e+00 1.0915649485386256e+01 0 1 3
1439 1 4.0690142327842089e+00 1.4175563937597535e+00 1.3288147194431250e+01 2 -1 -1
1435 1 7.5300935150531574e+00 1.9494417755042275e+00 1.0890366117182600e+01 1 0 -1
3414 1 9.6802425838502781e+00 8.0238442375268570e-01 1.0182458178335688e+01 1 1 -2
3950 1 1.1664332628334616e+01 1.0356324136473032e+00 1.2370717395367397e+01 0 -2 1
2606 1 8.4929657872573312e+00 2.0663794020450894e+01 1.4639384471949940e+01 2 0 1
1455 1 1.7734199698103779e+01 1.1603487005334703e+00 1.2591882345886170e+01 1 1 2
2500 1 2.1650110238365347e+01 2.8372671446301707e+00 1.3194421005828296e+01 0 2 0
3423 1 2.3017217842469023e+01 1.4166402780275391e+00 1.1239377171303428e+01 1 -2 1
2205 1 4.6023048545885858e+00 5.8967134006550737e+00 1.0251109228301374e+01 2 0 0
26 1 5.7675630322413314e+00 5.6913713665944901e+00 1.2672868490810817e+01 1 -4 2
3472 1 8.0874395942026247e+00 4.2724669991387367e+00 1.2231766169251175e+01 0 1 1
2255 1 9.5251813518239157e+00 6.4140336997737544e+00 1.1003544202173989e+01 1 1 -1
2397 1 1.1554620330278528e+01 3.4766438900481726e+00 1.3465830972085119e+01 3 0 0
3518 1 1.1478048439544933e+01 4.5504068903129973e+00 1.0951892162012122e+01 -1 0 1
457 1 1.3449685643628010e+01 6.2884665613019726e+00 1.0809364079281629e+01 2 -2 0
3336 1 1.7412700346608510e+01 3.5055823461885129e+00 1.1449260822279435e+01 0 1 1
3853 1 1.6456029212556874e+01 5.0923430240696810e+00 1.3710756106473086e+01 -1 2 -1
2247 1 2.1787409976510510e+01 5.2117745604670942e+00 1.2428374826009776e+01 0 2 2
2660 1 2.4126848043857301e+01 6.6221411124367249e+00 1.1716242643000243e+01 0 1 2
2960 1 2.0638381228171196e+00 7.0310130642209643e+00 1.0843828383128749e+01 2 -1 1
889 1 2.0851898453202975e+00 7.1496465166490974e+00 1.3562199794355326e+01 3 -1 -3
3752 1 7.7873830058333224e+00 1.0345997654828224e+01 1.2387246331118805e+01 2 1 0
3268 1 1.2368414068558877e+01 8.6551451861429420e+00 1.0302474240233154e+01 1 2 0
3627 1 9.9843430186964817e+00 8.8857852703090376e+00 1.2065186716442087e+01 2 2 0
1014 1 1.4944919662176046e+01 7.1163918506668216e+00 1.2922453297002551e+01 0 2 0
2435 1 1.5858972976484916e+01 9.3105806947873955e+00 1.1849842407318857e+01 1 -1 -1
2111 1 2.0238953825061635e+01 9.4193641658215643e+00 1.3077621838551215e+01 1 -2 -1
2485 1 2.0917858970172361e+01 9.9291208389522456e+00 1.0651442168032901e+01 0 0 1
2258 1 2.3347813112759784e+01 8.8729888105893178e+00 1.0119269310543146e+01 1 -1 -1
2524 1 3.6885874882766521e+00 1.1176695080669939e+01 1.3200872054171192e+01 1 -2 0
134 1 3.7390633275538154e+00 1.1453054329552948e+01 1.0573382449282564e+01 -1 0 -3
904 1 1.0609583502807128e+01 1.1711823283629315e+01 1.1226778227505712e+01 -2 2 1
857 1 1.3626658142645473e+01 1.0840732045091418e+01 1.1142570898845028e+01 0 1 1
1860 1 1.7854595318742739e+01 1.0215871101774230e+01 1.3595525212593802e+01 0 1 1
3543 1 2.4616799832142551e+01 1.1127174849872585e+01 1.1381370107922153e+01 2 2 -2
11 1 3.1831946264415043e+00 1.5877815553371773e+01 1.0622816435523431e+01 0 -1 0
452 1 2.4066910630108085e+00 1.6024299452187257e+01 1.3348223558069307e+01 1 -1 2
751 1 1.0249335988631561e+01 1.3813905757134735e+01 1.2914830248789269e+01 0 1 0
2836 1 1.5039225641191639e+01 1.3682809450808650e+01 1.3280233756169563e+01 1 1 -1
3156 1 1.4260957755720129e+01 1.5977594277461359e+01 1.2097220272325529e+01 2 -1 -1
182 1 1.7273699297892151e+01 1.2709592413740452e+01 1.2287275406711592e+01 0 1 -1
2498 1 2.1841361177033935e+01 1.4198781126979533e+01 1.1221833930878796e+01 0 3 0
1468 1 2.1220020891248666e+01 1.3923274900116784e+01 1.3727803446215599e+01 -1 0 -1
3571 1 7.1523925743674690e+00 1.7389343891904932e+01 1.1632583159618578e+01 1 0 2
3607 1 9.6602771535911884e+00 1.6220250076112439e+01 1.1575185442068729e+01 2 -1 0
382 1 1.1839818904585380e+01 1.7610378740848574e+01 1.2346591117610847e+01 0 -3 1
1587 1 1.6654615823072582e+01 1.6764531232627601e+01 1.0537411855605354e+01 -1 1 -2
2293 1 1.8407480126440625e+01 1.7086318221456384e+01 1.2915020743911928e+01 0 0 1
190 1 1.9894307815544732e+01 1.9110785892211254e+01 1.4041552982917603e+01 2 0 2
1871 1 2.3078357369391991e+01 1.8453840382516404e+01 1.1072463006970283e+01 -1 2 0
3702 1 2.4153852853655721e+01 1.5845467143735446e+01 1.2692037907467988e+01 2 0 1
1304 1 4.5198469990953569e+00 2.0343082722552619e+01 1.1199176706716059e+01 1 2 -1
3074 1 4.0006321879319717e+00 2.0113241325893814e+01 1.4015115408151026e+01 1 1 0
3181 1 6.8560990912239701e+00 2.1633951008813675e+01 1.0571679342232565e+01 -2 2 -1
1931 1 8.4024588275448604e+00 1.9715487362904110e+01 1.1959393191033957e+01 0 0 0
2265 1 1.0778477209160178e+01 1.9643831218856523e+01 1.0702147687134085e+01 1 -1 0
538 1 1.1554288699507790e+01 2.2281021749564676e+01 1.1276673217369209e+01 -2 1 1
3566 1 1.4127373056906567e+01 1.9445381022363851e+01 1.3326221991072238e+01 2 -1 0
1946 1 1.5108659263841270e+01 2.0627792661412247e+01 1.1083368287313780e+01 0 -1 -1
592 1 2.0948130216973308e+01 1.9953938305837227e+01 1.1584266938897466e+01 0 -1 -1
1558 1 1.9446090195419530e+00 2.3513233392746201e+01 1.1099694546222846e+01 -2 -1 -1
42 1 4.1446722737658783e+00 2.5345738321033242e+01 1.0509984377921048e+01 -3 -1 0
3324 1 6.0436209365176188e+00 2.4088607735362995e+01 1.1598675421115175e+01 0 -3 1
791 1 1.8320815047420375e+01 5.3233401207820910e+00 5.9129066504931593e-01 1 0 2
3170 1 1.1842873695382984e+01 2.3087911185858569e+01 1.3702798434737607e+01 0 0 -1
1803 1 1.3809524441091032e+01 2.4725438070994716e+01 1.3198352483372634e+01 0 -1 0
3871 1 1.5635508466045025e+01 2.3286287081885067e+01 1.1930195726066689e+01 3 -1 2
3330 1 2.1323622430346525e+01 2.2557945161375105e+01 1.1093330655058871e+01 -2 1 0
268 1 1.9857276551053207e+01 2.4121570876904745e+01 1.3128495798904011e+01 1 -2 2
1879 1 2.4064574953959479e+01 2.2362797290512102e+01 1.0313469090933737e+01 0 1 1
1903 1 6.9206218408453806e+00 3.1911604843421784e+00 1.6150959187905954e+01 1 2 1
2561 1 5.3848314186213386e+00 3.5218473499045422e-01 4.9051994996143167e+00 1 -1 2
708 1 1.5016622196480245e+01 1.8090065587367645e+00 1.6006262281628167e+01 3 2 1
679 1 1.8794645544735939e+01 3.2655330356695043e+00 1.6666353378452317e+01 -2 -2 1
3757 1 1.9322512703740792e+01 1.7185350114107791e+00 1.4493934574618313e+01 1 1 3
180 1 2.4567853742321255e+01 8.7056655478068878e-01 1.6148576432756322e+01 0 0 -1
777 1 2.4667641462214611e+00 4.7648499283568633e+00 1.4541731038860261e+01 1 0 0
2338 1 4.7078980796887082e+00 3.7040795209524537e+00 1.4284965445980081e+01 0 0 -1
2156 1 9.1422641367684729e+00 4.1405140378550893e+00 1.4839400817352784e+01 2 -1 -1
203 1 1.1463564648680675e+00 2.3589300879942531e+01 1.3777328862249018e+01 -2 1 0
1585 1 1.3134444548109295e+01 5.5432459073819453e+00 1.6723637274727658e+01 -1 2 -1
159 1 1.4135080168113987e+01 3.9794279541287594e+00 1.4813562425837588e+01 1 0 2
1211 1 1.8408279202230140e+01 5.8293675016718725e+00 1.5488250555525374e+01 -1 1 0
1227 1 2.5738237592152602e-01 5.3564349642634514e+00 9.9852199678264189e+00 -1 0 -1
4054 1 2.3636486896048915e+01 3.1377774112193664e+00 1.5021436693491495e+01 1 1 2
197 1 6.4720605850698902e+00 8.2487808909873497e+00 1.3661459116722179e+01 1 -2 1
3691 1 3.9484760972959556e+00 8.6128179807354357e+00 1.4689844865915379e+01 2 0 0
811 1 8.0753016407039713e+00 6.8362563092007775e+00 1.5402611205152978e+01 -1 2 1
3737 1 1.0248448914281358e+01 8.4117832669029085e+00 1.4647037520464744e+01 2 0 1
2833 1 1.2939519461899453e+01 7.6384261632729382e+00 1.5061180478393400e+01 1 -2 -1
355 1 9.9169941465397464e+00 2.4427008574131623e+01 1.5012997708417849e+01 1 -1 -1
2655 1 2.0749478020614600e+01 6.9813387209760105e+00 1.4274948933151004e+01 -1 1 -1
2297 1 2.2340822532800932e+01 7.0653313202751002e+00 1.6174955375890267e+01 0 1 -1
242 1 2.4425918443427701e+01 8.3079643073960359e+00 1.5333297811783051e+01 0 0 1
2756 1 1.0282471376788576e+00 1.0846065349637685e+01 1.6699020497801847e+01 -1 -2 1
246 1 1.2792840588063847e+00 1.1990801012673916e+01 1.4183372629647948e+01 1 -1 -2
262 1 5.4836352847172698e+00 1.2835569784460478e+01 1.4274741571427452e+01 1 1 -1
2819 1 4.9466992714812177e+00 1.2292621343938407e+01 1.7140233295247757e+01 2 -3 0
1023 1 8.2311213551555795e+00 1.2518945982609347e+01 1.4143437819288540e+01 -1 1 -2
2834 1 9.9171222386733238e+00 1.0910845696425866e+01 1.5698411752131426e+01 -1 0 -1
303 1 1.2880589048301974e+01 1.1320696427111640e+01 1.3896609346796602e+01 0 1 -2
2512 1 1.3848709440978759e+01 1.0108371505043975e+01 1.5999861193458855e+01 0 2 1
1909 1 1.6610171430765202e+01 1.0050131601381123e+01 1.6448538645353757e+01 1 1 -1
2112 1 1.8139773000225805e+01 2.1158159623723648e+01 1.4789890686385375e+01 0 -1 -1
3379 1 2.1284126863501267e+01 1.1437619302580375e+01 1.4659900318050317e+01 -1 2 0
1375 1 2.3891292172257266e+01 1.0871349824932627e+01 1.3946100911902267e+01 1 1 0
3441 1 1.5543405533311921e+01 3.9323414550957392e-01 1.3753209102931262e+01 -3 3 0
523 1 4.4662321449471376e+00 1.5260845738076357e+01 1.4825912004318125e+01 0 2 0
1811 1 8.6161399982960756e+00 1.5419062175224022e+01 1.5334186843568247e+01 1 -1 0
2225 1 1.2218223188819954e+01 1.3824422266487151e+01 1.4943975867397786e+01 0 1 0
965 1 1.5380771805970303e+01 1.5211357022557861e+01 1.5790194738747717e+01 0 0 2
3231 1 1.0792151595443984e+01 4.3564291687931469e+00 1.7128735559715896e+01 2 1 1
2349 1 1.8565481433027841e+01 1.4787107544793862e+01 1.3665148218916816e+01 1 0 -1
1966 1 1.2706385799317243e+01 2.7875216070707864e-01 1.6502041890783232e+01 -1 0 -1
2901 1 2.2841315357822328e+01 1.5665663146060993e+01 1.5006835933403378e+01 -2 1 1
2430 1 7.4644569471490634e+00 2.3062165915284965e+01 1.5731330524160846e+01 1 -1 1
4012 1 1.7501699471539900e+00 1.8592097307202611e+01 1.4253804212359576e+01 0 1 2
4080 1 6.5562288394618866e+00 1.6799946789578783e+01 1.4058339503447343e+01 2 1 2
2677 1 6.1761823321017717e+00 1.9232694462805934e+01 1.5205990936409123e+01 1 1 0
55 1 1.1171331764990141e+01 1.6916827208298468e+01 1.5022914357541721e+01 0 1 -2
2149 1 1.5968120441541606e+01 1.7264637764547125e+01 1.4097502345315679e+01 1 1 2
1753 1 2.3871146800849253e+01 3.1577413075204226e+00 3.7993140994299007e-01 1 2 0
3616 1 2.1126975711027182e+01 1.7595753900259741e+01 1.5885756621013268e+01 1 3 0
3741 1 4.8503553395094157e+00 2.5686319050822419e+01 7.9220377248469172e+00 3 -1 0
2130 1 2.2973299907330542e+01 5.6970009323496047e+00 4.5551387270192933e-01 0 0 1
2912 1 2.1285320880777892e-01 2.4875520301341268e+01 6.8777751077507858e+00 1 -1 2
3283 1 1.6022359949783656e+01 1.9900259554641266e+01 5.8406660129321741e-01 -1 0 0
514 1 2.0962682464678808e-01 5.7297102749848405e-01 1.4828295115895862e+01 0 0 1
1180 1 1.4595269453875687e-01 1.9702605011814956e+01 1.0414394837871008e+01 -1 1 0
900 1 1.6072263515822847e+01 1.7107940085955278e+01 1.3297617158515940e-01 -1 0 1
3094 1 3.1506449771627321e-01 1.4791744034127298e+01 1.4037092602978316e+01 0 1 -2
2623 1 2.5527047235039898e+01 1.2929325663124450e+01 1.5497808196131510e+01 0 0 0
3727 1 1.3940039542815509e+01 1.5172164187696069e-01 1.1657100567365385e+01 0 0 0
166 1 1.4046589934147764e+01 2.5585905870526325e+01 1.5669752446161382e+01 1 0 -2
2586 1 6.4125489207505648e+00 1.6445207516557758e-01 1.2387278873869768e+01 2 0 -1
3497 1 1.2111495584132344e+01 1.2544534318396908e+01 2.0766755482828392e-01 1 2 0
192 1 6.4844924150955920e+00 1.6197620251511388e+01 3.0579657652214065e-01 0 0 0
920 1 1.4048984412215082e+01 2.1597760196680596e+01 1.7086599156153870e+01 0 0 0
1124 1 2.3933560172498556e+01 1.4543654236820307e+01 1.6923778862890202e+01 0 1 0
955 1 2.4960570557629989e+01 1.0558875715444140e+01 1.3440598393212611e-01 0 -1 0
2415 1 2.3965538907180804e+01 3.3309236642988882e-01 3.2377091332457127e+01 -2 -1 -1
3732 1 7.9550890568285064e+00 1.1817624032332326e+00 2.0198957111403043e+01 1 1 1
3152 1 1.6619090590876425e+01 2.2542155494567240e+00 1.8077282534694220e+01 0 1 1